 Gaussian 16, Revision C.01,
 Gaussian 16:  ES64L-G16RevC.01  3-Jul-2019

 -------------------------------------------------------------------
 # B3LYP/6-31G* guess=read geom=check nosymm integral(ultrafinegrid)
 -------------------------------------------------------------------

 ------------------------------------------------------
 Candidate Structure: Conf:231 Charge calc in gas phase
 ------------------------------------------------------
 Structure from the checkpoint file:  "conf-231.chk"
 Charge =  1 Multiplicity = 1

                          Input orientation:
 ---------------------------------------------------------------------
 Center     Atomic      Atomic             Coordinates (Angstroms)
 Number     Number       Type             X           Y           Z
 ---------------------------------------------------------------------
      1          7           0      -11.002058    6.853834    0.206197
      2          1           0      -11.294261    6.412568   -0.668310
      3          1           0      -11.308759    7.826266    0.204493
      4          1           0      -11.461657    6.341890    0.971567
      5          6           0       -9.536170    6.724185    0.425616
      6          1           0       -8.999925    7.024412   -0.478544
      7          6           0       -9.289235    5.247296    0.748890
      8          6           0       -9.077028    7.614162    1.592210
      9          1           0       -9.603072    7.287845    2.494095
     10          1           0       -9.392041    8.640846    1.373527
     11          8           0      -10.164143    4.606278    1.326418
     12          6           0       -7.583147    7.552133    1.799503
     13          6           0       -7.035146    6.781263    2.825831
     14          1           0       -7.690416    6.213477    3.480812
     15          6           0       -6.727073    8.238218    0.935255
     16          1           0       -7.152305    8.823504    0.123534
     17          6           0       -5.652123    6.720241    2.997449
     18          1           0       -5.237399    6.118827    3.800929
     19          6           0       -5.345415    8.178794    1.106228
     20          1           0       -4.695829    8.726059    0.432478
     21          6           0       -4.804944    7.420348    2.142095
     22          1           0       -3.730897    7.374608    2.280389
     23          7           0       -8.092314    4.753704    0.393515
     24          1           0       -7.363005    5.364494    0.042397
     25          6           0       -7.630144    3.449528    0.851420
     26          1           0       -8.099168    3.234759    1.815961
     27          6           0       -6.117162    3.572355    1.015240
     28          6           0       -7.981212    2.338460   -0.141574
     29          1           0       -7.590984    1.379553    0.211534
     30          1           0       -7.533824    2.553490   -1.114807
     31          1           0       -9.064729    2.264476   -0.256134
     32          8           0       -5.451538    4.243616    0.237362
     33          7           0       -5.586159    2.891480    2.069094
     34          1           0       -6.134654    2.119359    2.419886
     35          6           0       -4.149772    2.658448    2.120782
     36          1           0       -3.674178    3.548593    1.705013
     37          6           0       -3.826355    1.436998    1.239993
     38          6           0       -3.698509    2.435359    3.561946
     39          1           0       -2.616454    2.291739    3.613208
     40          1           0       -4.183014    1.549056    3.983122
     41          1           0       -3.967346    3.300720    4.172765
     42          8           0       -4.673292    0.585360    0.996092
     43          7           0       -2.551407    1.359620    0.804794
     44          1           0       -1.845473    2.033239    1.069001
     45          6           0       -2.077005    0.226740    0.036806
     46          1           0       -2.512540   -0.687466    0.450092
     47          6           0       -0.555417    0.211126    0.189699
     48          6           0       -2.527174    0.296914   -1.454453
     49          1           0       -3.615162    0.387568   -1.428426
     50          1           0       -2.116552    1.198256   -1.920356
     51          8           0        0.043469    1.214502    0.592492
     52          6           0       -2.110810   -0.936538   -2.197177
     53          6           0       -0.980281   -0.959999   -3.035844
     54          1           0       -0.477801   -0.027913   -3.276388
     55          6           0       -2.718928   -2.167475   -1.881814
     56          1           0       -3.600814   -2.153749   -1.238751
     57          6           0       -0.436426   -2.135803   -3.478140
     58          1           0        0.473712   -2.129029   -4.068341
     59          6           0       -2.195709   -3.366293   -2.297624
     60          1           0       -2.649870   -4.310077   -2.016575
     61          8           0       -0.437605   -4.497983   -3.414071
     62          6           0       -0.974867   -3.424557   -3.088648
     63          7           0        0.078135   -0.929348   -0.160999
     64          1           0       -0.434330   -1.589083   -0.746340
     65          6           0        1.542642   -1.001916   -0.238093
     66          1           0        1.913784   -0.422900    0.608986
     67          6           0        1.986573   -0.314430   -1.533743
     68          6           0        1.999028   -2.452426   -0.143802
     69          1           0        1.475679   -2.907004    0.703467
     70          1           0        1.672736   -2.973882   -1.048845
     71          8           0        2.351365   -0.935029   -2.540176
     72          6           0        3.510368   -2.653776    0.037748
     73          1           0        4.016105   -2.132667   -0.785285
     74          6           0        4.017268   -2.085788    1.364181
     75          1           0        3.546060   -2.604877    2.206052
     76          1           0        5.099639   -2.218874    1.453489
     77          1           0        3.805956   -1.017642    1.465701
     78          6           0        3.839380   -4.145178   -0.068764
     79          1           0        3.327730   -4.707998    0.718277
     80          1           0        3.524255   -4.550983   -1.033769
     81          1           0        4.914353   -4.320530    0.038411
     82          7           0        1.916325    1.037134   -1.511324
     83          1           0        1.544917    1.465155   -0.667376
     84          6           0        1.831588    1.826868   -2.737451
     85          1           0        1.384050    1.184243   -3.506665
     86          6           0        3.231350    2.222839   -3.234427
     87          6           0        0.937095    3.042048   -2.481414
     88          1           0        0.115342    2.725381   -1.830407
     89          1           0        1.517211    3.791204   -1.935303
     90          8           0        3.586265    3.380901   -3.408852
     91          6           0        0.342154    3.669725   -3.749642
     92          1           0        1.128932    3.946708   -4.451661
     93          1           0       -0.218254    4.567555   -3.475142
     94          6           0       -0.593991    2.695345   -4.411601
     95          8           0       -0.397889    2.094265   -5.437687
     96          8           0       -1.721848    2.506543   -3.666232
     97          7           0        4.057525    1.166211   -3.451761
     98          1           0        3.647272    0.236798   -3.437746
     99          6           0        5.352567    1.370696   -4.059724
    100          1           0        5.846773    2.205053   -3.552298
    101          6           0        5.200975    1.732576   -5.532398
    102          6           0        6.183405    0.087017   -3.905147
    103          1           0        5.705436   -0.708050   -4.486896
    104          1           0        6.124275   -0.200939   -2.850623
    105          8           0        4.328304    1.341671   -6.263930
    106          6           0        7.647916    0.225245   -4.310558
    107          1           0        8.104073    1.056333   -3.764348
    108          1           0        7.729031    0.459596   -5.375451
    109          6           0        8.422196   -1.050950   -4.012089
    110          1           0        7.975496   -1.897508   -4.550234
    111          1           0        8.359224   -1.267605   -2.940684
    112          7           0        9.838898   -0.885429   -4.385876
    113          1           0        9.991720   -0.306847   -5.201842
    114          7           0       10.428415   -3.006367   -3.577788
    115          1           0       11.166000   -3.595586   -3.222581
    116          1           0        9.551335   -3.053943   -3.084440
    117          7           0       11.972949   -1.714950   -4.781301
    118          1           0       12.704416   -2.343688   -4.482707
    119          1           0       12.284391   -0.767609   -4.951033
    120          6           0       10.744365   -1.868877   -4.226724
    121          8           0        6.217599    2.526180   -5.950478
    122          1           0       -2.241217    1.831851   -4.130119
    123          1           0        6.061549    2.683988   -6.894204
 ---------------------------------------------------------------------

 SCF Done:  E(RB3LYP) =  -2973.90443499     A.U. after    1 cycles

 Alpha  occ. eigenvalues --  -19.24856 -19.24607 -19.21796 -19.19562 -19.18755
 Alpha  occ. eigenvalues --  -19.16244 -19.16018 -19.15402 -19.15213 -19.15014
 Alpha  occ. eigenvalues --  -19.02688 -14.62290 -14.51046 -14.50567 -14.50443
 Alpha  occ. eigenvalues --  -14.47429 -14.42856 -14.39187 -14.38890 -14.38832
 Alpha  occ. eigenvalues --  -14.38668 -10.45677 -10.41750 -10.40314 -10.36615
 Alpha  occ. eigenvalues --  -10.36383 -10.34410 -10.34226 -10.33643 -10.32457
 Alpha  occ. eigenvalues --  -10.32266 -10.32166 -10.31854 -10.31606 -10.30207
 Alpha  occ. eigenvalues --  -10.29189 -10.28856 -10.28788 -10.28648 -10.28571
 Alpha  occ. eigenvalues --  -10.28096 -10.28002 -10.27824 -10.27102 -10.26400
 Alpha  occ. eigenvalues --  -10.26004 -10.25507 -10.25381 -10.24483 -10.22730
 Alpha  occ. eigenvalues --  -10.22690 -10.21615 -10.20549 -10.20304 -10.19781
 Alpha  occ. eigenvalues --  -10.19235 -10.18365 -10.15731 -10.15689 -10.15268
 Alpha  occ. eigenvalues --  -10.13500 -10.13042  -1.18688  -1.15762  -1.15285
 Alpha  occ. eigenvalues --   -1.15194  -1.12770  -1.11753  -1.08245  -1.07559
 Alpha  occ. eigenvalues --   -1.07343  -1.06614  -1.06292  -1.04728  -1.04042
 Alpha  occ. eigenvalues --   -1.04004  -1.03869  -0.99561  -0.96734  -0.96536
 Alpha  occ. eigenvalues --   -0.96190  -0.95765  -0.95268  -0.92972  -0.92817
 Alpha  occ. eigenvalues --   -0.89867  -0.87106  -0.85001  -0.84465  -0.83875
 Alpha  occ. eigenvalues --   -0.83839  -0.83267  -0.83027  -0.81816  -0.79571
 Alpha  occ. eigenvalues --   -0.79092  -0.78242  -0.76982  -0.76036  -0.75826
 Alpha  occ. eigenvalues --   -0.74997  -0.74834  -0.74440  -0.72962  -0.71814
 Alpha  occ. eigenvalues --   -0.71281  -0.70979  -0.70583  -0.70489  -0.70246
 Alpha  occ. eigenvalues --   -0.68978  -0.68753  -0.68315  -0.68006  -0.67549
 Alpha  occ. eigenvalues --   -0.66843  -0.64994  -0.64613  -0.63916  -0.63690
 Alpha  occ. eigenvalues --   -0.63297  -0.63136  -0.63011  -0.62532  -0.61140
 Alpha  occ. eigenvalues --   -0.60829  -0.60789  -0.60268  -0.60169  -0.59992
 Alpha  occ. eigenvalues --   -0.58574  -0.58233  -0.57810  -0.57181  -0.56910
 Alpha  occ. eigenvalues --   -0.56766  -0.56039  -0.55883  -0.55600  -0.55282
 Alpha  occ. eigenvalues --   -0.54886  -0.54563  -0.53842  -0.53624  -0.53234
 Alpha  occ. eigenvalues --   -0.52883  -0.52798  -0.52052  -0.51941  -0.51481
 Alpha  occ. eigenvalues --   -0.51312  -0.51171  -0.50875  -0.50630  -0.50355
 Alpha  occ. eigenvalues --   -0.50223  -0.50075  -0.49781  -0.49025  -0.48865
 Alpha  occ. eigenvalues --   -0.48550  -0.48443  -0.47995  -0.47787  -0.47267
 Alpha  occ. eigenvalues --   -0.46764  -0.46715  -0.46464  -0.46184  -0.45860
 Alpha  occ. eigenvalues --   -0.45722  -0.45509  -0.45080  -0.44814  -0.44644
 Alpha  occ. eigenvalues --   -0.44516  -0.44266  -0.44104  -0.44073  -0.43725
 Alpha  occ. eigenvalues --   -0.43568  -0.43515  -0.43389  -0.43032  -0.42621
 Alpha  occ. eigenvalues --   -0.42420  -0.42346  -0.41967  -0.41838  -0.41613
 Alpha  occ. eigenvalues --   -0.41331  -0.41239  -0.40982  -0.40718  -0.40082
 Alpha  occ. eigenvalues --   -0.39925  -0.39511  -0.39174  -0.39043  -0.38773
 Alpha  occ. eigenvalues --   -0.38520  -0.38306  -0.37959  -0.37297  -0.36841
 Alpha  occ. eigenvalues --   -0.36765  -0.35762  -0.35318  -0.35179  -0.35025
 Alpha  occ. eigenvalues --   -0.34398  -0.34323  -0.33936  -0.33650  -0.33526
 Alpha  occ. eigenvalues --   -0.32863  -0.32561  -0.31739  -0.31376  -0.30921
 Alpha  occ. eigenvalues --   -0.30326  -0.29783  -0.29609  -0.29340  -0.29135
 Alpha  occ. eigenvalues --   -0.28953  -0.27554  -0.26970  -0.26465  -0.22045
 Alpha  occ. eigenvalues --   -0.16348  -0.13299
 Alpha virt. eigenvalues --   -0.12429  -0.12315  -0.10653  -0.10435  -0.09624
 Alpha virt. eigenvalues --   -0.07433  -0.06306  -0.05608  -0.04629  -0.04423
 Alpha virt. eigenvalues --   -0.03532  -0.02668  -0.02497  -0.02142  -0.01957

 Mulliken charges:
               1
     1  N   -0.717185
     2  H    0.430530
     3  H    0.418946
     4  H    0.425967
     5  C   -0.145128
     6  H    0.216603
     7  C    0.640617
     8  C   -0.372554
     9  H    0.188678
    10  H    0.174296
    11  O   -0.531769
    12  C    0.153074
    13  C   -0.181553
    14  H    0.145500
    15  C   -0.192581
    16  H    0.127135
    17  C   -0.122640
    18  H    0.158489
    19  C   -0.117143
    20  H    0.160357
    21  C   -0.109495
    22  H    0.161100
    23  N   -0.590645
    24  H    0.367475
    25  C   -0.054038
    26  H    0.179787
    27  C    0.617313
    28  C   -0.449702
    29  H    0.198957
    30  H    0.178687
    31  H    0.167728
    32  O   -0.525181
    33  N   -0.581367
    34  H    0.340554
    35  C   -0.086093
    36  H    0.182134
    37  C    0.635469
    38  C   -0.454348
    39  H    0.173794
    40  H    0.165620
    41  H    0.155022
    42  O   -0.545578
    43  N   -0.615270
    44  H    0.343596
    45  C   -0.036815
    46  H    0.186202
    47  C    0.617076
    48  C   -0.380727
    49  H    0.156309
    50  H    0.164818
    51  O   -0.586991
    52  C    0.066838
    53  C   -0.214138
    54  H    0.086592
    55  C   -0.195405
    56  H    0.096378
    57  C   -0.219446
    58  H    0.107307
    59  C   -0.219652
    60  H    0.094998
    61  O   -0.625072
    62  C    0.403680
    63  N   -0.601679
    64  H    0.393002
    65  C   -0.070534
    66  H    0.165938
    67  C    0.645387
    68  C   -0.280268
    69  H    0.139610
    70  H    0.202972
    71  O   -0.549454
    72  C   -0.078618
    73  H    0.122648
    74  C   -0.446231
    75  H    0.145581
    76  H    0.127747
    77  H    0.140268
    78  C   -0.444931
    79  H    0.146418
    80  H    0.169115
    81  H    0.116685
    82  N   -0.624303
    83  H    0.374954
    84  C   -0.077957
    85  H    0.213647
    86  C    0.647172
    87  C   -0.324116
    88  H    0.175181
    89  H    0.166249
    90  O   -0.538794
    91  C   -0.329505
    92  H    0.193570
    93  H    0.161921
    94  C    0.565532
    95  O   -0.445204
    96  O   -0.569514
    97  N   -0.629470
    98  H    0.381858
    99  C   -0.007120
   100  H    0.184376
   101  C    0.587949
   102  C   -0.314735
   103  H    0.179724
   104  H    0.169690
   105  O   -0.440914
   106  C   -0.303113
   107  H    0.172911
   108  H    0.166805
   109  C   -0.156636
   110  H    0.190037
   111  H    0.176464
   112  N   -0.594863
   113  H    0.361093
   114  N   -0.736479
   115  H    0.371875
   116  H    0.388130
   117  N   -0.738370
   118  H    0.366971
   119  H    0.372625
   120  C    0.740992
   121  O   -0.574942
   122  H    0.422162
   123  H    0.413388
 Sum of Mulliken charges =   1.00000

 Dipole moment (field-independent basis, Debye):
    X=              1.5165    Y=             30.1280    Z=             -0.0230  Tot=             30.1661
 Quadrupole moment (field-independent basis, Debye-Ang):
   XX=            496.1602   YY=           -184.0931   ZZ=           -338.2531
   XY=           -375.9276   XZ=           -176.0889   YZ=             -1.2672

 Normal termination of Gaussian 16 at Sun Aug  7 18:51:14 2022.
