 Gaussian 16, Revision C.01,
 Gaussian 16:  ES64L-G16RevC.01  3-Jul-2019

 ----------------------------------------------------------------------
 # B3LYP/6-31G* empiricaldispersion=gd3bj guess=read geom=check nosymm
 integral(ultrafinegrid)
 ----------------------------------------------------------------------

 ------------------------------------------------------
 Candidate Structure: Conf:746 Charge calc in gas phase
 ------------------------------------------------------
 Structure from the checkpoint file:  "conf-746.chk"
 Charge =  1 Multiplicity = 1

                          Input orientation:
 ---------------------------------------------------------------------
 Center     Atomic      Atomic             Coordinates (Angstroms)
 Number     Number       Type             X           Y           Z
 ---------------------------------------------------------------------
      1          7           0        0.583301   -3.529464    3.288141
      2          1           0        1.101857   -3.769937    2.443939
      3          1           0        1.250338   -3.087713    3.917422
      4          6           0       -0.480854   -2.604577    2.940606
      5          1           0       -0.904174   -2.203012    3.871109
      6          6           0       -0.003765   -1.437148    2.074064
      7          6           0       -1.594409   -3.332858    2.158914
      8          1           0       -1.173286   -3.724139    1.225420
      9          1           0       -2.374146   -2.621340    1.863828
     10          8           0        0.975393   -1.513216    1.326611
     11          6           0       -2.212237   -4.476044    2.957948
     12          1           0       -2.684027   -4.113673    3.880326
     13          1           0       -1.439504   -5.182494    3.277318
     14          6           0       -3.255573   -5.211141    2.147170
     15          8           0       -3.561272   -4.954031    1.002669
     16          8           0       -3.821825   -6.209020    2.858844
     17          7           0       -0.726787   -0.279966    2.108988
     18          1           0       -1.563948   -0.202352    2.669589
     19          6           0       -0.469074    0.707860    1.070942
     20          1           0       -0.904845    1.657845    1.402563
     21          6           0        1.039969    0.948681    1.065237
     22          6           0       -1.122705    0.251806   -0.258844
     23          1           0       -0.825770   -0.787310   -0.422406
     24          1           0       -2.201630    0.241564   -0.060906
     25          8           0        1.562856    1.059635    2.253209
     26          6           0       -0.809030    1.057726   -1.498760
     27          6           0       -0.339825    0.400601   -2.649345
     28          1           0       -0.244072   -0.682503   -2.639728
     29          6           0       -0.946201    2.454203   -1.547591
     30          1           0       -1.340752    2.993019   -0.688501
     31          6           0        0.016806    1.105525   -3.792879
     32          1           0        0.386874    0.595229   -4.675844
     33          6           0       -0.579779    3.172405   -2.681289
     34          1           0       -0.698899    4.251007   -2.708999
     35          8           0        0.355492    3.159915   -4.906183
     36          1           0        0.787912    4.027014   -4.621726
     37          6           0       -0.069767    2.506619   -3.813635
     38          7           0        1.701402    1.197363   -0.043791
     39          1           0        1.111867    1.155420   -0.881568
     40          6           0        3.148591    1.094615   -0.343744
     41          1           0        3.437685    0.053314   -0.147484
     42          6           0        4.117146    1.953662    0.467628
     43          6           0        3.364140    1.409317   -1.839759
     44          1           0        4.396674    1.134249   -2.070702
     45          1           0        2.713519    0.752027   -2.427861
     46          8           0        5.284991    2.040062    0.210561
     47          6           0        3.116885    2.877990   -2.212483
     48          1           0        3.768202    3.521950   -1.605588
     49          1           0        2.080293    3.148152   -1.976814
     50          6           0        3.400906    3.137300   -3.698098
     51          1           0        4.421075    2.804474   -3.927929
     52          1           0        2.720894    2.542834   -4.316516
     53          6           0        3.293638    4.607887   -4.112949
     54          1           0        4.034308    5.206270   -3.561588
     55          1           0        3.539982    4.689271   -5.175609
     56          7           0        1.923481    5.148934   -3.943748
     57          1           0        1.859205    6.061070   -4.393906
     58          1           0        1.730651    5.311403   -2.956424
     59          8           0        3.548265    2.599708    1.533666
     60          1           0        2.434209    1.525588    2.222937
     61          1           0        4.259382    3.088356    1.996785
     62          1           0       -4.474529   -6.636356    2.272217
 ---------------------------------------------------------------------

 SCF Done:  E(RB3LYP) =  -1526.32304125     A.U. after    1 cycles

 Alpha  occ. eigenvalues --  -19.36373 -19.35411 -19.29185 -19.26103 -19.25030
 Alpha  occ. eigenvalues --  -19.23990 -19.20666 -14.54112 -14.49587 -14.44550
 Alpha  occ. eigenvalues --  -14.41160 -10.48857 -10.47656 -10.40863 -10.40028
 Alpha  occ. eigenvalues --  -10.39235 -10.38908 -10.34675 -10.33118 -10.32212
 Alpha  occ. eigenvalues --  -10.31940 -10.31669 -10.30462 -10.30371 -10.30237
 Alpha  occ. eigenvalues --  -10.29983 -10.29155 -10.28603 -10.28583 -10.28443
 Alpha  occ. eigenvalues --  -10.27557  -1.27128  -1.25677  -1.17489  -1.17114
 Alpha  occ. eigenvalues --   -1.16857  -1.13084  -1.11656  -1.08172  -1.06122
 Alpha  occ. eigenvalues --   -1.00209  -0.99140  -0.96599  -0.95322  -0.91226
 Alpha  occ. eigenvalues --   -0.88673  -0.87753  -0.86044  -0.85386  -0.82568
 Alpha  occ. eigenvalues --   -0.81389  -0.80381  -0.78367  -0.76284  -0.74279
 Alpha  occ. eigenvalues --   -0.73985  -0.72527  -0.72273  -0.71244  -0.69545
 Alpha  occ. eigenvalues --   -0.69081  -0.67354  -0.66019  -0.65548  -0.64250
 Alpha  occ. eigenvalues --   -0.63901  -0.63377  -0.61351  -0.61116  -0.60374
 Alpha  occ. eigenvalues --   -0.59715  -0.59267  -0.58589  -0.58173  -0.57802
 Alpha  occ. eigenvalues --   -0.57127  -0.56480  -0.56371  -0.55947  -0.55440
 Alpha  occ. eigenvalues --   -0.54963  -0.54942  -0.54565  -0.54277  -0.53736
 Alpha  occ. eigenvalues --   -0.52808  -0.52381  -0.51538  -0.51412  -0.51129
 Alpha  occ. eigenvalues --   -0.50191  -0.49610  -0.49410  -0.49042  -0.48101
 Alpha  occ. eigenvalues --   -0.47839  -0.47731  -0.46471  -0.46285  -0.45854
 Alpha  occ. eigenvalues --   -0.45609  -0.45292  -0.44765  -0.44127  -0.43916
 Alpha  occ. eigenvalues --   -0.43654  -0.43345  -0.42265  -0.40734  -0.39226
 Alpha  occ. eigenvalues --   -0.38612  -0.38432  -0.36835  -0.36059  -0.34466
 Alpha  occ. eigenvalues --   -0.33728  -0.31880
 Alpha virt. eigenvalues --   -0.17184  -0.14386  -0.11445  -0.10770  -0.09971
 Alpha virt. eigenvalues --   -0.07382  -0.05630  -0.04916  -0.03767  -0.02850
 Alpha virt. eigenvalues --   -0.02383  -0.01341  -0.00644  -0.00122   0.00360

 Mulliken charges:
               1
     1  N   -0.685413
     2  H    0.319309
     3  H    0.313412
     4  C   -0.095101
     5  H    0.153026
     6  C    0.628920
     7  C   -0.262924
     8  H    0.172298
     9  H    0.147272
    10  O   -0.541349
    11  C   -0.353958
    12  H    0.176896
    13  H    0.218444
    14  C    0.583583
    15  O   -0.464373
    16  O   -0.561145
    17  N   -0.588018
    18  H    0.354479
    19  C   -0.051044
    20  H    0.205260
    21  C    0.662555
    22  C   -0.343471
    23  H    0.193760
    24  H    0.187273
    25  O   -0.552391
    26  C    0.044437
    27  C   -0.195987
    28  H    0.156221
    29  C   -0.177212
    30  H    0.134887
    31  C   -0.161202
    32  H    0.166621
    33  C   -0.195702
    34  H    0.146372
    35  O   -0.672536
    36  H    0.464517
    37  C    0.376763
    38  N   -0.627206
    39  H    0.410696
    40  C   -0.064426
    41  H    0.244844
    42  C    0.619781
    43  C   -0.321898
    44  H    0.203332
    45  H    0.180512
    46  O   -0.400168
    47  C   -0.297644
    48  H    0.150243
    49  H    0.147350
    50  C   -0.274125
    51  H    0.158352
    52  H    0.178163
    53  C   -0.150738
    54  H    0.150054
    55  H    0.178524
    56  N   -0.778539
    57  H    0.342200
    58  H    0.323317
    59  O   -0.616671
    60  H    0.469325
    61  H    0.451790
    62  H    0.418454
 Sum of Mulliken charges =   1.00000

 Dipole moment (field-independent basis, Debye):
    X=              6.5341    Y=              9.3558    Z=              2.8974  Tot=             11.7737
 Quadrupole moment (field-independent basis, Debye-Ang):
   XX=           -147.0595   YY=           -119.0793   ZZ=           -150.8919
   XY=             32.5815   XZ=            -15.5132   YZ=            -19.2492

 Normal termination of Gaussian 16 at Thu Jun 23 14:34:06 2022.
