 Gaussian 16, Revision C.01,
 Gaussian 16:  ES64L-G16RevC.01  3-Jul-2019

 ----------------------------------------------------------------------
 # B3LYP/6-31G* empiricaldispersion=gd3bj guess=read geom=check nosymm
 integral(ultrafinegrid)
 ----------------------------------------------------------------------

 ------------------------------------------------------
 Candidate Structure: Conf:771 Charge calc in gas phase
 ------------------------------------------------------
 Structure from the checkpoint file:  "conf-771.chk"
 Charge =  1 Multiplicity = 1

                          Input orientation:
 ---------------------------------------------------------------------
 Center     Atomic      Atomic             Coordinates (Angstroms)
 Number     Number       Type             X           Y           Z
 ---------------------------------------------------------------------
      1          7           0       -0.018013   -4.635342    3.588076
      2          1           0       -0.261122   -5.237907    2.801372
      3          1           0        0.998479   -4.679169    3.651127
      4          6           0       -0.397579   -3.259609    3.291954
      5          1           0       -0.152505   -2.664947    4.184235
      6          6           0        0.481332   -2.647237    2.173204
      7          6           0       -1.917058   -3.150086    3.096583
      8          1           0       -2.221879   -2.099435    3.129503
      9          1           0       -2.370535   -3.630277    3.966814
     10          8           0        1.631517   -3.033931    2.008766
     11          6           0       -2.468805   -3.813147    1.810662
     12          1           0       -3.165866   -4.623164    2.033507
     13          1           0       -1.659645   -4.267126    1.219540
     14          6           0       -3.150353   -2.831126    0.884061
     15          8           0       -2.811244   -1.666643    0.721332
     16          8           0       -4.171561   -3.376692    0.215955
     17          7           0       -0.073711   -1.617898    1.448688
     18          1           0       -1.085260   -1.490627    1.470183
     19          6           0        0.562103   -0.981153    0.317385
     20          1           0       -0.228737   -0.436500   -0.209201
     21          6           0        1.585490    0.051022    0.734682
     22          6           0        1.222250   -1.957472   -0.721407
     23          1           0        1.880270   -2.627192   -0.169162
     24          1           0        0.395295   -2.550397   -1.126103
     25          8           0        2.391536   -0.248800    1.700351
     26          6           0        1.971000   -1.230468   -1.809352
     27          6           0        1.301922   -0.607876   -2.874355
     28          1           0        0.223198   -0.715111   -2.968546
     29          6           0        3.363512   -1.099163   -1.739954
     30          1           0        3.907253   -1.590023   -0.936351
     31          6           0        1.992769    0.126592   -3.834274
     32          1           0        1.477504    0.593139   -4.667233
     33          6           0        4.071139   -0.365074   -2.691941
     34          1           0        5.154546   -0.291864   -2.629695
     35          8           0        4.005482    1.000038   -4.697358
     36          1           0        4.967118    0.970383   -4.569281
     37          6           0        3.385544    0.253927   -3.743415
     38          7           0        1.678059    1.175811    0.055949
     39          1           0        1.006175    1.285911   -0.697440
     40          6           0        2.871102    2.054108   -0.065911
     41          1           0        3.744189    1.390765   -0.097989
     42          6           0        3.001828    2.961936    1.161524
     43          6           0        2.773271    2.853230   -1.364502
     44          1           0        2.367088    2.191415   -2.136438
     45          1           0        2.074486    3.684581   -1.221677
     46          8           0        2.895050    4.153480    1.187885
     47          6           0        4.132471    3.373440   -1.839938
     48          1           0        4.815567    2.518711   -1.948876
     49          1           0        4.567682    4.037234   -1.083024
     50          6           0        4.015456    4.111989   -3.175928
     51          1           0        3.474359    3.478518   -3.891666
     52          1           0        3.431651    5.031192   -3.053393
     53          6           0        5.375578    4.474937   -3.773042
     54          1           0        5.928837    5.104416   -3.065092
     55          1           0        5.970217    3.545467   -3.892085
     56          7           0        5.193320    5.238004   -5.003857
     57          1           0        4.812609    4.639802   -5.735323
     58          1           0        6.087893    5.581044   -5.346582
     59          8           0        3.284681    2.205761    2.270872
     60          1           0        2.921455    0.528870    2.016655
     61          1           0        3.348348    2.788030    3.054332
     62          1           0       -4.544555   -2.691210   -0.371845
 ---------------------------------------------------------------------

 SCF Done:  E(RB3LYP) =  -1526.30278347     A.U. after    3 cycles

 Alpha  occ. eigenvalues --  -19.37256 -19.36288 -19.30678 -19.29820 -19.29039
 Alpha  occ. eigenvalues --  -19.25657 -19.22060 -14.56366 -14.47046 -14.39821
 Alpha  occ. eigenvalues --  -14.38328 -10.49359 -10.47738 -10.43602 -10.40272
 Alpha  occ. eigenvalues --  -10.38907 -10.38866 -10.36624 -10.31844 -10.31768
 Alpha  occ. eigenvalues --  -10.31601 -10.31094 -10.30979 -10.30966 -10.30714
 Alpha  occ. eigenvalues --  -10.30688 -10.30172 -10.29328 -10.29113 -10.28792
 Alpha  occ. eigenvalues --  -10.26689  -1.28214  -1.26064  -1.21932  -1.17777
 Alpha  occ. eigenvalues --   -1.17194  -1.14154  -1.13339  -1.12764  -1.04488
 Alpha  occ. eigenvalues --   -0.97925  -0.97360  -0.96034  -0.95320  -0.91449
 Alpha  occ. eigenvalues --   -0.89171  -0.88289  -0.86575  -0.86080  -0.82508
 Alpha  occ. eigenvalues --   -0.81628  -0.80942  -0.78021  -0.77487  -0.75233
 Alpha  occ. eigenvalues --   -0.74130  -0.73658  -0.71527  -0.70792  -0.70162
 Alpha  occ. eigenvalues --   -0.68701  -0.67778  -0.67477  -0.66310  -0.65921
 Alpha  occ. eigenvalues --   -0.64163  -0.63198  -0.61930  -0.61407  -0.61096
 Alpha  occ. eigenvalues --   -0.60030  -0.59173  -0.58932  -0.58519  -0.57771
 Alpha  occ. eigenvalues --   -0.57425  -0.57045  -0.56639  -0.56174  -0.55947
 Alpha  occ. eigenvalues --   -0.55404  -0.54551  -0.53790  -0.53497  -0.53312
 Alpha  occ. eigenvalues --   -0.53077  -0.52714  -0.52170  -0.51453  -0.51133
 Alpha  occ. eigenvalues --   -0.50956  -0.50691  -0.49811  -0.49458  -0.48534
 Alpha  occ. eigenvalues --   -0.48221  -0.47953  -0.47508  -0.47125  -0.46051
 Alpha  occ. eigenvalues --   -0.45911  -0.45584  -0.45163  -0.44394  -0.44142
 Alpha  occ. eigenvalues --   -0.43608  -0.42910  -0.42863  -0.42516  -0.41783
 Alpha  occ. eigenvalues --   -0.39606  -0.37434  -0.37124  -0.35706  -0.33395
 Alpha  occ. eigenvalues --   -0.32500  -0.30574
 Alpha virt. eigenvalues --   -0.18648  -0.15313  -0.12622  -0.11207  -0.10594
 Alpha virt. eigenvalues --   -0.08615  -0.07800  -0.06535  -0.05209  -0.03114
 Alpha virt. eigenvalues --   -0.02639  -0.01541  -0.01244  -0.00465   0.00252

 Mulliken charges:
               1
     1  N   -0.688555
     2  H    0.300238
     3  H    0.326477
     4  C   -0.083075
     5  H    0.180805
     6  C    0.586499
     7  C   -0.306679
     8  H    0.166561
     9  H    0.198919
    10  O   -0.516493
    11  C   -0.371431
    12  H    0.211162
    13  H    0.185349
    14  C    0.589648
    15  O   -0.494180
    16  O   -0.531967
    17  N   -0.649192
    18  H    0.395557
    19  C   -0.054790
    20  H    0.183962
    21  C    0.644151
    22  C   -0.379151
    23  H    0.233633
    24  H    0.181424
    25  O   -0.528134
    26  C    0.140471
    27  C   -0.219642
    28  H    0.148777
    29  C   -0.214754
    30  H    0.161436
    31  C   -0.165516
    32  H    0.173532
    33  C   -0.196642
    34  H    0.150443
    35  O   -0.630567
    36  H    0.423306
    37  C    0.365575
    38  N   -0.555612
    39  H    0.388757
    40  C   -0.074748
    41  H    0.212572
    42  C    0.642887
    43  C   -0.324485
    44  H    0.170845
    45  H    0.191347
    46  O   -0.386515
    47  C   -0.280154
    48  H    0.127883
    49  H    0.165881
    50  C   -0.262884
    51  H    0.147569
    52  H    0.167329
    53  C   -0.130074
    54  H    0.150801
    55  H    0.090217
    56  N   -0.711789
    57  H    0.300083
    58  H    0.309914
    59  O   -0.621124
    60  H    0.481750
    61  H    0.455822
    62  H    0.426567
 Sum of Mulliken charges =   1.00000

 Dipole moment (field-independent basis, Debye):
    X=              7.8626    Y=              1.0713    Z=             -1.1495  Tot=              8.0180
 Quadrupole moment (field-independent basis, Debye-Ang):
   XX=           -109.0998   YY=           -172.7498   ZZ=           -150.7401
   XY=             32.3405   XZ=            -15.1332   YZ=              3.8660

 Normal termination of Gaussian 16 at Thu Jun 23 14:34:26 2022.
