 Gaussian 16, Revision C.01,
 Gaussian 16:  ES64L-G16RevC.01  3-Jul-2019

 ----------------------------------------------------------------------
 # B3LYP/6-31G* empiricaldispersion=gd3bj guess=read geom=check nosymm
 integral(ultrafinegrid)
 ----------------------------------------------------------------------

 ------------------------------------------------------
 Candidate Structure: Conf:123 Charge calc in gas phase
 ------------------------------------------------------
 Structure from the checkpoint file:  "conf-123.chk"
 Charge =  1 Multiplicity = 1

                          Input orientation:
 ---------------------------------------------------------------------
 Center     Atomic      Atomic             Coordinates (Angstroms)
 Number     Number       Type             X           Y           Z
 ---------------------------------------------------------------------
      1          7           0        0.242827   -2.680355    3.826156
      2          1           0        0.801217   -3.224666    3.169760
      3          1           0        0.886799   -2.054842    4.305625
      4          6           0       -0.758065   -1.926997    3.094931
      5          1           0       -1.231383   -1.221153    3.790634
      6          6           0       -0.177789   -1.138936    1.919013
      7          6           0       -1.846800   -2.868582    2.535777
      8          1           0       -1.370846   -3.569834    1.837851
      9          1           0       -2.576950   -2.291122    1.958458
     10          8           0        0.820103   -1.502923    1.291774
     11          6           0       -2.560381   -3.644314    3.650764
     12          1           0       -3.045617   -2.936432    4.335402
     13          1           0       -1.846348   -4.234196    4.224648
     14          6           0       -3.621788   -4.576312    3.108981
     15          8           0       -3.678834   -5.768240    3.293152
     16          8           0       -4.540018   -3.903565    2.362187
     17          7           0       -0.816709    0.005041    1.537862
     18          1           0       -1.643299    0.332999    2.017747
     19          6           0       -0.411262    0.642897    0.296681
     20          1           0       -0.700743    1.698505    0.339450
     21          6           0        1.094565    0.690185    0.269683
     22          6           0       -1.050132   -0.037221   -0.939751
     23          1           0       -0.753342   -1.090431   -0.939029
     24          1           0       -2.132147   -0.014118   -0.768138
     25          8           0        1.725593    1.172236    1.327986
     26          6           0       -0.703700    0.613309   -2.260603
     27          6           0        0.023417   -0.085911   -3.238000
     28          1           0        0.265862   -1.134872   -3.076243
     29          6           0       -1.059341    1.940362   -2.532979
     30          1           0       -1.654705    2.499664   -1.815677
     31          6           0        0.421933    0.523618   -4.425029
     32          1           0        0.974397   -0.022766   -5.181806
     33          6           0       -0.673508    2.564419   -3.718793
     34          1           0       -0.981187    3.588212   -3.920881
     35          8           0        0.498032    2.401458   -5.838251
     36          1           0        0.138758    3.296770   -5.944513
     37          6           0        0.079035    1.859102   -4.670105
     38          7           0        1.888087    0.490202   -0.745583
     39          1           0        1.548735    0.238737   -1.671242
     40          6           0        3.276957    0.827567   -0.433668
     41          1           0        3.876872   -0.091168   -0.401133
     42          6           0        3.120552    1.340002    0.990502
     43          6           0        3.895920    1.837585   -1.414594
     44          1           0        3.749763    1.434187   -2.425957
     45          1           0        3.326583    2.769879   -1.350911
     46          8           0        3.882720    1.798776    1.768031
     47          6           0        5.385115    2.071123   -1.148395
     48          1           0        5.918966    1.111318   -1.197464
     49          1           0        5.541322    2.467078   -0.141005
     50          6           0        6.003061    3.045239   -2.155639
     51          1           0        5.947393    2.631997   -3.171747
     52          1           0        5.420872    3.978944   -2.166646
     53          6           0        7.463123    3.372421   -1.822894
     54          1           0        8.038278    2.439162   -1.783248
     55          1           0        7.891052    3.971327   -2.644244
     56          7           0        7.555194    4.009327   -0.505288
     57          1           0        7.257554    4.981822   -0.570418
     58          1           0        8.523452    4.031457   -0.192948
     59          8           0        1.008636    3.362512   -0.578545
     60          1           0        0.745843    3.443502   -1.509672
     61          1           0        1.051275    4.271758   -0.243907
     62          1           0       -5.188280   -4.570825    2.066579
 ---------------------------------------------------------------------

 SCF Done:  E(RB3LYP) =  -1526.29043382     A.U. after    1 cycles

 Alpha  occ. eigenvalues --  -19.36707 -19.30213 -19.29391 -19.28293 -19.26336
 Alpha  occ. eigenvalues --  -19.25396 -19.20525 -14.54626 -14.50118 -14.41226
 Alpha  occ. eigenvalues --  -14.38588 -10.48728 -10.47370 -10.41279 -10.39657
 Alpha  occ. eigenvalues --  -10.39495 -10.38770 -10.37464 -10.33442 -10.33055
 Alpha  occ. eigenvalues --  -10.32310 -10.32125 -10.31862 -10.31756 -10.31583
 Alpha  occ. eigenvalues --  -10.30967 -10.29128 -10.28425 -10.27747 -10.27481
 Alpha  occ. eigenvalues --  -10.26902  -1.29339  -1.20700  -1.17762  -1.17327
 Alpha  occ. eigenvalues --   -1.17052  -1.13926  -1.11742  -1.08097  -1.06677
 Alpha  occ. eigenvalues --   -0.99358  -0.98435  -0.95710  -0.95246  -0.91853
 Alpha  occ. eigenvalues --   -0.88591  -0.87943  -0.87600  -0.85940  -0.82216
 Alpha  occ. eigenvalues --   -0.81201  -0.80104  -0.77798  -0.76547  -0.74933
 Alpha  occ. eigenvalues --   -0.73819  -0.71827  -0.71718  -0.71331  -0.68120
 Alpha  occ. eigenvalues --   -0.67284  -0.67026  -0.66738  -0.66150  -0.65943
 Alpha  occ. eigenvalues --   -0.64961  -0.62325  -0.61618  -0.60249  -0.60138
 Alpha  occ. eigenvalues --   -0.59245  -0.58760  -0.58242  -0.57464  -0.57201
 Alpha  occ. eigenvalues --   -0.56456  -0.56297  -0.55504  -0.55389  -0.54950
 Alpha  occ. eigenvalues --   -0.54650  -0.54514  -0.54051  -0.53745  -0.52960
 Alpha  occ. eigenvalues --   -0.52716  -0.52436  -0.51974  -0.51592  -0.51374
 Alpha  occ. eigenvalues --   -0.51138  -0.50139  -0.49796  -0.49260  -0.48368
 Alpha  occ. eigenvalues --   -0.47825  -0.46699  -0.46060  -0.45957  -0.45667
 Alpha  occ. eigenvalues --   -0.45260  -0.45077  -0.44530  -0.43793  -0.43687
 Alpha  occ. eigenvalues --   -0.43348  -0.42678  -0.41806  -0.41700  -0.39738
 Alpha  occ. eigenvalues --   -0.38999  -0.38477  -0.38263  -0.34250  -0.34182
 Alpha  occ. eigenvalues --   -0.33523  -0.30881
 Alpha virt. eigenvalues --   -0.18097  -0.13684  -0.13388  -0.12368  -0.10676
 Alpha virt. eigenvalues --   -0.06649  -0.05690  -0.04690  -0.03781  -0.03107
 Alpha virt. eigenvalues --   -0.02602  -0.02355  -0.01048  -0.00669   0.00094

 Mulliken charges:
               1
     1  N   -0.683192
     2  H    0.321422
     3  H    0.317372
     4  C   -0.091283
     5  H    0.154826
     6  C    0.629520
     7  C   -0.278516
     8  H    0.166062
     9  H    0.156301
    10  O   -0.535805
    11  C   -0.327734
    12  H    0.171069
    13  H    0.212736
    14  C    0.561173
    15  O   -0.438536
    16  O   -0.571750
    17  N   -0.600114
    18  H    0.356197
    19  C   -0.056194
    20  H    0.223861
    21  C    0.774155
    22  C   -0.371032
    23  H    0.193149
    24  H    0.189486
    25  O   -0.451555
    26  C    0.147014
    27  C   -0.265963
    28  H    0.166643
    29  C   -0.196875
    30  H    0.150766
    31  C   -0.145266
    32  H    0.179398
    33  C   -0.212393
    34  H    0.153890
    35  O   -0.616608
    36  H    0.424274
    37  C    0.364248
    38  N   -0.628949
    39  H    0.389226
    40  C   -0.042478
    41  H    0.241059
    42  C    0.622713
    43  C   -0.284696
    44  H    0.159661
    45  H    0.172362
    46  O   -0.357466
    47  C   -0.275439
    48  H    0.139658
    49  H    0.207253
    50  C   -0.257218
    51  H    0.137780
    52  H    0.128100
    53  C   -0.145954
    54  H    0.148227
    55  H    0.134586
    56  N   -0.717917
    57  H    0.299277
    58  H    0.313211
    59  O   -0.796155
    60  H    0.406524
    61  H    0.419115
    62  H    0.416773
 Sum of Mulliken charges =   1.00000

 Dipole moment (field-independent basis, Debye):
    X=              3.9650    Y=             10.0271    Z=             -6.3538  Tot=             12.5153
 Quadrupole moment (field-independent basis, Debye-Ang):
   XX=           -124.6719   YY=           -150.8045   ZZ=           -154.1698
   XY=             14.1436   XZ=            -16.2938   YZ=            -15.4357

 Normal termination of Gaussian 16 at Thu Jun 23 14:08:00 2022.
