 Gaussian 16, Revision C.01,
 Gaussian 16:  ES64L-G16RevC.01  3-Jul-2019

 ----------------------------------------------------------------------
 # B3LYP/6-31G* empiricaldispersion=gd3bj guess=read geom=check nosymm
 integral(ultrafinegrid)
 ----------------------------------------------------------------------

 ------------------------------------------------------
 Candidate Structure: Conf:110 Charge calc in gas phase
 ------------------------------------------------------
 Structure from the checkpoint file:  "conf-110.chk"
 Charge =  1 Multiplicity = 1

                          Input orientation:
 ---------------------------------------------------------------------
 Center     Atomic      Atomic             Coordinates (Angstroms)
 Number     Number       Type             X           Y           Z
 ---------------------------------------------------------------------
      1          7           0       -0.094291   -2.166923    4.192075
      2          1           0        0.634926   -2.687903    3.706040
      3          1           0        0.378371   -1.430177    4.711981
      4          6           0       -0.997325   -1.588974    3.209469
      5          1           0       -1.633392   -0.858544    3.719949
      6          6           0       -0.254114   -0.867057    2.077054
      7          6           0       -1.888730   -2.717310    2.645983
      8          1           0       -2.360642   -3.200836    3.505746
      9          1           0       -1.246205   -3.467131    2.169790
     10          8           0        0.864293   -1.224459    1.684451
     11          6           0       -2.963397   -2.291972    1.621045
     12          1           0       -3.557092   -3.166361    1.345385
     13          1           0       -2.495196   -1.898132    0.714415
     14          6           0       -3.876828   -1.220019    2.167202
     15          8           0       -3.615731   -0.023973    2.193915
     16          8           0       -5.012019   -1.711931    2.671618
     17          7           0       -0.863805    0.211675    1.525612
     18          1           0       -1.846277    0.396930    1.750836
     19          6           0       -0.290070    0.809035    0.333702
     20          1           0       -0.601208    1.860826    0.310440
     21          6           0        1.219826    0.867594    0.517253
     22          6           0       -0.790781    0.106029   -0.952838
     23          1           0       -0.484429   -0.945565   -0.913938
     24          1           0       -1.884606    0.114636   -0.881104
     25          8           0        1.600726    1.483063    1.601726
     26          6           0       -0.337889    0.751902   -2.244411
     27          6           0        0.441518    0.044102   -3.173887
     28          1           0        0.649108   -1.012301   -3.008200
     29          6           0       -0.645165    2.089011   -2.528097
     30          1           0       -1.275180    2.658860   -1.849315
     31          6           0        0.938210    0.656620   -4.321977
     32          1           0        1.538916    0.107396   -5.038968
     33          6           0       -0.168120    2.710969   -3.678050
     34          1           0       -0.423155    3.747681   -3.881584
     35          8           0        1.183121    2.558646   -5.686447
     36          1           0        0.910632    3.487470   -5.764035
     37          6           0        0.645670    2.002245   -4.572123
     38          7           0        2.043466    0.506647   -0.438750
     39          1           0        1.597704    0.140373   -1.275881
     40          6           0        3.504765    0.697583   -0.569265
     41          1           0        3.765758    0.157569   -1.480309
     42          6           0        4.291168   -0.010494    0.533308
     43          6           0        3.885474    2.180008   -0.743932
     44          1           0        3.659407    2.742644    0.168508
     45          1           0        4.973280    2.220099   -0.878078
     46          8           0        5.042425   -0.928138    0.368580
     47          6           0        3.173079    2.798551   -1.950890
     48          1           0        2.092652    2.822295   -1.763503
     49          1           0        3.312064    2.149435   -2.826262
     50          6           0        3.654075    4.210934   -2.295072
     51          1           0        3.569308    4.864135   -1.414781
     52          1           0        4.718479    4.185971   -2.566467
     53          6           0        2.843000    4.812183   -3.456812
     54          1           0        2.879938    4.122048   -4.309706
     55          1           0        1.789080    4.870118   -3.152263
     56          7           0        3.241619    6.131053   -3.931888
     57          1           0        4.201983    6.111637   -4.270554
     58          1           0        3.217485    6.807588   -3.170746
     59          8           0        4.078147    0.570231    1.758130
     60          1           0        2.553294    1.311465    1.816679
     61          1           0        4.576404    0.067751    2.433135
     62          1           0       -5.526131   -0.964690    3.036174
 ---------------------------------------------------------------------

 SCF Done:  E(RB3LYP) =  -1526.32032716     A.U. after    3 cycles

 Alpha  occ. eigenvalues --  -19.35367 -19.34954 -19.30615 -19.28642 -19.28401
 Alpha  occ. eigenvalues --  -19.25573 -19.24446 -14.54288 -14.47998 -14.41164
 Alpha  occ. eigenvalues --  -14.39219 -10.48641 -10.46787 -10.43522 -10.40274
 Alpha  occ. eigenvalues --  -10.39424 -10.38721 -10.36272 -10.32990 -10.32693
 Alpha  occ. eigenvalues --  -10.32301 -10.31472 -10.31041 -10.30991 -10.30773
 Alpha  occ. eigenvalues --  -10.30425 -10.29969 -10.29904 -10.29716 -10.29507
 Alpha  occ. eigenvalues --  -10.27874  -1.26367  -1.24872  -1.21852  -1.16698
 Alpha  occ. eigenvalues --   -1.16661  -1.16136  -1.12654  -1.11747  -1.05310
 Alpha  occ. eigenvalues --   -0.99124  -0.97476  -0.96371  -0.95181  -0.91517
 Alpha  occ. eigenvalues --   -0.89980  -0.88462  -0.86653  -0.86339  -0.81963
 Alpha  occ. eigenvalues --   -0.81224  -0.80879  -0.78676  -0.76457  -0.74558
 Alpha  occ. eigenvalues --   -0.73946  -0.73616  -0.72164  -0.70841  -0.70499
 Alpha  occ. eigenvalues --   -0.69880  -0.68929  -0.67690  -0.65757  -0.65247
 Alpha  occ. eigenvalues --   -0.63278  -0.62227  -0.61584  -0.60863  -0.60574
 Alpha  occ. eigenvalues --   -0.60101  -0.59430  -0.58935  -0.58704  -0.57981
 Alpha  occ. eigenvalues --   -0.57732  -0.57138  -0.56712  -0.56371  -0.55606
 Alpha  occ. eigenvalues --   -0.55436  -0.55109  -0.54851  -0.54471  -0.53706
 Alpha  occ. eigenvalues --   -0.53159  -0.52882  -0.52138  -0.51954  -0.51727
 Alpha  occ. eigenvalues --   -0.50854  -0.50319  -0.49961  -0.49356  -0.49199
 Alpha  occ. eigenvalues --   -0.48634  -0.47626  -0.47180  -0.46854  -0.46807
 Alpha  occ. eigenvalues --   -0.46282  -0.46111  -0.45335  -0.45067  -0.44727
 Alpha  occ. eigenvalues --   -0.44407  -0.44072  -0.42775  -0.42596  -0.41344
 Alpha  occ. eigenvalues --   -0.39514  -0.38330  -0.37749  -0.36984  -0.33790
 Alpha  occ. eigenvalues --   -0.33180  -0.31324
 Alpha virt. eigenvalues --   -0.16580  -0.14020  -0.12694  -0.11260  -0.10645
 Alpha virt. eigenvalues --   -0.09761  -0.07071  -0.04298  -0.03019  -0.02884
 Alpha virt. eigenvalues --   -0.02184  -0.01883  -0.00832  -0.00664  -0.00407

 Mulliken charges:
               1
     1  N   -0.685863
     2  H    0.317020
     3  H    0.310205
     4  C   -0.097609
     5  H    0.171653
     6  C    0.606758
     7  C   -0.270550
     8  H    0.199328
     9  H    0.170770
    10  O   -0.559088
    11  C   -0.367022
    12  H    0.201661
    13  H    0.168867
    14  C    0.599186
    15  O   -0.492905
    16  O   -0.529430
    17  N   -0.614820
    18  H    0.398369
    19  C   -0.021017
    20  H    0.207080
    21  C    0.644877
    22  C   -0.395594
    23  H    0.182991
    24  H    0.194749
    25  O   -0.562251
    26  C    0.139369
    27  C   -0.248745
    28  H    0.157976
    29  C   -0.192300
    30  H    0.148655
    31  C   -0.151979
    32  H    0.174206
    33  C   -0.184001
    34  H    0.159159
    35  O   -0.625251
    36  H    0.429990
    37  C    0.367799
    38  N   -0.575849
    39  H    0.393605
    40  C   -0.102308
    41  H    0.218377
    42  C    0.627120
    43  C   -0.277647
    44  H    0.162573
    45  H    0.185875
    46  O   -0.392329
    47  C   -0.280825
    48  H    0.143767
    49  H    0.152435
    50  C   -0.268440
    51  H    0.136266
    52  H    0.144016
    53  C   -0.157750
    54  H    0.148863
    55  H    0.132306
    56  N   -0.702836
    57  H    0.305366
    58  H    0.302138
    59  O   -0.611109
    60  H    0.481121
    61  H    0.453532
    62  H    0.429489
 Sum of Mulliken charges =   1.00000

 Dipole moment (field-independent basis, Debye):
    X=              3.7845    Y=              5.1800    Z=              0.4045  Tot=              6.4279
 Quadrupole moment (field-independent basis, Debye-Ang):
   XX=           -125.8918   YY=           -156.7500   ZZ=           -153.7977
   XY=             24.7024   XZ=             -6.7708   YZ=            -10.7729

 Normal termination of Gaussian 16 at Thu Jun 23 14:08:19 2022.
