 Gaussian 16, Revision C.01,
 Gaussian 16:  ES64L-G16RevC.01  3-Jul-2019

 ----------------------------------------------------------------------
 # B3LYP/6-31G* empiricaldispersion=gd3bj guess=read geom=check nosymm
 integral(ultrafinegrid)
 ----------------------------------------------------------------------

 ------------------------------------------------------
 Candidate Structure: Conf:553 Charge calc in gas phase
 ------------------------------------------------------
 Structure from the checkpoint file:  "conf-553.chk"
 Charge =  1 Multiplicity = 1

                          Input orientation:
 ---------------------------------------------------------------------
 Center     Atomic      Atomic             Coordinates (Angstroms)
 Number     Number       Type             X           Y           Z
 ---------------------------------------------------------------------
      1          7           0        1.477051   -2.602474   -0.559445
      2          1           0        1.807072   -3.458522   -0.120186
      3          1           0        1.195863   -2.833883   -1.510988
      4          6           0        0.325942   -2.068269    0.170289
      5          1           0        0.638713   -1.926613    1.212912
      6          6           0        0.029557   -0.712231   -0.454270
      7          6           0       -0.975309   -2.894524    0.140276
      8          1           0       -1.313522   -2.979252   -0.898645
      9          1           0       -1.760652   -2.351635    0.673838
     10          8           0       -0.101048   -0.608555   -1.687201
     11          6           0       -0.836929   -4.285129    0.750275
     12          1           0       -0.472611   -4.239176    1.785440
     13          1           0       -0.121235   -4.909844    0.203330
     14          6           0       -2.175410   -4.999397    0.762189
     15          8           0       -3.229613   -4.510455    0.418662
     16          8           0       -2.052850   -6.263169    1.212690
     17          7           0       -0.055671    0.356446    0.372795
     18          1           0        0.061242    0.184671    1.362185
     19          6           0       -0.533551    1.694525    0.010840
     20          1           0       -0.627051    2.248186    0.946137
     21          6           0        0.500117    2.465167   -0.795229
     22          6           0       -1.925148    1.710972   -0.697649
     23          1           0       -2.199697    2.764388   -0.827159
     24          1           0       -1.846577    1.259867   -1.689677
     25          8           0        0.955059    3.540081   -0.553915
     26          6           0       -2.946389    0.971472    0.128316
     27          6           0       -3.304495   -0.345007   -0.191479
     28          1           0       -2.889130   -0.812086   -1.079984
     29          6           0       -3.505818    1.556481    1.269675
     30          1           0       -3.257341    2.582226    1.534188
     31          6           0       -4.183939   -1.070236    0.604470
     32          1           0       -4.437673   -2.098147    0.368283
     33          6           0       -4.395711    0.848843    2.072772
     34          1           0       -4.831842    1.321489    2.949679
     35          8           0       -5.583950   -1.221360    2.491505
     36          1           0       -5.930965   -0.693491    3.228055
     37          6           0       -4.733854   -0.471323    1.745360
     38          7           0        0.927918    1.784511   -2.094846
     39          1           0        0.487442    0.813901   -2.130237
     40          6           0        2.439370    1.693359   -2.252636
     41          1           0        2.810364    2.707364   -2.063209
     42          6           0        2.731447    1.353029   -3.714759
     43          6           0        3.021612    0.703301   -1.245232
     44          1           0        2.569738    0.917450   -0.267904
     45          1           0        2.728125   -0.318151   -1.509318
     46          8           0        3.651524    0.683423   -4.098193
     47          6           0        4.543804    0.801160   -1.094995
     48          1           0        4.819183    1.836082   -0.853196
     49          1           0        5.024163    0.541121   -2.043391
     50          6           0        5.041287   -0.122378    0.021478
     51          1           0        4.566822    0.169291    0.967791
     52          1           0        4.736568   -1.155139   -0.195136
     53          6           0        6.559949   -0.066210    0.210180
     54          1           0        6.830031   -0.732238    1.036607
     55          1           0        7.053894   -0.467657   -0.691892
     56          7           0        6.991536    1.292321    0.564372
     57          1           0        7.135576    1.845408   -0.278026
     58          1           0        7.897086    1.258625    1.027042
     59          8           0        1.818910    1.941099   -4.528929
     60          1           0        0.559635    2.334366   -2.882481
     61          1           0        2.054083    1.730420   -5.453806
     62          1           0       -2.945902   -6.657925    1.203358
 ---------------------------------------------------------------------

 SCF Done:  E(RB3LYP) =  -1526.29917911     A.U. after    1 cycles

 Alpha  occ. eigenvalues --  -19.33918 -19.33328 -19.27991 -19.27958 -19.27643
 Alpha  occ. eigenvalues --  -19.26636 -19.22660 -14.58115 -14.52335 -14.43465
 Alpha  occ. eigenvalues --  -14.38319 -10.48473 -10.46369 -10.43974 -10.40923
 Alpha  occ. eigenvalues --  -10.40025 -10.39764 -10.35031 -10.34432 -10.33000
 Alpha  occ. eigenvalues --  -10.31247 -10.30036 -10.29640 -10.29420 -10.29312
 Alpha  occ. eigenvalues --  -10.28850 -10.28562 -10.28090 -10.27913 -10.27568
 Alpha  occ. eigenvalues --  -10.26216  -1.25026  -1.24489  -1.19490  -1.19033
 Alpha  occ. eigenvalues --   -1.15943  -1.14927  -1.12675  -1.10120  -1.08490
 Alpha  occ. eigenvalues --   -1.00995  -0.96074  -0.95241  -0.93925  -0.92154
 Alpha  occ. eigenvalues --   -0.89500  -0.87002  -0.85797  -0.84515  -0.82970
 Alpha  occ. eigenvalues --   -0.81188  -0.78833  -0.77188  -0.75814  -0.74171
 Alpha  occ. eigenvalues --   -0.73936  -0.72142  -0.71618  -0.70042  -0.69099
 Alpha  occ. eigenvalues --   -0.68350  -0.67765  -0.67285  -0.65514  -0.64485
 Alpha  occ. eigenvalues --   -0.63923  -0.63008  -0.62282  -0.60980  -0.60531
 Alpha  occ. eigenvalues --   -0.59754  -0.59179  -0.58509  -0.57948  -0.57519
 Alpha  occ. eigenvalues --   -0.57193  -0.56833  -0.56534  -0.56374  -0.56187
 Alpha  occ. eigenvalues --   -0.55841  -0.54100  -0.53837  -0.53664  -0.53466
 Alpha  occ. eigenvalues --   -0.53011  -0.52793  -0.51814  -0.51345  -0.50691
 Alpha  occ. eigenvalues --   -0.50613  -0.49676  -0.49042  -0.48865  -0.47798
 Alpha  occ. eigenvalues --   -0.47541  -0.47175  -0.46844  -0.46682  -0.46460
 Alpha  occ. eigenvalues --   -0.45709  -0.45211  -0.44938  -0.43174  -0.42889
 Alpha  occ. eigenvalues --   -0.42629  -0.42558  -0.41527  -0.41493  -0.40938
 Alpha  occ. eigenvalues --   -0.40472  -0.40279  -0.36432  -0.35603  -0.34798
 Alpha  occ. eigenvalues --   -0.31433  -0.30704
 Alpha virt. eigenvalues --   -0.19949  -0.13604  -0.13162  -0.10082  -0.09088
 Alpha virt. eigenvalues --   -0.07637  -0.07545  -0.06753  -0.03498  -0.03347
 Alpha virt. eigenvalues --   -0.02430  -0.01504  -0.01214  -0.00515   0.00126

 Mulliken charges:
               1
     1  N   -0.714580
     2  H    0.328183
     3  H    0.325716
     4  C   -0.084693
     5  H    0.151097
     6  C    0.687948
     7  C   -0.281777
     8  H    0.174269
     9  H    0.181193
    10  O   -0.582743
    11  C   -0.369822
    12  H    0.186330
    13  H    0.179695
    14  C    0.593328
    15  O   -0.454152
    16  O   -0.558562
    17  N   -0.605387
    18  H    0.370197
    19  C   -0.068425
    20  H    0.218526
    21  C    0.589444
    22  C   -0.397743
    23  H    0.187970
    24  H    0.179147
    25  O   -0.344955
    26  C    0.170600
    27  C   -0.216129
    28  H    0.152066
    29  C   -0.198262
    30  H    0.138971
    31  C   -0.167735
    32  H    0.195291
    33  C   -0.188970
    34  H    0.145096
    35  O   -0.621402
    36  H    0.419224
    37  C    0.354304
    38  N   -0.733014
    39  H    0.450225
    40  C   -0.096709
    41  H    0.241534
    42  C    0.617731
    43  C   -0.302714
    44  H    0.147855
    45  H    0.201976
    46  O   -0.402010
    47  C   -0.288440
    48  H    0.152053
    49  H    0.179664
    50  C   -0.237957
    51  H    0.135331
    52  H    0.140844
    53  C   -0.154485
    54  H    0.150724
    55  H    0.129866
    56  N   -0.721275
    57  H    0.299561
    58  H    0.312380
    59  O   -0.591409
    60  H    0.421868
    61  H    0.448680
    62  H    0.424463
 Sum of Mulliken charges =   1.00000

 Dipole moment (field-independent basis, Debye):
    X=              1.8390    Y=              1.7602    Z=             -2.6217  Tot=              3.6542
 Quadrupole moment (field-independent basis, Debye-Ang):
   XX=           -138.4336   YY=           -143.9519   ZZ=           -138.8127
   XY=              1.7607   XZ=            -24.9445   YZ=            -18.6331

 Normal termination of Gaussian 16 at Thu Jun 23 14:08:01 2022.
