 Gaussian 16, Revision C.01,
 Gaussian 16:  ES64L-G16RevC.01  3-Jul-2019

 ----------------------------------------------------------------------
 # B3LYP/6-31G* empiricaldispersion=gd3bj guess=read geom=check nosymm
 integral(ultrafinegrid)
 ----------------------------------------------------------------------

 ------------------------------------------------------
 Candidate Structure: Conf:817 Charge calc in gas phase
 ------------------------------------------------------
 Structure from the checkpoint file:  "conf-817.chk"
 Charge =  1 Multiplicity = 1

                          Input orientation:
 ---------------------------------------------------------------------
 Center     Atomic      Atomic             Coordinates (Angstroms)
 Number     Number       Type             X           Y           Z
 ---------------------------------------------------------------------
      1          7           0        0.390614   -2.414768    4.037709
      2          1           0        0.994420   -2.996298    3.457483
      3          1           0        0.995676   -1.711626    4.457822
      4          6           0       -0.603690   -1.777706    3.190343
      5          1           0       -1.098714   -0.996752    3.776531
      6          6           0        0.016653   -1.126291    1.941922
      7          6           0       -1.652179   -2.839317    2.789477
      8          1           0       -2.012458   -3.287232    3.719725
      9          1           0       -1.149171   -3.633595    2.225613
     10          8           0        1.041372   -1.585168    1.427845
     11          6           0       -2.845961   -2.340638    1.944991
     12          1           0       -3.534180   -3.171452    1.775214
     13          1           0       -2.502194   -1.977767    0.971806
     14          6           0       -3.583944   -1.209802    2.621043
     15          8           0       -3.223497   -0.038744    2.618877
     16          8           0       -4.674676   -1.615471    3.276334
     17          7           0       -0.635441   -0.032131    1.460828
     18          1           0       -1.542957    0.195815    1.880714
     19          6           0       -0.272331    0.633190    0.231005
     20          1           0       -1.008633    1.426349    0.063110
     21          6           0        1.060563    1.329117    0.354457
     22          6           0       -0.334125   -0.323504   -1.033294
     23          1           0        0.219872   -1.228456   -0.785154
     24          1           0       -1.393840   -0.584416   -1.124322
     25          8           0        1.793466    1.235660    1.445807
     26          6           0        0.207055    0.319796   -2.279831
     27          6           0       -0.452002    1.418689   -2.858293
     28          1           0       -1.463283    1.668736   -2.543361
     29          6           0        1.498617    0.012297   -2.733418
     30          1           0        2.038727   -0.813445   -2.281914
     31          6           0        0.187395    2.237584   -3.784224
     32          1           0       -0.310409    3.102059   -4.210842
     33          6           0        2.146370    0.814817   -3.670976
     34          1           0        3.148924    0.565194   -4.005348
     35          8           0        2.101440    2.822528   -5.022709
     36          1           0        3.104111    2.728669   -5.022166
     37          6           0        1.513254    1.964457   -4.179954
     38          7           0        1.633505    2.033842   -0.582477
     39          1           0        1.229562    2.154007   -1.510465
     40          6           0        3.038444    2.294608   -0.281503
     41          1           0        3.610636    1.559144   -0.857744
     42          6           0        3.099941    1.834523    1.161945
     43          6           0        3.527703    3.722408   -0.570234
     44          1           0        2.889177    4.142358   -1.355831
     45          1           0        3.396347    4.350921    0.315697
     46          8           0        3.929577    1.909299    1.997087
     47          6           0        4.997359    3.717967   -1.025176
     48          1           0        5.594639    3.175643   -0.282969
     49          1           0        5.369069    4.748908   -1.018048
     50          6           0        5.207702    3.101879   -2.419938
     51          1           0        6.263616    2.826826   -2.533971
     52          1           0        4.639491    2.166776   -2.521660
     53          6           0        4.811706    4.033076   -3.567943
     54          1           0        3.813273    4.454740   -3.402295
     55          1           0        5.515649    4.876216   -3.607952
     56          7           0        4.751854    3.288707   -4.844258
     57          1           0        5.585201    2.711575   -4.956707
     58          1           0        4.758476    3.944038   -5.626222
     59          8           0        3.206633   -0.674279   -0.046365
     60          1           0        3.998361   -1.213976    0.094548
     61          1           0        2.505776   -1.104148    0.489496
     62          1           0       -5.068667   -0.835262    3.714086
 ---------------------------------------------------------------------

 SCF Done:  E(RB3LYP) =  -1526.32471460     A.U. after    2 cycles

 Alpha  occ. eigenvalues --  -19.37148 -19.30653 -19.30470 -19.25444 -19.25077
 Alpha  occ. eigenvalues --  -19.24682 -19.24285 -14.55107 -14.48113 -14.44622
 Alpha  occ. eigenvalues --  -14.40573 -10.48405 -10.47780 -10.43359 -10.40414
 Alpha  occ. eigenvalues --  -10.39519 -10.39292 -10.35430 -10.32723 -10.32489
 Alpha  occ. eigenvalues --  -10.32269 -10.32081 -10.30483 -10.30483 -10.30320
 Alpha  occ. eigenvalues --  -10.30122 -10.29982 -10.29705 -10.29559 -10.29269
 Alpha  occ. eigenvalues --  -10.29214  -1.29484  -1.21714  -1.21165  -1.15855
 Alpha  occ. eigenvalues --   -1.14014  -1.12511  -1.12147  -1.10375  -1.05653
 Alpha  occ. eigenvalues --   -1.00503  -0.98616  -0.96918  -0.95411  -0.91802
 Alpha  occ. eigenvalues --   -0.89675  -0.88805  -0.85670  -0.85515  -0.82918
 Alpha  occ. eigenvalues --   -0.80984  -0.79932  -0.78209  -0.77337  -0.74916
 Alpha  occ. eigenvalues --   -0.74349  -0.72463  -0.71257  -0.70156  -0.69639
 Alpha  occ. eigenvalues --   -0.69574  -0.67140  -0.66113  -0.64993  -0.64339
 Alpha  occ. eigenvalues --   -0.63229  -0.62401  -0.61488  -0.60540  -0.60233
 Alpha  occ. eigenvalues --   -0.60100  -0.59381  -0.59142  -0.58643  -0.57944
 Alpha  occ. eigenvalues --   -0.57739  -0.57675  -0.56667  -0.56206  -0.55484
 Alpha  occ. eigenvalues --   -0.55283  -0.54859  -0.54836  -0.54141  -0.53643
 Alpha  occ. eigenvalues --   -0.52778  -0.52594  -0.51863  -0.51779  -0.50969
 Alpha  occ. eigenvalues --   -0.50714  -0.50106  -0.49856  -0.49525  -0.49205
 Alpha  occ. eigenvalues --   -0.48204  -0.47779  -0.46669  -0.46569  -0.46200
 Alpha  occ. eigenvalues --   -0.45836  -0.45599  -0.44917  -0.44455  -0.44209
 Alpha  occ. eigenvalues --   -0.43765  -0.43082  -0.42609  -0.41979  -0.40422
 Alpha  occ. eigenvalues --   -0.39396  -0.38288  -0.37825  -0.37066  -0.36343
 Alpha  occ. eigenvalues --   -0.33321  -0.32006
 Alpha virt. eigenvalues --   -0.19160  -0.13683  -0.11589  -0.10645  -0.10496
 Alpha virt. eigenvalues --   -0.09592  -0.04755  -0.03934  -0.03244  -0.02871
 Alpha virt. eigenvalues --   -0.02024  -0.01690  -0.01445  -0.00460  -0.00237

 Mulliken charges:
               1
     1  N   -0.686098
     2  H    0.316596
     3  H    0.313719
     4  C   -0.097551
     5  H    0.170254
     6  C    0.612789
     7  C   -0.271267
     8  H    0.198615
     9  H    0.171236
    10  O   -0.561598
    11  C   -0.365691
    12  H    0.201559
    13  H    0.169497
    14  C    0.599908
    15  O   -0.493074
    16  O   -0.528870
    17  N   -0.624976
    18  H    0.403809
    19  C   -0.098506
    20  H    0.214513
    21  C    0.720516
    22  C   -0.353476
    23  H    0.205245
    24  H    0.183202
    25  O   -0.451160
    26  C    0.080022
    27  C   -0.213994
    28  H    0.145625
    29  C   -0.170847
    30  H    0.168267
    31  C   -0.176717
    32  H    0.168465
    33  C   -0.218737
    34  H    0.153236
    35  O   -0.669203
    36  H    0.464090
    37  C    0.355447
    38  N   -0.599658
    39  H    0.400440
    40  C   -0.038664
    41  H    0.265368
    42  C    0.636938
    43  C   -0.295324
    44  H    0.176035
    45  H    0.188706
    46  O   -0.364789
    47  C   -0.284753
    48  H    0.174406
    49  H    0.172362
    50  C   -0.298532
    51  H    0.165509
    52  H    0.146487
    53  C   -0.134726
    54  H    0.159111
    55  H    0.162301
    56  N   -0.780009
    57  H    0.330794
    58  H    0.344266
    59  O   -0.847052
    60  H    0.409581
    61  H    0.447151
    62  H    0.429208
 Sum of Mulliken charges =   1.00000

 Dipole moment (field-independent basis, Debye):
    X=              6.9794    Y=              6.7194    Z=             -3.0897  Tot=             10.1690
 Quadrupole moment (field-independent basis, Debye-Ang):
   XX=           -101.8802   YY=           -142.7821   ZZ=           -154.5353
   XY=             35.0399   XZ=            -46.7515   YZ=            -23.3158

 Normal termination of Gaussian 16 at Thu Jun 23 14:34:20 2022.
