 Gaussian 16, Revision C.01,
 Gaussian 16:  ES64L-G16RevC.01  3-Jul-2019

 ----------------------------------------------------------------------
 # B3LYP/6-31G* empiricaldispersion=gd3bj guess=read geom=check nosymm
 integral(ultrafinegrid)
 ----------------------------------------------------------------------

 ------------------------------------------------------
 Candidate Structure: Conf:306 Charge calc in gas phase
 ------------------------------------------------------
 Structure from the checkpoint file:  "conf-306.chk"
 Charge =  1 Multiplicity = 1

                          Input orientation:
 ---------------------------------------------------------------------
 Center     Atomic      Atomic             Coordinates (Angstroms)
 Number     Number       Type             X           Y           Z
 ---------------------------------------------------------------------
      1          7           0        0.075226   -2.548960    3.985623
      2          1           0        0.607309   -3.166497    3.374591
      3          1           0        0.745865   -1.977884    4.494691
      4          6           0       -0.818225   -1.727144    3.192820
      5          1           0       -1.265715   -0.973436    3.854396
      6          6           0       -0.115891   -1.006682    2.038810
      7          6           0       -1.945268   -2.586120    2.580817
      8          1           0       -1.500028   -3.327044    1.906208
      9          1           0       -2.596329   -1.963853    1.956765
     10          8           0        0.917940   -1.428917    1.508730
     11          6           0       -2.778123   -3.296115    3.644014
     12          1           0       -3.250012   -2.579063    4.328298
     13          1           0       -2.147637   -3.933303    4.271360
     14          6           0       -3.867347   -4.133823    3.011140
     15          8           0       -4.082425   -4.213877    1.820842
     16          8           0       -4.588555   -4.790884    3.942640
     17          7           0       -0.690609    0.127276    1.555985
     18          1           0       -1.557860    0.470740    1.945987
     19          6           0       -0.199567    0.718426    0.322124
     20          1           0       -0.548477    1.758320    0.304563
     21          6           0        1.304806    0.842847    0.396558
     22          6           0       -0.715888   -0.009374   -0.944677
     23          1           0       -0.367042   -1.046135   -0.916945
     24          1           0       -1.807251   -0.040500   -0.850662
     25          8           0        1.841469    1.427134    1.445431
     26          6           0       -0.301004    0.671527   -2.231793
     27          6           0       -0.642838    2.010510   -2.480629
     28          1           0       -1.293066    2.543611   -1.790971
     29          6           0        0.496156    0.009784   -3.175498
     30          1           0        0.732606   -1.044000   -3.038494
     31          6           0       -0.177585    2.679054   -3.605193
     32          1           0       -0.450130    3.710260   -3.801274
     33          6           0        0.985999    0.673561   -4.303687
     34          1           0        1.604805    0.140926   -5.021592
     35          8           0        1.133013    2.747848   -5.557678
     36          1           0        1.630756    2.181750   -6.169380
     37          6           0        0.662459    2.017865   -4.511301
     38          7           0        2.159923    0.608344   -0.558926
     39          1           0        1.871397    0.294052   -1.484193
     40          6           0        3.499720    1.110790   -0.245525
     41          1           0        4.197166    0.273174   -0.176763
     42          6           0        3.277232    1.632627    1.163556
     43          6           0        3.960902    2.174126   -1.256241
     44          1           0        4.962802    2.497655   -0.955354
     45          1           0        4.072891    1.662669   -2.220876
     46          8           0        3.964573    2.196640    1.935571
     47          6           0        3.010405    3.368855   -1.399650
     48          1           0        3.140879    4.050932   -0.549500
     49          1           0        1.968505    3.021929   -1.368920
     50          6           0        3.202235    4.118281   -2.722044
     51          1           0        4.231806    4.491324   -2.807535
     52          1           0        3.055195    3.410509   -3.549725
     53          6           0        2.203982    5.277781   -2.891151
     54          1           0        1.208369    4.926608   -2.588840
     55          1           0        2.460329    6.090820   -2.200915
     56          7           0        2.087302    5.835808   -4.232577
     57          1           0        1.883150    5.094596   -4.901808
     58          1           0        2.966028    6.261335   -4.521323
     59          8           0        3.622629   -0.907684    1.742531
     60          1           0        2.773282   -1.375699    1.840471
     61          1           0        4.074772   -0.991768    2.594818
     62          1           0       -5.266735   -5.304866    3.464260
 ---------------------------------------------------------------------

 SCF Done:  E(RB3LYP) =  -1526.29899613     A.U. after    2 cycles

 Alpha  occ. eigenvalues --  -19.37269 -19.30639 -19.29870 -19.26952 -19.26826
 Alpha  occ. eigenvalues --  -19.25226 -19.21413 -14.55559 -14.51474 -14.42588
 Alpha  occ. eigenvalues --  -14.38438 -10.49433 -10.47904 -10.42834 -10.41052
 Alpha  occ. eigenvalues --  -10.39678 -10.39470 -10.37455 -10.34523 -10.33703
 Alpha  occ. eigenvalues --  -10.32570 -10.32565 -10.32166 -10.31879 -10.31689
 Alpha  occ. eigenvalues --  -10.30966 -10.29980 -10.29577 -10.28925 -10.28469
 Alpha  occ. eigenvalues --  -10.27696  -1.29624  -1.21351  -1.18765  -1.17982
 Alpha  occ. eigenvalues --   -1.17859  -1.12516  -1.11021  -1.08933  -1.08011
 Alpha  occ. eigenvalues --   -1.00573  -0.98717  -0.96283  -0.95591  -0.92657
 Alpha  occ. eigenvalues --   -0.89248  -0.88796  -0.87640  -0.86812  -0.82714
 Alpha  occ. eigenvalues --   -0.82183  -0.80543  -0.78581  -0.77179  -0.75030
 Alpha  occ. eigenvalues --   -0.74904  -0.72944  -0.72457  -0.71880  -0.69126
 Alpha  occ. eigenvalues --   -0.68404  -0.67647  -0.66999  -0.66772  -0.65049
 Alpha  occ. eigenvalues --   -0.64368  -0.62949  -0.61704  -0.61315  -0.60380
 Alpha  occ. eigenvalues --   -0.60141  -0.59514  -0.59189  -0.58782  -0.57710
 Alpha  occ. eigenvalues --   -0.57198  -0.56770  -0.56633  -0.56358  -0.55758
 Alpha  occ. eigenvalues --   -0.55662  -0.55073  -0.54867  -0.54631  -0.54127
 Alpha  occ. eigenvalues --   -0.53610  -0.52722  -0.52517  -0.52303  -0.52035
 Alpha  occ. eigenvalues --   -0.50716  -0.49711  -0.49158  -0.48970  -0.48873
 Alpha  occ. eigenvalues --   -0.48429  -0.47478  -0.47230  -0.46795  -0.46219
 Alpha  occ. eigenvalues --   -0.45937  -0.45264  -0.45022  -0.44676  -0.44336
 Alpha  occ. eigenvalues --   -0.44202  -0.43457  -0.42267  -0.41418  -0.40640
 Alpha  occ. eigenvalues --   -0.40431  -0.39160  -0.38056  -0.35414  -0.34848
 Alpha  occ. eigenvalues --   -0.34453  -0.30614
 Alpha virt. eigenvalues --   -0.19014  -0.13926  -0.13581  -0.12775  -0.11739
 Alpha virt. eigenvalues --   -0.06447  -0.06352  -0.04703  -0.04418  -0.04071
 Alpha virt. eigenvalues --   -0.02853  -0.02556  -0.01815  -0.01586  -0.00318

 Mulliken charges:
               1
     1  N   -0.686160
     2  H    0.317654
     3  H    0.314624
     4  C   -0.092482
     5  H    0.160185
     6  C    0.628540
     7  C   -0.264868
     8  H    0.173179
     9  H    0.150713
    10  O   -0.554526
    11  C   -0.353218
    12  H    0.180236
    13  H    0.217658
    14  C    0.584610
    15  O   -0.463683
    16  O   -0.559452
    17  N   -0.590030
    18  H    0.361652
    19  C   -0.059014
    20  H    0.215203
    21  C    0.728230
    22  C   -0.371027
    23  H    0.196057
    24  H    0.196291
    25  O   -0.460714
    26  C    0.140420
    27  C   -0.193331
    28  H    0.150477
    29  C   -0.266706
    30  H    0.166491
    31  C   -0.152371
    32  H    0.193463
    33  C   -0.177674
    34  H    0.158593
    35  O   -0.631050
    36  H    0.426585
    37  C    0.363839
    38  N   -0.600310
    39  H    0.390651
    40  C   -0.059621
    41  H    0.268588
    42  C    0.650512
    43  C   -0.277897
    44  H    0.201525
    45  H    0.168575
    46  O   -0.367304
    47  C   -0.297079
    48  H    0.168830
    49  H    0.125989
    50  C   -0.273869
    51  H    0.148912
    52  H    0.129066
    53  C   -0.140973
    54  H    0.126070
    55  H    0.155543
    56  N   -0.714341
    57  H    0.308864
    58  H    0.302483
    59  O   -0.825372
    60  H    0.430913
    61  H    0.411550
    62  H    0.420298
 Sum of Mulliken charges =   1.00000

 Dipole moment (field-independent basis, Debye):
    X=              5.2261    Y=              1.5762    Z=             -1.8758  Tot=              5.7720
 Quadrupole moment (field-independent basis, Debye-Ang):
   XX=           -141.0217   YY=           -173.0404   ZZ=           -130.5691
   XY=             12.6354   XZ=            -28.7106   YZ=            -15.4919

 Normal termination of Gaussian 16 at Thu Jun 23 14:08:11 2022.
