 Gaussian 16, Revision C.01,
 Gaussian 16:  ES64L-G16RevC.01  3-Jul-2019

 ----------------------------------------------------------------------
 # B3LYP/6-31G* empiricaldispersion=gd3bj guess=read geom=check nosymm
 integral(ultrafinegrid)
 ----------------------------------------------------------------------

 ------------------------------------------------------
 Candidate Structure: Conf:879 Charge calc in gas phase
 ------------------------------------------------------
 Structure from the checkpoint file:  "conf-879.chk"
 Charge =  1 Multiplicity = 1

                          Input orientation:
 ---------------------------------------------------------------------
 Center     Atomic      Atomic             Coordinates (Angstroms)
 Number     Number       Type             X           Y           Z
 ---------------------------------------------------------------------
      1          7           0        0.493475    1.135925    2.378455
      2          1           0        0.311459    1.949407    2.963229
      3          1           0        0.806584    0.381425    2.987666
      4          6           0       -0.731520    0.721555    1.690678
      5          1           0       -0.997573    1.521108    0.994701
      6          6           0       -0.322042   -0.504995    0.877394
      7          6           0       -1.955351    0.419536    2.576827
      8          1           0       -2.199735    1.323192    3.147671
      9          1           0       -1.689050   -0.360151    3.299424
     10          8           0        0.346823   -1.418823    1.348524
     11          6           0       -3.198436   -0.067002    1.795208
     12          1           0       -4.028668   -0.228972    2.485075
     13          1           0       -2.975489   -1.022953    1.314870
     14          6           0       -3.636850    0.879978    0.704568
     15          8           0       -3.021760    1.108048   -0.330010
     16          8           0       -4.799418    1.487196    0.975039
     17          7           0       -0.618474   -0.434064   -0.462272
     18          1           0       -1.418615    0.152683   -0.715382
     19          6           0       -0.227414   -1.520294   -1.339849
     20          1           0       -0.539175   -1.232095   -2.351086
     21          6           0        1.291585   -1.582650   -1.368416
     22          6           0       -0.826144   -2.918844   -1.010945
     23          1           0       -0.679120   -3.551690   -1.893221
     24          1           0       -0.252832   -3.360896   -0.195470
     25          8           0        1.816461   -2.674079   -1.843184
     26          6           0       -2.281517   -2.855416   -0.615623
     27          6           0       -2.705731   -3.477287    0.567483
     28          1           0       -1.975945   -3.982660    1.194003
     29          6           0       -3.242128   -2.203567   -1.396657
     30          1           0       -2.956474   -1.713242   -2.324397
     31          6           0       -4.040330   -3.462647    0.958003
     32          1           0       -4.366884   -3.951733    1.869421
     33          6           0       -4.580287   -2.163077   -1.010850
     34          1           0       -5.309405   -1.646807   -1.631000
     35          8           0       -6.272913   -2.796037    0.608712
     36          1           0       -6.843085   -2.357748   -0.042423
     37          6           0       -4.986648   -2.798382    0.169180
     38          7           0        1.987775   -0.557447   -0.953100
     39          1           0        1.415022    0.195995   -0.574850
     40          6           0        3.447690   -0.337960   -0.881785
     41          1           0        3.868696   -0.532338   -1.875934
     42          6           0        4.074743   -1.327582    0.109397
     43          6           0        3.692642    1.110383   -0.456749
     44          1           0        3.225854    1.263010    0.525382
     45          1           0        4.770822    1.227958   -0.308758
     46          8           0        4.530748   -1.073763    1.185153
     47          6           0        3.187265    2.130484   -1.480669
     48          1           0        2.097151    2.046012   -1.607579
     49          1           0        3.624963    1.936430   -2.466254
     50          6           0        3.518050    3.570031   -1.076693
     51          1           0        3.029453    3.819178   -0.125777
     52          1           0        4.600064    3.657446   -0.900997
     53          6           0        3.098605    4.586730   -2.143000
     54          1           0        2.017417    4.504306   -2.313756
     55          1           0        3.279596    5.603318   -1.755759
     56          7           0        3.771484    4.301179   -3.415506
     57          1           0        4.755207    4.560253   -3.346170
     58          1           0        3.381653    4.884321   -4.153397
     59          8           0        4.062565   -2.592602   -0.426835
     60          1           0        2.769486   -2.777255   -1.589829
     61          1           0        4.429027   -3.219116    0.229134
     62          1           0       -4.997748    2.085210    0.227874
 ---------------------------------------------------------------------

 SCF Done:  E(RB3LYP) =  -1526.32060765     A.U. after    2 cycles

 Alpha  occ. eigenvalues --  -19.36459 -19.35273 -19.30330 -19.28817 -19.26567
 Alpha  occ. eigenvalues --  -19.25151 -19.24131 -14.55045 -14.48173 -14.42092
 Alpha  occ. eigenvalues --  -14.39028 -10.48649 -10.46735 -10.43129 -10.40434
 Alpha  occ. eigenvalues --  -10.39409 -10.38437 -10.34233 -10.32808 -10.30831
 Alpha  occ. eigenvalues --  -10.30651 -10.29748 -10.29722 -10.29056 -10.28965
 Alpha  occ. eigenvalues --  -10.28805 -10.28454 -10.28443 -10.28409 -10.27582
 Alpha  occ. eigenvalues --  -10.27067  -1.27232  -1.25023  -1.21502  -1.16788
 Alpha  occ. eigenvalues --   -1.16353  -1.14814  -1.12438  -1.12191  -1.05250
 Alpha  occ. eigenvalues --   -0.99353  -0.95985  -0.95231  -0.94800  -0.91035
 Alpha  occ. eigenvalues --   -0.89482  -0.87509  -0.85138  -0.84263  -0.81875
 Alpha  occ. eigenvalues --   -0.81282  -0.79715  -0.77540  -0.76285  -0.74749
 Alpha  occ. eigenvalues --   -0.73632  -0.72652  -0.71735  -0.69999  -0.69635
 Alpha  occ. eigenvalues --   -0.68314  -0.67462  -0.65786  -0.65316  -0.64155
 Alpha  occ. eigenvalues --   -0.63635  -0.63376  -0.61815  -0.61356  -0.60116
 Alpha  occ. eigenvalues --   -0.58719  -0.58372  -0.58270  -0.57709  -0.57448
 Alpha  occ. eigenvalues --   -0.57268  -0.56207  -0.56069  -0.55651  -0.55336
 Alpha  occ. eigenvalues --   -0.55032  -0.54270  -0.53745  -0.53335  -0.52588
 Alpha  occ. eigenvalues --   -0.52367  -0.52157  -0.51526  -0.51233  -0.50534
 Alpha  occ. eigenvalues --   -0.50356  -0.49682  -0.49116  -0.48851  -0.48042
 Alpha  occ. eigenvalues --   -0.47408  -0.47190  -0.46827  -0.46308  -0.46108
 Alpha  occ. eigenvalues --   -0.45923  -0.45572  -0.45270  -0.43716  -0.42985
 Alpha  occ. eigenvalues --   -0.42648  -0.42530  -0.42160  -0.41824  -0.41463
 Alpha  occ. eigenvalues --   -0.39539  -0.38357  -0.37300  -0.34647  -0.34275
 Alpha  occ. eigenvalues --   -0.31373  -0.31176
 Alpha virt. eigenvalues --   -0.17402  -0.14048  -0.10976  -0.10271  -0.09409
 Alpha virt. eigenvalues --   -0.08321  -0.06897  -0.04460  -0.02750  -0.02068
 Alpha virt. eigenvalues --   -0.01724  -0.01205  -0.00797  -0.00315   0.00567

 Mulliken charges:
               1
     1  N   -0.730973
     2  H    0.318555
     3  H    0.327002
     4  C   -0.067631
     5  H    0.166570
     6  C    0.586933
     7  C   -0.288478
     8  H    0.164845
     9  H    0.174494
    10  O   -0.526239
    11  C   -0.384660
    12  H    0.196979
    13  H    0.209438
    14  C    0.607736
    15  O   -0.501733
    16  O   -0.536865
    17  N   -0.665742
    18  H    0.406039
    19  C   -0.037670
    20  H    0.215780
    21  C    0.650395
    22  C   -0.354758
    23  H    0.184914
    24  H    0.186341
    25  O   -0.561287
    26  C    0.166352
    27  C   -0.205727
    28  H    0.149783
    29  C   -0.188197
    30  H    0.129653
    31  C   -0.161809
    32  H    0.164669
    33  C   -0.201527
    34  H    0.140051
    35  O   -0.626004
    36  H    0.418075
    37  C    0.356045
    38  N   -0.560762
    39  H    0.408773
    40  C   -0.075824
    41  H    0.215120
    42  C    0.636719
    43  C   -0.319748
    44  H    0.195281
    45  H    0.188142
    46  O   -0.385420
    47  C   -0.271092
    48  H    0.122055
    49  H    0.179412
    50  C   -0.260923
    51  H    0.145313
    52  H    0.142654
    53  C   -0.143903
    54  H    0.139414
    55  H    0.137615
    56  N   -0.722310
    57  H    0.302810
    58  H    0.311395
    59  O   -0.621558
    60  H    0.479983
    61  H    0.452814
    62  H    0.422688
 Sum of Mulliken charges =   1.00000

 Dipole moment (field-independent basis, Debye):
    X=              1.9307    Y=             -0.5658    Z=             -3.8040  Tot=              4.3032
 Quadrupole moment (field-independent basis, Debye-Ang):
   XX=           -107.3600   YY=           -141.5387   ZZ=           -162.8861
   XY=             -5.9165   XZ=            -10.1580   YZ=             -0.4910

 Normal termination of Gaussian 16 at Thu Jun 23 14:34:18 2022.
