 Gaussian 16, Revision C.01,
 Gaussian 16:  ES64L-G16RevC.01  3-Jul-2019

 ----------------------------------------------------------------------
 # B3LYP/6-31G* empiricaldispersion=gd3bj guess=read geom=check nosymm
 integral(ultrafinegrid)
 ----------------------------------------------------------------------

 ------------------------------------------------------
 Candidate Structure: Conf:112 Charge calc in gas phase
 ------------------------------------------------------
 Structure from the checkpoint file:  "conf-112.chk"
 Charge =  1 Multiplicity = 1

                          Input orientation:
 ---------------------------------------------------------------------
 Center     Atomic      Atomic             Coordinates (Angstroms)
 Number     Number       Type             X           Y           Z
 ---------------------------------------------------------------------
      1          7           0       -1.149726   -3.918289    2.137954
      2          1           0       -1.034257   -4.133020    1.147326
      3          1           0       -0.230812   -4.047287    2.558077
      4          6           0       -1.563074   -2.528358    2.260664
      5          1           0       -1.486296   -2.242977    3.316283
      6          6           0       -0.689409   -1.586290    1.414631
      7          6           0       -3.037320   -2.418490    1.814521
      8          1           0       -3.595655   -3.172462    2.376031
      9          1           0       -3.099108   -2.690089    0.754164
     10          8           0       -0.204796   -1.942921    0.346839
     11          6           0       -3.701039   -1.037698    2.001935
     12          1           0       -4.732091   -1.094467    1.644614
     13          1           0       -3.181348   -0.265595    1.427589
     14          6           0       -3.761151   -0.648105    3.459847
     15          8           0       -4.597882   -0.983832    4.256300
     16          8           0       -2.686141    0.131765    3.838939
     17          7           0       -0.504241   -0.322919    1.926686
     18          1           0       -1.045756   -0.064384    2.747370
     19          6           0        0.121229    0.744978    1.182335
     20          1           0       -0.065548    1.665600    1.745152
     21          6           0        1.633128    0.603605    1.140075
     22          6           0       -0.474485    0.950349   -0.282826
     23          1           0       -1.018211    0.035725   -0.513145
     24          1           0       -1.195043    1.770250   -0.217234
     25          8           0        2.137394   -0.578459    1.248728
     26          6           0        0.551077    1.216136   -1.353815
     27          6           0        1.342527    0.157452   -1.833481
     28          1           0        1.130753   -0.852414   -1.493474
     29          6           0        0.809758    2.504272   -1.831965
     30          1           0        0.186079    3.335187   -1.506390
     31          6           0        2.390745    0.390232   -2.715338
     32          1           0        3.003496   -0.424603   -3.088004
     33          6           0        1.851572    2.749600   -2.729043
     34          1           0        2.029021    3.754910   -3.098447
     35          8           0        3.742019    1.862828   -3.959210
     36          1           0        4.019774    2.829667   -4.023841
     37          6           0        2.676541    1.696148   -3.158006
     38          7           0        2.367949    1.687012    0.973867
     39          1           0        1.837266    2.547171    0.881706
     40          6           0        3.738132    1.787675    0.395936
     41          1           0        3.763491    1.100379   -0.460018
     42          6           0        4.806008    1.355060    1.405680
     43          6           0        3.975364    3.225193   -0.075056
     44          1           0        3.041406    3.585357   -0.516642
     45          1           0        4.219266    3.852551    0.789022
     46          8           0        5.660591    2.046440    1.880830
     47          6           0        5.066635    3.321714   -1.146202
     48          1           0        4.827079    2.631177   -1.959609
     49          1           0        6.031204    3.007506   -0.731216
     50          6           0        5.190981    4.747971   -1.707230
     51          1           0        4.200393    5.224593   -1.744344
     52          1           0        5.797439    5.362539   -1.032346
     53          6           0        5.798209    4.791732   -3.113032
     54          1           0        6.195375    5.795202   -3.315902
     55          1           0        6.638513    4.092400   -3.181237
     56          7           0        4.800026    4.391376   -4.134728
     57          1           0        5.257051    4.319384   -5.044355
     58          1           0        4.110213    5.136653   -4.236375
     59          8           0        4.684362    0.019263    1.690388
     60          1           0        3.128256   -0.575318    1.320839
     61          1           0        5.369435   -0.236751    2.340046
     62          1           0       -2.799022    0.293220    4.796109
 ---------------------------------------------------------------------

 SCF Done:  E(RB3LYP) =  -1526.31947123     A.U. after    1 cycles

 Alpha  occ. eigenvalues --  -19.37056 -19.36412 -19.30115 -19.29887 -19.24467
 Alpha  occ. eigenvalues --  -19.23499 -19.22623 -14.56031 -14.47727 -14.44542
 Alpha  occ. eigenvalues --  -14.39941 -10.49342 -10.47832 -10.41605 -10.40035
 Alpha  occ. eigenvalues --  -10.39190 -10.39112 -10.34553 -10.32049 -10.31831
 Alpha  occ. eigenvalues --  -10.31778 -10.31579 -10.29736 -10.29562 -10.29553
 Alpha  occ. eigenvalues --  -10.29511 -10.29171 -10.28841 -10.28783 -10.28594
 Alpha  occ. eigenvalues --  -10.28290  -1.28128  -1.26178  -1.20104  -1.17841
 Alpha  occ. eigenvalues --   -1.14626  -1.13285  -1.13041  -1.11258  -1.04855
 Alpha  occ. eigenvalues --   -1.00212  -0.97921  -0.96139  -0.95455  -0.90965
 Alpha  occ. eigenvalues --   -0.88886  -0.88521  -0.85493  -0.84836  -0.83103
 Alpha  occ. eigenvalues --   -0.81730  -0.79850  -0.78387  -0.77103  -0.74878
 Alpha  occ. eigenvalues --   -0.73866  -0.72612  -0.71911  -0.70246  -0.69517
 Alpha  occ. eigenvalues --   -0.68998  -0.68235  -0.67346  -0.66379  -0.64271
 Alpha  occ. eigenvalues --   -0.63772  -0.62996  -0.61929  -0.61320  -0.60538
 Alpha  occ. eigenvalues --   -0.59819  -0.59031  -0.58767  -0.58245  -0.57962
 Alpha  occ. eigenvalues --   -0.57658  -0.57426  -0.56379  -0.56101  -0.55765
 Alpha  occ. eigenvalues --   -0.55174  -0.54218  -0.54071  -0.53409  -0.53228
 Alpha  occ. eigenvalues --   -0.52999  -0.52416  -0.52113  -0.51852  -0.50957
 Alpha  occ. eigenvalues --   -0.50553  -0.49848  -0.49146  -0.48956  -0.48560
 Alpha  occ. eigenvalues --   -0.48279  -0.48133  -0.47383  -0.46785  -0.45952
 Alpha  occ. eigenvalues --   -0.45669  -0.45399  -0.45044  -0.44606  -0.44348
 Alpha  occ. eigenvalues --   -0.43238  -0.43006  -0.42638  -0.41796  -0.41616
 Alpha  occ. eigenvalues --   -0.37844  -0.36936  -0.36813  -0.36295  -0.35541
 Alpha  occ. eigenvalues --   -0.32558  -0.31276
 Alpha virt. eigenvalues --   -0.18454  -0.15462  -0.11027  -0.09824  -0.08983
 Alpha virt. eigenvalues --   -0.08866  -0.07838  -0.06764  -0.03794  -0.03692
 Alpha virt. eigenvalues --   -0.01978  -0.01414  -0.00735  -0.00058  -0.00017

 Mulliken charges:
               1
     1  N   -0.684517
     2  H    0.320002
     3  H    0.306289
     4  C   -0.092497
     5  H    0.150519
     6  C    0.597902
     7  C   -0.271379
     8  H    0.202960
     9  H    0.169404
    10  O   -0.520834
    11  C   -0.357198
    12  H    0.204701
    13  H    0.156473
    14  C    0.579327
    15  O   -0.418093
    16  O   -0.602256
    17  N   -0.633857
    18  H    0.385647
    19  C   -0.053035
    20  H    0.183859
    21  C    0.639487
    22  C   -0.357673
    23  H    0.218420
    24  H    0.169596
    25  O   -0.529375
    26  C    0.113116
    27  C   -0.214463
    28  H    0.190229
    29  C   -0.221655
    30  H    0.136065
    31  C   -0.182296
    32  H    0.162472
    33  C   -0.196302
    34  H    0.135007
    35  O   -0.684005
    36  H    0.473872
    37  C    0.370313
    38  N   -0.557877
    39  H    0.381401
    40  C   -0.072305
    41  H    0.230680
    42  C    0.639719
    43  C   -0.319925
    44  H    0.159857
    45  H    0.187362
    46  O   -0.390837
    47  C   -0.301570
    48  H    0.175238
    49  H    0.168273
    50  C   -0.262935
    51  H    0.134835
    52  H    0.167089
    53  C   -0.153446
    54  H    0.159964
    55  H    0.171034
    56  N   -0.775738
    57  H    0.343938
    58  H    0.328375
    59  O   -0.620741
    60  H    0.482744
    61  H    0.455420
    62  H    0.423219
 Sum of Mulliken charges =   1.00000

 Dipole moment (field-independent basis, Debye):
    X=             12.8372    Y=             10.7285    Z=              2.2852  Tot=             16.8854
 Quadrupole moment (field-independent basis, Debye-Ang):
   XX=           -117.6362   YY=           -134.5495   ZZ=           -149.6090
   XY=             29.1065   XZ=             -7.4028   YZ=            -22.5266

 Normal termination of Gaussian 16 at Thu Jun 23 14:07:58 2022.
