 Gaussian 16, Revision C.01,
 Gaussian 16:  ES64L-G16RevC.01  3-Jul-2019

 ----------------------------------------------------------------------
 # B3LYP/6-31G* empiricaldispersion=gd3bj guess=read geom=check nosymm
 integral(ultrafinegrid)
 ----------------------------------------------------------------------

 ------------------------------------------------------
 Candidate Structure: Conf:549 Charge calc in gas phase
 ------------------------------------------------------
 Structure from the checkpoint file:  "conf-549.chk"
 Charge =  1 Multiplicity = 1

                          Input orientation:
 ---------------------------------------------------------------------
 Center     Atomic      Atomic             Coordinates (Angstroms)
 Number     Number       Type             X           Y           Z
 ---------------------------------------------------------------------
      1          7           0       -0.041225   -4.063727    2.975246
      2          1           0        0.663931   -4.107050    2.241533
      3          1           0        0.455796   -3.860926    3.839820
      4          6           0       -0.991275   -3.009576    2.674371
      5          1           0       -1.580522   -2.807638    3.576931
      6          6           0       -0.346199   -1.707014    2.198910
      7          6           0       -1.972989   -3.454145    1.560717
      8          1           0       -2.653573   -2.624591    1.335547
      9          1           0       -2.574245   -4.277136    1.955573
     10          8           0        0.691799   -1.686252    1.528501
     11          6           0       -1.255887   -3.912079    0.269557
     12          1           0       -0.943811   -4.953446    0.359554
     13          1           0       -0.371373   -3.293885    0.086692
     14          6           0       -2.165879   -3.791745   -0.928150
     15          8           0       -2.755289   -4.683350   -1.484533
     16          8           0       -2.281900   -2.483055   -1.323530
     17          7           0       -0.999781   -0.536615    2.453969
     18          1           0       -1.886685   -0.537694    2.939606
     19          6           0       -0.662744    0.614524    1.621216
     20          1           0       -1.041378    1.511580    2.124548
     21          6           0        0.855862    0.744702    1.658809
     22          6           0       -1.329843    0.437900    0.234307
     23          1           0       -1.119388   -0.577200   -0.107674
     24          1           0       -2.408897    0.470320    0.430866
     25          8           0        1.368398    0.665497    2.853118
     26          6           0       -0.979069    1.407848   -0.872184
     27          6           0       -1.036694    2.803241   -0.710050
     28          1           0       -1.321390    3.229244    0.249044
     29          6           0       -0.613668    0.901003   -2.127168
     30          1           0       -0.578147   -0.175192   -2.276109
     31          6           0       -0.739895    3.662444   -1.759564
     32          1           0       -0.762867    4.737826   -1.630105
     33          6           0       -0.324869    1.752020   -3.193163
     34          1           0       -0.054478    1.339536   -4.162181
     35          8           0       -0.126345    4.023535   -4.008287
     36          1           0        0.038589    3.551165   -4.840191
     37          6           0       -0.395232    3.135031   -3.011314
     38          7           0        1.546678    1.079057    0.592780
     39          1           0        0.972569    1.217564   -0.241966
     40          6           0        2.976704    0.856296    0.279965
     41          1           0        3.151368   -0.224600    0.368597
     42          6           0        4.015910    1.523996    1.178223
     43          6           0        3.219791    1.312741   -1.172762
     44          1           0        4.228812    0.988896   -1.442129
     45          1           0        2.522332    0.770171   -1.823107
     46          8           0        5.188416    1.531515    0.929609
     47          6           0        3.077646    2.827833   -1.353503
     48          1           0        3.800092    3.334536   -0.699828
     49          1           0        2.086538    3.176262   -1.044736
     50          6           0        3.330388    3.280438   -2.793908
     51          1           0        4.275912    2.858413   -3.159360
     52          1           0        2.539107    2.885350   -3.446291
     53          6           0        3.394368    4.806301   -2.922856
     54          1           0        4.218696    5.174750   -2.299662
     55          1           0        3.651573    5.062793   -3.964650
     56          7           0        2.155387    5.432003   -2.445547
     57          1           0        1.422430    5.296167   -3.139866
     58          1           0        2.291676    6.437726   -2.364726
     59          8           0        3.499219    2.084927    2.317054
     60          1           0        2.275099    1.061966    2.881311
     61          1           0        4.245424    2.459349    2.828530
     62          1           0       -2.914373   -2.484888   -2.067228
 ---------------------------------------------------------------------

 SCF Done:  E(RB3LYP) =  -1526.30764716     A.U. after    1 cycles

 Alpha  occ. eigenvalues --  -19.35761 -19.35237 -19.29366 -19.28633 -19.28574
 Alpha  occ. eigenvalues --  -19.25809 -19.22566 -14.53936 -14.50158 -14.41634
 Alpha  occ. eigenvalues --  -14.38641 -10.48790 -10.47041 -10.41538 -10.40728
 Alpha  occ. eigenvalues --  -10.39495 -10.39457 -10.36611 -10.33932 -10.32287
 Alpha  occ. eigenvalues --  -10.31450 -10.31437 -10.31098 -10.31071 -10.30596
 Alpha  occ. eigenvalues --  -10.30017 -10.29910 -10.29025 -10.28752 -10.28369
 Alpha  occ. eigenvalues --  -10.27247  -1.26779  -1.25246  -1.19005  -1.17584
 Alpha  occ. eigenvalues --   -1.17433  -1.16862  -1.11567  -1.10168  -1.06679
 Alpha  occ. eigenvalues --   -0.99722  -0.97591  -0.95830  -0.94964  -0.91480
 Alpha  occ. eigenvalues --   -0.89078  -0.87763  -0.86690  -0.86395  -0.81951
 Alpha  occ. eigenvalues --   -0.81502  -0.81215  -0.77534  -0.76543  -0.74314
 Alpha  occ. eigenvalues --   -0.74269  -0.73179  -0.71987  -0.71652  -0.70651
 Alpha  occ. eigenvalues --   -0.68749  -0.67499  -0.67318  -0.66150  -0.65286
 Alpha  occ. eigenvalues --   -0.63809  -0.63474  -0.62349  -0.60775  -0.60255
 Alpha  occ. eigenvalues --   -0.59530  -0.58886  -0.58026  -0.57826  -0.57436
 Alpha  occ. eigenvalues --   -0.57294  -0.56984  -0.56192  -0.55830  -0.55623
 Alpha  occ. eigenvalues --   -0.55244  -0.55015  -0.54305  -0.54052  -0.53779
 Alpha  occ. eigenvalues --   -0.53368  -0.53107  -0.52304  -0.51713  -0.51182
 Alpha  occ. eigenvalues --   -0.50875  -0.50788  -0.50380  -0.49085  -0.48391
 Alpha  occ. eigenvalues --   -0.48000  -0.47710  -0.47184  -0.46348  -0.45839
 Alpha  occ. eigenvalues --   -0.45769  -0.45698  -0.45180  -0.44969  -0.44606
 Alpha  occ. eigenvalues --   -0.43524  -0.42996  -0.41932  -0.41631  -0.40608
 Alpha  occ. eigenvalues --   -0.39806  -0.39247  -0.37020  -0.35939  -0.34103
 Alpha  occ. eigenvalues --   -0.33801  -0.31218
 Alpha virt. eigenvalues --   -0.17142  -0.13747  -0.12325  -0.11746  -0.11035
 Alpha virt. eigenvalues --   -0.07867  -0.06802  -0.05300  -0.04225  -0.03503
 Alpha virt. eigenvalues --   -0.02584  -0.02143  -0.01112  -0.00283   0.00049

 Mulliken charges:
               1
     1  N   -0.686066
     2  H    0.323243
     3  H    0.317840
     4  C   -0.097702
     5  H    0.158881
     6  C    0.631563
     7  C   -0.270028
     8  H    0.148513
     9  H    0.199861
    10  O   -0.541824
    11  C   -0.357899
    12  H    0.204688
    13  H    0.180717
    14  C    0.554729
    15  O   -0.424661
    16  O   -0.583480
    17  N   -0.581653
    18  H    0.355836
    19  C   -0.056755
    20  H    0.208926
    21  C    0.664812
    22  C   -0.359929
    23  H    0.212102
    24  H    0.183878
    25  O   -0.552376
    26  C    0.049392
    27  C   -0.182085
    28  H    0.143706
    29  C   -0.201615
    30  H    0.163940
    31  C   -0.131103
    32  H    0.176277
    33  C   -0.183060
    34  H    0.152586
    35  O   -0.638161
    36  H    0.425663
    37  C    0.369982
    38  N   -0.618457
    39  H    0.406604
    40  C   -0.065013
    41  H    0.240574
    42  C    0.625328
    43  C   -0.324190
    44  H    0.200644
    45  H    0.165345
    46  O   -0.400129
    47  C   -0.277364
    48  H    0.151621
    49  H    0.171588
    50  C   -0.257430
    51  H    0.146701
    52  H    0.120889
    53  C   -0.147996
    54  H    0.146999
    55  H    0.132302
    56  N   -0.752957
    57  H    0.326149
    58  H    0.306880
    59  O   -0.617123
    60  H    0.470719
    61  H    0.452097
    62  H    0.417482
 Sum of Mulliken charges =   1.00000

 Dipole moment (field-independent basis, Debye):
    X=              3.4839    Y=              7.0932    Z=              2.4067  Tot=              8.2610
 Quadrupole moment (field-independent basis, Debye-Ang):
   XX=           -155.5500   YY=           -164.6799   ZZ=           -126.0611
   XY=              9.5997   XZ=             -0.3922   YZ=            -15.1960

 Normal termination of Gaussian 16 at Thu Jun 23 14:08:02 2022.
