 Gaussian 16, Revision C.01,
 Gaussian 16:  ES64L-G16RevC.01  3-Jul-2019

 ----------------------------------------------------------------------
 # B3LYP/6-31G* empiricaldispersion=gd3bj guess=read geom=check nosymm
 integral(ultrafinegrid)
 ----------------------------------------------------------------------

 ------------------------------------------------------
 Candidate Structure: Conf:772 Charge calc in gas phase
 ------------------------------------------------------
 Structure from the checkpoint file:  "conf-772.chk"
 Charge =  1 Multiplicity = 1

                          Input orientation:
 ---------------------------------------------------------------------
 Center     Atomic      Atomic             Coordinates (Angstroms)
 Number     Number       Type             X           Y           Z
 ---------------------------------------------------------------------
      1          7           0       -0.328742   -3.689402    2.865708
      2          1           0       -0.839526   -4.158063    2.118335
      3          1           0        0.657704   -3.805933    2.641999
      4          6           0       -0.653069   -2.268844    2.890732
      5          1           0       -0.082907   -1.827739    3.721406
      6          6           0       -0.129415   -1.525027    1.649127
      7          6           0       -2.138156   -2.056589    3.215956
      8          1           0       -2.322606   -0.996366    3.414417
      9          1           0       -2.320182   -2.585073    4.154187
     10          8           0        0.942079   -1.856005    1.116248
     11          6           0       -3.133062   -2.574929    2.147196
     12          1           0       -3.778810   -3.362135    2.539924
     13          1           0       -2.603850   -3.017922    1.290668
     14          6           0       -3.997421   -1.478547    1.565636
     15          8           0       -3.613650   -0.340447    1.328588
     16          8           0       -5.240358   -1.883804    1.299577
     17          7           0       -0.810278   -0.456483    1.177004
     18          1           0       -1.784064   -0.277063    1.441330
     19          6           0       -0.346216    0.189116   -0.037449
     20          1           0       -0.849299    1.163749   -0.087352
     21          6           0        1.115173    0.533253    0.103409
     22          6           0       -0.702954   -0.627821   -1.305329
     23          1           0       -0.257949   -1.620883   -1.200353
     24          1           0       -1.791514   -0.751826   -1.269454
     25          8           0        1.549605    1.024038    1.244953
     26          6           0       -0.271965    0.010949   -2.605956
     27          6           0       -0.703299    1.298880   -2.964789
     28          1           0       -1.414216    1.828214   -2.334566
     29          6           0        0.622973   -0.646459   -3.461435
     30          1           0        0.956291   -1.653281   -3.219852
     31          6           0       -0.248551    1.916165   -4.121499
     32          1           0       -0.585744    2.908456   -4.401041
     33          6           0        1.090778   -0.037370   -4.628121
     34          1           0        1.778005   -0.569941   -5.281013
     35          8           0        1.068580    1.912409   -6.070350
     36          1           0        1.636697    1.340997   -6.611401
     37          6           0        0.656838    1.250364   -4.962010
     38          7           0        2.009961    0.572502   -0.844820
     39          1           0        1.803396    0.286476   -1.802177
     40          6           0        3.265390    1.186296   -0.403398
     41          1           0        4.077118    0.459958   -0.477814
     42          6           0        2.959954    1.406889    1.068401
     43          6           0        3.574967    2.485202   -1.169512
     44          1           0        3.556845    2.244766   -2.240411
     45          1           0        2.770276    3.210015   -0.995275
     46          8           0        3.559622    1.891760    1.960889
     47          6           0        4.932647    3.084907   -0.789134
     48          1           0        5.720356    2.341639   -0.974003
     49          1           0        4.952522    3.298852    0.285682
     50          6           0        5.225838    4.365426   -1.575977
     51          1           0        5.221418    4.143856   -2.653555
     52          1           0        4.435187    5.106503   -1.407178
     53          6           0        6.564862    5.000229   -1.195185
     54          1           0        6.549901    5.247130   -0.126406
     55          1           0        7.371666    4.256247   -1.333628
     56          7           0        6.755773    6.246050   -1.937929
     57          1           0        6.953304    6.040490   -2.916314
     58          1           0        7.570959    6.742412   -1.583981
     59          8           0        3.584092   -1.100265    1.244204
     60          1           0        4.032456   -1.165794    2.100494
     61          1           0        2.762049   -1.618616    1.336826
     62          1           0       -5.726279   -1.131058    0.908924
 ---------------------------------------------------------------------

 SCF Done:  E(RB3LYP) =  -1526.30349443     A.U. after    1 cycles

 Alpha  occ. eigenvalues --  -19.36475 -19.31439 -19.29774 -19.28512 -19.26469
 Alpha  occ. eigenvalues --  -19.25442 -19.24442 -14.54839 -14.49025 -14.41882
 Alpha  occ. eigenvalues --  -14.37612 -10.48523 -10.47194 -10.44429 -10.41526
 Alpha  occ. eigenvalues --  -10.39591 -10.38767 -10.36516 -10.33912 -10.32651
 Alpha  occ. eigenvalues --  -10.31861 -10.31722 -10.31531 -10.31243 -10.30973
 Alpha  occ. eigenvalues --  -10.30676 -10.30375 -10.30039 -10.28421 -10.27824
 Alpha  occ. eigenvalues --  -10.26304  -1.28894  -1.22741  -1.20475  -1.17188
 Alpha  occ. eigenvalues --   -1.16864  -1.13601  -1.11638  -1.10223  -1.06282
 Alpha  occ. eigenvalues --   -0.99899  -0.97707  -0.95260  -0.94570  -0.91693
 Alpha  occ. eigenvalues --   -0.90256  -0.88127  -0.86667  -0.85780  -0.82736
 Alpha  occ. eigenvalues --   -0.81581  -0.79605  -0.78214  -0.76392  -0.75560
 Alpha  occ. eigenvalues --   -0.73871  -0.72351  -0.71519  -0.70982  -0.70516
 Alpha  occ. eigenvalues --   -0.67795  -0.66504  -0.66261  -0.65698  -0.64528
 Alpha  occ. eigenvalues --   -0.63379  -0.62456  -0.61784  -0.61110  -0.60525
 Alpha  occ. eigenvalues --   -0.60004  -0.59370  -0.59031  -0.58360  -0.57867
 Alpha  occ. eigenvalues --   -0.57514  -0.57148  -0.56316  -0.55764  -0.55397
 Alpha  occ. eigenvalues --   -0.54870  -0.54351  -0.54093  -0.53835  -0.53775
 Alpha  occ. eigenvalues --   -0.53116  -0.52729  -0.52304  -0.51939  -0.51201
 Alpha  occ. eigenvalues --   -0.50836  -0.50662  -0.50253  -0.48622  -0.48359
 Alpha  occ. eigenvalues --   -0.47851  -0.47412  -0.47222  -0.46893  -0.45666
 Alpha  occ. eigenvalues --   -0.45504  -0.45274  -0.45045  -0.44344  -0.43675
 Alpha  occ. eigenvalues --   -0.43272  -0.42390  -0.41898  -0.41109  -0.40754
 Alpha  occ. eigenvalues --   -0.40230  -0.39193  -0.39040  -0.37240  -0.34480
 Alpha  occ. eigenvalues --   -0.33390  -0.29903
 Alpha virt. eigenvalues --   -0.18074  -0.12821  -0.12557  -0.12104  -0.11069
 Alpha virt. eigenvalues --   -0.10635  -0.04122  -0.03287  -0.02947  -0.02669
 Alpha virt. eigenvalues --   -0.02314  -0.01643  -0.01397  -0.01069  -0.00544

 Mulliken charges:
               1
     1  N   -0.683906
     2  H    0.305675
     3  H    0.320997
     4  C   -0.094331
     5  H    0.193283
     6  C    0.613576
     7  C   -0.302642
     8  H    0.175583
     9  H    0.203038
    10  O   -0.569838
    11  C   -0.373861
    12  H    0.215436
    13  H    0.180146
    14  C    0.594850
    15  O   -0.490122
    16  O   -0.528966
    17  N   -0.621777
    18  H    0.408151
    19  C   -0.067974
    20  H    0.217604
    21  C    0.730806
    22  C   -0.362250
    23  H    0.191128
    24  H    0.188698
    25  O   -0.457701
    26  C    0.107785
    27  C   -0.187591
    28  H    0.148895
    29  C   -0.248230
    30  H    0.160705
    31  C   -0.151928
    32  H    0.176044
    33  C   -0.183963
    34  H    0.154714
    35  O   -0.618306
    36  H    0.423444
    37  C    0.357464
    38  N   -0.619035
    39  H    0.396601
    40  C   -0.043947
    41  H    0.260001
    42  C    0.645801
    43  C   -0.274614
    44  H    0.168198
    45  H    0.164741
    46  O   -0.372877
    47  C   -0.283525
    48  H    0.148885
    49  H    0.176177
    50  C   -0.250974
    51  H    0.130863
    52  H    0.158552
    53  C   -0.137979
    54  H    0.148718
    55  H    0.119030
    56  N   -0.715109
    57  H    0.297780
    58  H    0.309273
    59  O   -0.826257
    60  H    0.410359
    61  H    0.433457
    62  H    0.431247
 Sum of Mulliken charges =   1.00000

 Dipole moment (field-independent basis, Debye):
    X=              3.0440    Y=             -0.6900    Z=             -4.4813  Tot=              5.4611
 Quadrupole moment (field-independent basis, Debye-Ang):
   XX=           -109.8083   YY=           -169.9498   ZZ=           -140.1502
   XY=             22.2321   XZ=            -26.4437   YZ=            -10.2457

 Normal termination of Gaussian 16 at Thu Jun 23 14:34:06 2022.
