 Gaussian 16, Revision C.01,
 Gaussian 16:  ES64L-G16RevC.01  3-Jul-2019

 ----------------------------------------------------------------------
 # B3LYP/6-31G* empiricaldispersion=gd3bj guess=read geom=check nosymm
 integral(ultrafinegrid)
 ----------------------------------------------------------------------

 ------------------------------------------------------
 Candidate Structure: Conf:966 Charge calc in gas phase
 ------------------------------------------------------
 Structure from the checkpoint file:  "conf-966.chk"
 Charge =  1 Multiplicity = 1

                          Input orientation:
 ---------------------------------------------------------------------
 Center     Atomic      Atomic             Coordinates (Angstroms)
 Number     Number       Type             X           Y           Z
 ---------------------------------------------------------------------
      1          7           0       -2.340045   -2.963779    1.703595
      2          1           0       -2.360628   -3.706295    2.398138
      3          1           0       -3.288634   -2.884148    1.338005
      4          6           0       -1.929945   -1.698511    2.332771
      5          1           0       -1.197658   -1.937879    3.110847
      6          6           0       -1.176813   -0.850205    1.311918
      7          6           0       -3.090359   -0.936139    3.007113
      8          1           0       -3.622593   -1.667650    3.624869
      9          1           0       -3.792210   -0.594873    2.235357
     10          8           0       -0.838783    0.327776    1.486978
     11          6           0       -2.696935    0.258807    3.879696
     12          1           0       -3.594187    0.753783    4.268958
     13          1           0       -2.155277    1.009345    3.297309
     14          6           0       -1.838168   -0.129370    5.061226
     15          8           0       -1.398480   -1.238514    5.290187
     16          8           0       -1.594251    0.928163    5.864440
     17          7           0       -0.824464   -1.492539    0.169831
     18          1           0       -1.077787   -2.474542    0.090773
     19          6           0       -0.105409   -0.750314   -0.824587
     20          1           0       -0.754491    0.030651   -1.242712
     21          6           0        1.047736   -0.012223   -0.179729
     22          6           0        0.397307   -1.627839   -2.000235
     23          1           0        1.120797   -2.360202   -1.627842
     24          1           0       -0.472808   -2.185417   -2.366515
     25          8           0        1.716218   -0.617761    0.762564
     26          6           0        0.995854   -0.776183   -3.097140
     27          6           0        0.189294    0.120632   -3.817913
     28          1           0       -0.883631    0.146400   -3.639717
     29          6           0        2.364070   -0.802289   -3.379141
     30          1           0        3.012239   -1.491308   -2.843451
     31          6           0        0.727254    0.969325   -4.778299
     32          1           0        0.101157    1.652405   -5.342034
     33          6           0        2.919162    0.035341   -4.348729
     34          1           0        3.983858   -0.013810   -4.564664
     35          8           0        2.569927    1.779572   -6.002628
     36          1           0        3.516045    1.624308   -6.154521
     37          6           0        2.100656    0.926069   -5.050896
     38          7           0        1.444884    1.125533   -0.691724
     39          1           0        0.877270    1.515509   -1.438172
     40          6           0        2.699953    1.839292   -0.396016
     41          1           0        3.459536    1.075641   -0.190838
     42          6           0        2.512121    2.641194    0.895831
     43          6           0        3.140383    2.670259   -1.604055
     44          1           0        3.999369    3.269313   -1.284586
     45          1           0        3.500336    1.963957   -2.359765
     46          8           0        2.493118    3.831968    1.019333
     47          6           0        2.083255    3.581453   -2.238916
     48          1           0        1.750875    4.338292   -1.520687
     49          1           0        1.194895    3.000021   -2.531794
     50          6           0        2.628240    4.231332   -3.515057
     51          1           0        3.410006    4.960415   -3.274684
     52          1           0        3.101481    3.456123   -4.130734
     53          6           0        1.548148    4.907912   -4.361720
     54          1           0        0.680270    4.224038   -4.443873
     55          1           0        1.186666    5.808194   -3.850579
     56          7           0        2.117188    5.303885   -5.647605
     57          1           0        1.467722    5.900509   -6.155245
     58          1           0        2.257616    4.472736   -6.220412
     59          8           0        2.366627    1.759980    1.934452
     60          1           0        2.162890    0.037105    1.353193
     61          1           0        2.166983    2.252381    2.754894
     62          1           0       -1.060484    0.594782    6.610850
 ---------------------------------------------------------------------

 SCF Done:  E(RB3LYP) =  -1526.31874328     A.U. after    3 cycles

 Alpha  occ. eigenvalues --  -19.35902 -19.34919 -19.29163 -19.28799 -19.27683
 Alpha  occ. eigenvalues --  -19.23834 -19.22364 -14.55270 -14.47857 -14.42998
 Alpha  occ. eigenvalues --  -14.37976 -10.48596 -10.46685 -10.40454 -10.40059
 Alpha  occ. eigenvalues --  -10.39647 -10.38685 -10.36623 -10.33198 -10.32653
 Alpha  occ. eigenvalues --  -10.31556 -10.31393 -10.31117 -10.31032 -10.30621
 Alpha  occ. eigenvalues --  -10.30188 -10.29356 -10.28786 -10.28436 -10.28380
 Alpha  occ. eigenvalues --  -10.26690  -1.26900  -1.24839  -1.18747  -1.17225
 Alpha  occ. eigenvalues --   -1.16653  -1.15706  -1.12586  -1.09721  -1.05419
 Alpha  occ. eigenvalues --   -1.00000  -0.97550  -0.95552  -0.94958  -0.91587
 Alpha  occ. eigenvalues --   -0.88421  -0.88263  -0.86604  -0.86022  -0.81631
 Alpha  occ. eigenvalues --   -0.81176  -0.80916  -0.77764  -0.76350  -0.75069
 Alpha  occ. eigenvalues --   -0.74402  -0.73850  -0.71811  -0.70987  -0.69130
 Alpha  occ. eigenvalues --   -0.67612  -0.67235  -0.66803  -0.66090  -0.65620
 Alpha  occ. eigenvalues --   -0.63776  -0.63010  -0.61987  -0.61063  -0.60069
 Alpha  occ. eigenvalues --   -0.59792  -0.58474  -0.58181  -0.57992  -0.57706
 Alpha  occ. eigenvalues --   -0.57093  -0.56419  -0.56278  -0.56087  -0.55911
 Alpha  occ. eigenvalues --   -0.55144  -0.54403  -0.54025  -0.53732  -0.52961
 Alpha  occ. eigenvalues --   -0.52482  -0.52353  -0.52022  -0.51691  -0.51095
 Alpha  occ. eigenvalues --   -0.50766  -0.49693  -0.49343  -0.48488  -0.48364
 Alpha  occ. eigenvalues --   -0.47666  -0.47525  -0.47260  -0.46942  -0.46750
 Alpha  occ. eigenvalues --   -0.45732  -0.45366  -0.45266  -0.44498  -0.44050
 Alpha  occ. eigenvalues --   -0.43964  -0.42839  -0.41590  -0.41259  -0.40025
 Alpha  occ. eigenvalues --   -0.38425  -0.38145  -0.37014  -0.35778  -0.35001
 Alpha  occ. eigenvalues --   -0.33629  -0.30326
 Alpha virt. eigenvalues --   -0.17554  -0.13812  -0.12629  -0.11114  -0.09584
 Alpha virt. eigenvalues --   -0.07271  -0.06626  -0.05341  -0.04104  -0.03506
 Alpha virt. eigenvalues --   -0.01867  -0.01700  -0.00561   0.00061   0.00254

 Mulliken charges:
               1
     1  N   -0.761452
     2  H    0.338320
     3  H    0.320484
     4  C   -0.092510
     5  H    0.218716
     6  C    0.646054
     7  C   -0.279394
     8  H    0.168215
     9  H    0.146976
    10  O   -0.561813
    11  C   -0.366784
    12  H    0.192994
    13  H    0.213085
    14  C    0.581840
    15  O   -0.468543
    16  O   -0.560227
    17  N   -0.616310
    18  H    0.377452
    19  C   -0.002185
    20  H    0.190659
    21  C    0.674152
    22  C   -0.394033
    23  H    0.188705
    24  H    0.197813
    25  O   -0.566516
    26  C    0.152103
    27  C   -0.224562
    28  H    0.151406
    29  C   -0.200708
    30  H    0.150329
    31  C   -0.155580
    32  H    0.174095
    33  C   -0.195245
    34  H    0.152376
    35  O   -0.632739
    36  H    0.425950
    37  C    0.368502
    38  N   -0.557092
    39  H    0.392479
    40  C   -0.107902
    41  H    0.207565
    42  C    0.644028
    43  C   -0.294958
    44  H    0.192192
    45  H    0.168391
    46  O   -0.391877
    47  C   -0.305205
    48  H    0.184390
    49  H    0.121982
    50  C   -0.249634
    51  H    0.167094
    52  H    0.129635
    53  C   -0.136485
    54  H    0.103028
    55  H    0.152003
    56  N   -0.721204
    57  H    0.307698
    58  H    0.303486
    59  O   -0.610906
    60  H    0.479252
    61  H    0.452744
    62  H    0.417674
 Sum of Mulliken charges =   1.00000

 Dipole moment (field-independent basis, Debye):
    X=              3.8794    Y=              0.2134    Z=             -2.8251  Tot=              4.8038
 Quadrupole moment (field-independent basis, Debye-Ang):
   XX=           -136.8394   YY=           -172.4604   ZZ=           -125.2754
   XY=             10.0463   XZ=            -17.1013   YZ=             -4.1067

 Normal termination of Gaussian 16 at Thu Jun 23 14:34:27 2022.
