 Gaussian 16, Revision C.01,
 Gaussian 16:  ES64L-G16RevC.01  3-Jul-2019

 ----------------------------------------------------------------------
 # B3LYP/6-31G* empiricaldispersion=gd3bj guess=read geom=check nosymm
 integral(ultrafinegrid)
 ----------------------------------------------------------------------

 ------------------------------------------------------
 Candidate Structure: Conf:727 Charge calc in gas phase
 ------------------------------------------------------
 Structure from the checkpoint file:  "conf-727.chk"
 Charge =  1 Multiplicity = 1

                          Input orientation:
 ---------------------------------------------------------------------
 Center     Atomic      Atomic             Coordinates (Angstroms)
 Number     Number       Type             X           Y           Z
 ---------------------------------------------------------------------
      1          7           0       -0.067722   -3.293956    3.584060
      2          1           0        0.582869   -3.606749    2.864345
      3          1           0        0.487211   -2.801178    4.280481
      4          6           0       -1.048118   -2.406376    2.987469
      5          1           0       -1.626941   -1.941299    3.796771
      6          6           0       -0.419859   -1.301249    2.135331
      7          6           0       -2.018495   -3.198629    2.084309
      8          1           0       -1.437279   -3.658205    1.273991
      9          1           0       -2.732636   -2.513508    1.614832
     10          8           0        0.659008   -1.434014    1.552315
     11          6           0       -2.773288   -4.282889    2.864694
     12          1           0       -3.362832   -3.814423    3.663487
     13          1           0       -2.074170   -4.980851    3.324267
     14          6           0       -3.717764   -5.067085    1.980509
     15          8           0       -3.702602   -6.262700    1.812529
     16          8           0       -4.618497   -4.250266    1.368466
     17          7           0       -1.114812   -0.133744    1.996648
     18          1           0       -2.006233    0.006398    2.451034
     19          6           0       -0.652834    0.823187    1.003872
     20          1           0       -1.134649    1.784196    1.219657
     21          6           0        0.834585    1.049856    1.262735
     22          6           0       -1.037464    0.330234   -0.413552
     23          1           0       -0.651016   -0.687428   -0.512358
     24          1           0       -2.130953    0.249958   -0.400768
     25          8           0        1.154327    1.161487    2.518804
     26          6           0       -0.595244    1.151735   -1.606589
     27          6           0       -0.869794    2.525588   -1.725492
     28          1           0       -1.395100    3.047107   -0.928920
     29          6           0        0.066271    0.518957   -2.669254
     30          1           0        0.281947   -0.544726   -2.607876
     31          6           0       -0.500156    3.239521   -2.859307
     32          1           0       -0.719473    4.297420   -2.954693
     33          6           0        0.432754    1.219066   -3.816579
     34          1           0        0.933199    0.703499   -4.632304
     35          8           0        0.471528    3.324746   -5.008799
     36          1           0        0.837046    2.748994   -5.700432
     37          6           0        0.143527    2.582838   -3.917714
     38          7           0        1.671017    1.269240    0.275335
     39          1           0        1.230145    1.241247   -0.647371
     40          6           0        3.149386    1.179908    0.208202
     41          1           0        3.418720    0.153619    0.492571
     42          6           0        3.962887    2.095802    1.122851
     43          6           0        3.562958    1.449832   -1.252504
     44          1           0        4.635493    1.254461   -1.327191
     45          1           0        3.054709    0.718928   -1.892915
     46          8           0        5.143900    2.259156    1.004005
     47          6           0        3.245810    2.880821   -1.701112
     48          1           0        3.815665    3.584444   -1.079562
     49          1           0        2.183755    3.105452   -1.530749
     50          6           0        3.565760    3.138363   -3.174201
     51          1           0        4.606373    2.877697   -3.399649
     52          1           0        2.940830    2.489968   -3.800419
     53          6           0        3.321506    4.600854   -3.561883
     54          1           0        2.356005    4.929662   -3.135422
     55          1           0        4.094301    5.222649   -3.094523
     56          7           0        3.404881    4.768431   -5.013237
     57          1           0        3.602348    5.739556   -5.243568
     58          1           0        2.493491    4.563106   -5.417249
     59          8           0        3.234398    2.682624    2.124220
     60          1           0        2.027710    1.614174    2.630533
     61          1           0        3.850562    3.211249    2.671698
     62          1           0       -5.191734   -4.832446    0.834289
 ---------------------------------------------------------------------

 SCF Done:  E(RB3LYP) =  -1526.30152859     A.U. after    1 cycles

 Alpha  occ. eigenvalues --  -19.36397 -19.35921 -19.29663 -19.29205 -19.26500
 Alpha  occ. eigenvalues --  -19.25372 -19.20697 -14.54789 -14.50137 -14.41464
 Alpha  occ. eigenvalues --  -14.38405 -10.49307 -10.47677 -10.41314 -10.40195
 Alpha  occ. eigenvalues --  -10.39963 -10.38939 -10.37205 -10.33579 -10.32986
 Alpha  occ. eigenvalues --  -10.32106 -10.32046 -10.31792 -10.31778 -10.31080
 Alpha  occ. eigenvalues --  -10.30746 -10.29481 -10.29321 -10.28804 -10.27656
 Alpha  occ. eigenvalues --  -10.27024  -1.27423  -1.25885  -1.17807  -1.17528
 Alpha  occ. eigenvalues --   -1.17256  -1.17217  -1.12300  -1.08267  -1.06663
 Alpha  occ. eigenvalues --   -0.99529  -0.98174  -0.95956  -0.95351  -0.91959
 Alpha  occ. eigenvalues --   -0.88597  -0.88170  -0.87281  -0.86847  -0.82242
 Alpha  occ. eigenvalues --   -0.81713  -0.81206  -0.77646  -0.77016  -0.74976
 Alpha  occ. eigenvalues --   -0.74204  -0.73581  -0.72072  -0.71594  -0.70962
 Alpha  occ. eigenvalues --   -0.68195  -0.67856  -0.67445  -0.66667  -0.65731
 Alpha  occ. eigenvalues --   -0.64467  -0.63997  -0.61884  -0.61133  -0.60567
 Alpha  occ. eigenvalues --   -0.59476  -0.59178  -0.58481  -0.58135  -0.57867
 Alpha  occ. eigenvalues --   -0.57386  -0.56743  -0.56456  -0.55748  -0.55549
 Alpha  occ. eigenvalues --   -0.55254  -0.54968  -0.54621  -0.54389  -0.53450
 Alpha  occ. eigenvalues --   -0.52695  -0.52494  -0.52203  -0.52069  -0.51471
 Alpha  occ. eigenvalues --   -0.51348  -0.50311  -0.49691  -0.49438  -0.48986
 Alpha  occ. eigenvalues --   -0.48237  -0.47848  -0.46881  -0.46479  -0.45824
 Alpha  occ. eigenvalues --   -0.45567  -0.45435  -0.45049  -0.44643  -0.44308
 Alpha  occ. eigenvalues --   -0.43978  -0.43508  -0.42240  -0.41899  -0.39784
 Alpha  occ. eigenvalues --   -0.39106  -0.38643  -0.37613  -0.34452  -0.34265
 Alpha  occ. eigenvalues --   -0.33723  -0.30870
 Alpha virt. eigenvalues --   -0.17647  -0.14383  -0.13058  -0.12146  -0.10852
 Alpha virt. eigenvalues --   -0.07383  -0.05919  -0.05398  -0.04389  -0.03730
 Alpha virt. eigenvalues --   -0.02767  -0.01644  -0.01543  -0.00782  -0.00146

 Mulliken charges:
               1
     1  N   -0.682381
     2  H    0.320464
     3  H    0.314144
     4  C   -0.091566
     5  H    0.154097
     6  C    0.627445
     7  C   -0.278991
     8  H    0.164482
     9  H    0.156724
    10  O   -0.540991
    11  C   -0.326992
    12  H    0.171079
    13  H    0.212229
    14  C    0.560576
    15  O   -0.438480
    16  O   -0.571445
    17  N   -0.590948
    18  H    0.355943
    19  C   -0.052349
    20  H    0.207014
    21  C    0.668689
    22  C   -0.349230
    23  H    0.195245
    24  H    0.192214
    25  O   -0.552537
    26  C    0.053912
    27  C   -0.177838
    28  H    0.145540
    29  C   -0.197790
    30  H    0.161653
    31  C   -0.154607
    32  H    0.175925
    33  C   -0.182625
    34  H    0.159969
    35  O   -0.632992
    36  H    0.429044
    37  C    0.376694
    38  N   -0.622687
    39  H    0.406487
    40  C   -0.068227
    41  H    0.243500
    42  C    0.628187
    43  C   -0.321610
    44  H    0.208157
    45  H    0.168583
    46  O   -0.395477
    47  C   -0.297669
    48  H    0.158883
    49  H    0.139277
    50  C   -0.239539
    51  H    0.162094
    52  H    0.124073
    53  C   -0.143229
    54  H    0.114047
    55  H    0.148665
    56  N   -0.728142
    57  H    0.309432
    58  H    0.301941
    59  O   -0.620330
    60  H    0.471442
    61  H    0.453879
    62  H    0.416945
 Sum of Mulliken charges =   1.00000

 Dipole moment (field-independent basis, Debye):
    X=              2.6925    Y=              8.7216    Z=              1.2008  Tot=              9.2064
 Quadrupole moment (field-independent basis, Debye-Ang):
   XX=           -155.8290   YY=           -169.9768   ZZ=           -134.6333
   XY=             10.9581   XZ=              4.4358   YZ=              3.4450

 Normal termination of Gaussian 16 at Thu Jun 23 14:34:05 2022.
