 Gaussian 16, Revision C.01,
 Gaussian 16:  ES64L-G16RevC.01  3-Jul-2019

 ----------------------------------------------------------------------
 # B3LYP/6-31G* empiricaldispersion=gd3bj guess=read geom=check nosymm
 integral(ultrafinegrid)
 ----------------------------------------------------------------------

 -----------------------------------------------------
 Candidate Structure: Conf:95 Charge calc in gas phase
 -----------------------------------------------------
 Structure from the checkpoint file:  "conf-95.chk"
 Charge =  1 Multiplicity = 1

                          Input orientation:
 ---------------------------------------------------------------------
 Center     Atomic      Atomic             Coordinates (Angstroms)
 Number     Number       Type             X           Y           Z
 ---------------------------------------------------------------------
      1          7           0        0.680177   -1.872914    3.764400
      2          1           0        0.494771   -2.487785    4.552699
      3          1           0        1.543964   -2.182765    3.322487
      4          6           0       -0.407679   -1.939424    2.795684
      5          1           0       -1.315408   -1.564547    3.288200
      6          6           0       -0.037157   -1.007362    1.653639
      7          6           0       -0.714743   -3.322747    2.174641
      8          1           0        0.174233   -3.673012    1.638065
      9          1           0       -1.509481   -3.225623    1.425213
     10          8           0        1.075711   -1.020594    1.122813
     11          6           0       -1.136737   -4.358666    3.212568
     12          1           0       -1.997931   -4.010897    3.799481
     13          1           0       -0.339058   -4.558813    3.937093
     14          6           0       -1.522457   -5.672991    2.563979
     15          8           0       -1.608305   -5.864972    1.371730
     16          8           0       -1.773038   -6.620978    3.491720
     17          7           0       -0.996392   -0.164020    1.179842
     18          1           0       -1.895064   -0.078016    1.632138
     19          6           0       -0.713944    0.594487   -0.028851
     20          1           0       -1.413911    1.436879   -0.059392
     21          6           0        0.666345    1.220134    0.144321
     22          6           0       -0.894274   -0.290798   -1.285661
     23          1           0       -0.255615   -1.170816   -1.166528
     24          1           0       -1.930188   -0.647053   -1.247644
     25          8           0        0.851970    1.808893    1.291980
     26          6           0       -0.610637    0.386470   -2.608808
     27          6           0       -1.243550    1.587746   -2.971936
     28          1           0       -1.988923    2.029734   -2.314882
     29          6           0        0.322896   -0.160731   -3.500099
     30          1           0        0.811396   -1.101092   -3.254755
     31          6           0       -0.949842    2.224798   -4.168511
     32          1           0       -1.441979    3.149015   -4.451347
     33          6           0        0.630202    0.469671   -4.706960
     34          1           0        1.351733    0.021722   -5.385758
     35          8           0        0.238946    2.344674   -6.193720
     36          1           0        0.866688    1.851922   -6.745996
     37          6           0       -0.005944    1.668431   -5.045722
     38          7           0        1.542070    1.275009   -0.829041
     39          1           0        1.246109    0.886596   -1.727536
     40          6           0        2.980602    1.593239   -0.696429
     41          1           0        3.321961    1.160128    0.250773
     42          6           0        3.148792    3.115932   -0.633788
     43          6           0        3.744557    0.980577   -1.868042
     44          1           0        3.440614   -0.070119   -1.953714
     45          1           0        3.441430    1.492958   -2.788958
     46          8           0        3.490946    3.842220   -1.522102
     47          6           0        5.260820    1.075639   -1.678023
     48          1           0        5.546370    0.537481   -0.763040
     49          1           0        5.569306    2.116639   -1.545966
     50          6           0        6.035023    0.499150   -2.866363
     51          1           0        5.796929   -0.564718   -2.999415
     52          1           0        5.716249    1.008437   -3.787941
     53          6           0        7.550611    0.656853   -2.704404
     54          1           0        7.869085    0.138395   -1.791385
     55          1           0        8.052710    0.150331   -3.545947
     56          7           0        7.905694    2.072355   -2.557509
     57          1           0        7.809993    2.545627   -3.455323
     58          1           0        8.885636    2.160462   -2.296558
     59          8           0        2.805663    3.560859    0.617881
     60          1           0        1.641683    2.404625    1.301356
     61          1           0        2.875183    4.536224    0.640019
     62          1           0       -2.025499   -7.430284    3.007683
 ---------------------------------------------------------------------

 SCF Done:  E(RB3LYP) =  -1526.30451819     A.U. after    3 cycles

 Alpha  occ. eigenvalues --  -19.35559 -19.34941 -19.28527 -19.28075 -19.26904
 Alpha  occ. eigenvalues --  -19.24637 -19.21474 -14.54068 -14.49661 -14.41088
 Alpha  occ. eigenvalues --  -14.38461 -10.48606 -10.46398 -10.41014 -10.39774
 Alpha  occ. eigenvalues --  -10.39251 -10.38825 -10.36054 -10.33075 -10.32174
 Alpha  occ. eigenvalues --  -10.31103 -10.30906 -10.30824 -10.30612 -10.30138
 Alpha  occ. eigenvalues --  -10.29578 -10.28901 -10.28401 -10.28260 -10.27613
 Alpha  occ. eigenvalues --  -10.26688  -1.26576  -1.24730  -1.17919  -1.16740
 Alpha  occ. eigenvalues --   -1.16457  -1.16432  -1.11597  -1.09017  -1.06099
 Alpha  occ. eigenvalues --   -0.98988  -0.97220  -0.95466  -0.94662  -0.91239
 Alpha  occ. eigenvalues --   -0.88208  -0.87383  -0.86294  -0.85863  -0.81661
 Alpha  occ. eigenvalues --   -0.81132  -0.80981  -0.77251  -0.76087  -0.74448
 Alpha  occ. eigenvalues --   -0.73829  -0.72248  -0.71767  -0.70783  -0.70221
 Alpha  occ. eigenvalues --   -0.67258  -0.66685  -0.66448  -0.65654  -0.65240
 Alpha  occ. eigenvalues --   -0.64523  -0.62859  -0.61839  -0.60573  -0.59453
 Alpha  occ. eigenvalues --   -0.58689  -0.57920  -0.57693  -0.57366  -0.56957
 Alpha  occ. eigenvalues --   -0.56730  -0.56178  -0.55811  -0.55315  -0.55094
 Alpha  occ. eigenvalues --   -0.54522  -0.54217  -0.53984  -0.53362  -0.53319
 Alpha  occ. eigenvalues --   -0.52941  -0.52329  -0.51620  -0.51290  -0.50637
 Alpha  occ. eigenvalues --   -0.50571  -0.49667  -0.48997  -0.48259  -0.47662
 Alpha  occ. eigenvalues --   -0.47409  -0.47115  -0.46931  -0.46293  -0.45954
 Alpha  occ. eigenvalues --   -0.45528  -0.45267  -0.44636  -0.43908  -0.43832
 Alpha  occ. eigenvalues --   -0.43130  -0.42136  -0.41623  -0.41295  -0.39237
 Alpha  occ. eigenvalues --   -0.39057  -0.38268  -0.36713  -0.35183  -0.33233
 Alpha  occ. eigenvalues --   -0.32951  -0.30768
 Alpha virt. eigenvalues --   -0.16871  -0.13972  -0.12104  -0.10880  -0.09746
 Alpha virt. eigenvalues --   -0.06505  -0.06369  -0.04869  -0.02675  -0.02438
 Alpha virt. eigenvalues --   -0.01863  -0.01015  -0.00744  -0.00240   0.00401

 Mulliken charges:
               1
     1  N   -0.709880
     2  H    0.319530
     3  H    0.319615
     4  C   -0.084509
     5  H    0.144823
     6  C    0.680592
     7  C   -0.265855
     8  H    0.171726
     9  H    0.157642
    10  O   -0.549123
    11  C   -0.367451
    12  H    0.184796
    13  H    0.178358
    14  C    0.587093
    15  O   -0.455616
    16  O   -0.560792
    17  N   -0.601860
    18  H    0.356618
    19  C   -0.038873
    20  H    0.204501
    21  C    0.662324
    22  C   -0.358639
    23  H    0.194127
    24  H    0.191332
    25  O   -0.553218
    26  C    0.085286
    27  C   -0.181500
    28  H    0.142542
    29  C   -0.227335
    30  H    0.158982
    31  C   -0.149165
    32  H    0.174086
    33  C   -0.180309
    34  H    0.151681
    35  O   -0.618103
    36  H    0.422852
    37  C    0.359996
    38  N   -0.604260
    39  H    0.407029
    40  C   -0.076726
    41  H    0.220453
    42  C    0.632080
    43  C   -0.308513
    44  H    0.162752
    45  H    0.176985
    46  O   -0.394396
    47  C   -0.273393
    48  H    0.140777
    49  H    0.193738
    50  C   -0.261426
    51  H    0.137709
    52  H    0.134403
    53  C   -0.143759
    54  H    0.146450
    55  H    0.133931
    56  N   -0.719888
    57  H    0.301030
    58  H    0.311811
    59  O   -0.612565
    60  H    0.478535
    61  H    0.449786
    62  H    0.421182
 Sum of Mulliken charges =   1.00000

 Dipole moment (field-independent basis, Debye):
    X=              5.5632    Y=              2.7721    Z=             -2.3809  Tot=              6.6560
 Quadrupole moment (field-independent basis, Debye-Ang):
   XX=           -121.6751   YY=           -144.4068   ZZ=           -132.8027
   XY=             13.9385   XZ=            -28.5606   YZ=            -15.5114

 Normal termination of Gaussian 16 at Thu Jun 23 14:08:14 2022.
