 Gaussian 16, Revision C.01,
 Gaussian 16:  ES64L-G16RevC.01  3-Jul-2019

 ----------------------------------------------------------------------
 # B3LYP/6-31G* empiricaldispersion=gd3bj guess=read geom=check nosymm
 integral(ultrafinegrid)
 ----------------------------------------------------------------------

 ------------------------------------------------------
 Candidate Structure: Conf:883 Charge calc in gas phase
 ------------------------------------------------------
 Structure from the checkpoint file:  "conf-883.chk"
 Charge =  1 Multiplicity = 1

                          Input orientation:
 ---------------------------------------------------------------------
 Center     Atomic      Atomic             Coordinates (Angstroms)
 Number     Number       Type             X           Y           Z
 ---------------------------------------------------------------------
      1          7           0       -1.110115   -2.043981    4.117111
      2          1           0       -1.534589   -1.309795    4.678187
      3          1           0       -1.187782   -2.909179    4.647019
      4          6           0       -1.789378   -2.189680    2.823739
      5          1           0       -2.872678   -1.976047    2.868816
      6          6           0       -1.129532   -1.161766    1.901499
      7          6           0       -1.585364   -3.603229    2.280364
      8          1           0       -2.013603   -4.315351    2.993652
      9          1           0       -0.511523   -3.803593    2.230442
     10          8           0       -0.111056   -1.378682    1.243074
     11          6           0       -2.219742   -3.821904    0.909159
     12          1           0       -1.741030   -3.200808    0.144177
     13          1           0       -3.284137   -3.549625    0.908162
     14          6           0       -2.118459   -5.267763    0.470549
     15          8           0       -1.698761   -6.178155    1.147191
     16          8           0       -2.569195   -5.428096   -0.795016
     17          7           0       -1.683262    0.086122    1.873272
     18          1           0       -2.497233    0.320992    2.422784
     19          6           0       -1.055980    1.091309    1.028034
     20          1           0       -1.392241    2.075000    1.375176
     21          6           0        0.442518    1.037727    1.323054
     22          6           0       -1.474444    0.864147   -0.444799
     23          1           0       -1.260382   -0.181414   -0.679491
     24          1           0       -2.565615    0.971447   -0.453817
     25          8           0        0.729522    0.937188    2.586713
     26          6           0       -0.855372    1.753323   -1.501823
     27          6           0       -0.846792    3.155709   -1.398624
     28          1           0       -1.278368    3.640783   -0.526479
     29          6           0       -0.293968    1.173340   -2.647656
     30          1           0       -0.291881    0.091580   -2.754210
     31          6           0       -0.301399    3.948773   -2.399161
     32          1           0       -0.279953    5.028665   -2.312193
     33          6           0        0.245075    1.957253   -3.666888
     34          1           0        0.664177    1.486215   -4.552588
     35          8           0        0.745041    4.175054   -4.500773
     36          1           0        1.025823    3.658309   -5.273193
     37          6           0        0.234693    3.348309   -3.546053
     38          7           0        1.340659    1.227038    0.383826
     39          1           0        0.937324    1.399113   -0.539719
     40          6           0        2.764558    0.820807    0.320455
     41          1           0        2.786203   -0.268345    0.462941
     42          6           0        3.720983    1.396963    1.363492
     43          6           0        3.291964    1.181476   -1.082460
     44          1           0        4.289260    0.742169   -1.169829
     45          1           0        2.654828    0.686322   -1.825646
     46          8           0        4.912501    1.289068    1.290168
     47          6           0        3.349235    2.693730   -1.324252
     48          1           0        4.007195    3.150141   -0.572946
     49          1           0        2.366089    3.158101   -1.193085
     50          6           0        3.878942    3.055884   -2.713973
     51          1           0        4.817420    2.520740   -2.910089
     52          1           0        3.162813    2.720240   -3.477221
     53          6           0        4.132907    4.559879   -2.865494
     54          1           0        4.889939    4.860723   -2.130670
     55          1           0        4.571947    4.746578   -3.860418
     56          7           0        2.914942    5.333856   -2.597757
     57          1           0        2.284167    5.255798   -3.393889
     58          1           0        3.150541    6.320750   -2.514041
     59          8           0        3.100854    2.011179    2.419466
     60          1           0        1.671996    1.179467    2.768008
     61          1           0        3.796334    2.305867    3.042305
     62          1           0       -2.490164   -6.379493   -0.999053
 ---------------------------------------------------------------------

 SCF Done:  E(RB3LYP) =  -1526.30438874     A.U. after    3 cycles

 Alpha  occ. eigenvalues --  -19.35501 -19.35045 -19.29252 -19.28311 -19.26725
 Alpha  occ. eigenvalues --  -19.24515 -19.21201 -14.53743 -14.49617 -14.41892
 Alpha  occ. eigenvalues --  -14.38492 -10.48399 -10.46789 -10.40852 -10.39475
 Alpha  occ. eigenvalues --  -10.39240 -10.39224 -10.36496 -10.33189 -10.32250
 Alpha  occ. eigenvalues --  -10.31382 -10.31172 -10.31079 -10.30977 -10.30491
 Alpha  occ. eigenvalues --  -10.29943 -10.28617 -10.28570 -10.28177 -10.27843
 Alpha  occ. eigenvalues --  -10.27096  -1.26565  -1.25022  -1.17670  -1.17322
 Alpha  occ. eigenvalues --   -1.16675  -1.16510  -1.11315  -1.08772  -1.05984
 Alpha  occ. eigenvalues --   -0.99403  -0.97480  -0.95669  -0.94692  -0.91194
 Alpha  occ. eigenvalues --   -0.88355  -0.87518  -0.86583  -0.86145  -0.81483
 Alpha  occ. eigenvalues --   -0.81027  -0.80732  -0.77449  -0.76413  -0.74249
 Alpha  occ. eigenvalues --   -0.74062  -0.73018  -0.71626  -0.71509  -0.70415
 Alpha  occ. eigenvalues --   -0.67443  -0.67230  -0.66837  -0.65986  -0.64400
 Alpha  occ. eigenvalues --   -0.63308  -0.63121  -0.60759  -0.60514  -0.59886
 Alpha  occ. eigenvalues --   -0.58813  -0.58501  -0.58160  -0.57648  -0.57314
 Alpha  occ. eigenvalues --   -0.57036  -0.56637  -0.55880  -0.55607  -0.55208
 Alpha  occ. eigenvalues --   -0.55059  -0.54854  -0.54410  -0.53847  -0.53693
 Alpha  occ. eigenvalues --   -0.53209  -0.52636  -0.52070  -0.51554  -0.50689
 Alpha  occ. eigenvalues --   -0.50184  -0.49652  -0.48793  -0.48381  -0.47737
 Alpha  occ. eigenvalues --   -0.47496  -0.47175  -0.46918  -0.45744  -0.45560
 Alpha  occ. eigenvalues --   -0.45441  -0.45046  -0.44556  -0.44409  -0.43492
 Alpha  occ. eigenvalues --   -0.43364  -0.42813  -0.41779  -0.41355  -0.39176
 Alpha  occ. eigenvalues --   -0.38999  -0.38429  -0.36919  -0.34884  -0.33904
 Alpha  occ. eigenvalues --   -0.33699  -0.31060
 Alpha virt. eigenvalues --   -0.16878  -0.13479  -0.12240  -0.11389  -0.10127
 Alpha virt. eigenvalues --   -0.06537  -0.06237  -0.05186  -0.04134  -0.03235
 Alpha virt. eigenvalues --   -0.01999  -0.01174  -0.00729   0.00159   0.00420

 Mulliken charges:
               1
     1  N   -0.718246
     2  H    0.307045
     3  H    0.328743
     4  C   -0.081864
     5  H    0.127651
     6  C    0.693757
     7  C   -0.269794
     8  H    0.171230
     9  H    0.191036
    10  O   -0.541720
    11  C   -0.375602
    12  H    0.183576
    13  H    0.177964
    14  C    0.588039
    15  O   -0.448356
    16  O   -0.569468
    17  N   -0.603944
    18  H    0.351621
    19  C   -0.044746
    20  H    0.204654
    21  C    0.660551
    22  C   -0.344938
    23  H    0.193353
    24  H    0.189241
    25  O   -0.546793
    26  C    0.054513
    27  C   -0.181439
    28  H    0.143805
    29  C   -0.199151
    30  H    0.158950
    31  C   -0.130640
    32  H    0.175302
    33  C   -0.180680
    34  H    0.153603
    35  O   -0.637551
    36  H    0.425765
    37  C    0.369819
    38  N   -0.619912
    39  H    0.406569
    40  C   -0.068219
    41  H    0.244902
    42  C    0.629284
    43  C   -0.324344
    44  H    0.201258
    45  H    0.164313
    46  O   -0.400082
    47  C   -0.276142
    48  H    0.152271
    49  H    0.170023
    50  C   -0.257573
    51  H    0.147094
    52  H    0.119551
    53  C   -0.148506
    54  H    0.147372
    55  H    0.131522
    56  N   -0.752738
    57  H    0.325461
    58  H    0.306609
    59  O   -0.618823
    60  H    0.472787
    61  H    0.452244
    62  H    0.419799
 Sum of Mulliken charges =   1.00000

 Dipole moment (field-independent basis, Debye):
    X=              0.7027    Y=              7.2143    Z=              0.7858  Tot=              7.2909
 Quadrupole moment (field-independent basis, Debye-Ang):
   XX=           -148.1321   YY=           -152.6140   ZZ=           -121.2468
   XY=             23.6268   XZ=            -14.9834   YZ=             -3.8243

 Normal termination of Gaussian 16 at Thu Jun 23 14:34:28 2022.
