 Gaussian 16, Revision C.01,
 Gaussian 16:  ES64L-G16RevC.01  3-Jul-2019

 ----------------------------------------------------------------------
 # B3LYP/6-31G* empiricaldispersion=gd3bj guess=read geom=check nosymm
 integral(ultrafinegrid)
 ----------------------------------------------------------------------

 ------------------------------------------------------
 Candidate Structure: Conf:538 Charge calc in gas phase
 ------------------------------------------------------
 Structure from the checkpoint file:  "conf-538.chk"
 Charge =  1 Multiplicity = 1

                          Input orientation:
 ---------------------------------------------------------------------
 Center     Atomic      Atomic             Coordinates (Angstroms)
 Number     Number       Type             X           Y           Z
 ---------------------------------------------------------------------
      1          7           0       -1.376906    0.210716    4.907740
      2          1           0       -1.935170   -0.269190    5.608261
      3          1           0       -0.608546    0.675187    5.386510
      4          6           0       -0.887335   -0.737443    3.920592
      5          1           0       -1.731935   -1.353787    3.605017
      6          6           0       -0.426042    0.035915    2.703424
      7          6           0        0.262397   -1.665511    4.403371
      8          1           0       -0.127500   -2.219176    5.264771
      9          1           0        1.083800   -1.039135    4.769159
     10          8           0        0.234537    1.128168    2.962822
     11          6           0        0.846310   -2.649246    3.363342
     12          1           0        1.607080   -3.266812    3.844485
     13          1           0        1.326653   -2.092431    2.550606
     14          6           0       -0.203848   -3.541059    2.747470
     15          8           0       -1.106843   -3.149832    2.012985
     16          8           0       -0.076799   -4.823142    3.086706
     17          7           0       -0.680370   -0.426443    1.510609
     18          1           0       -1.102493   -1.367847    1.497224
     19          6           0       -0.214723    0.127790    0.239639
     20          1           0       -0.680862    1.112091    0.110743
     21          6           0        1.313577    0.285274    0.298450
     22          6           0       -0.663533   -0.792996   -0.919118
     23          1           0       -0.243525   -0.376298   -1.841303
     24          1           0       -0.197638   -1.774132   -0.774405
     25          8           0        1.998029   -0.348221    1.096751
     26          6           0       -2.165771   -0.912748   -1.007198
     27          6           0       -2.828271   -2.063722   -0.559753
     28          1           0       -2.255184   -2.901155   -0.173324
     29          6           0       -2.934164    0.145768   -1.505755
     30          1           0       -2.446012    1.045428   -1.875635
     31          6           0       -4.214990   -2.156135   -0.600762
     32          1           0       -4.730159   -3.048084   -0.261115
     33          6           0       -4.322223    0.067270   -1.554654
     34          1           0       -4.902430    0.895835   -1.953826
     35          8           0       -6.319762   -1.235761   -1.114491
     36          1           0       -6.734085   -0.448481   -1.501645
     37          6           0       -4.970098   -1.088484   -1.098643
     38          7           0        1.825136    1.212884   -0.542742
     39          1           0        1.189717    1.801540   -1.066962
     40          6           0        3.168303    1.727265   -0.318498
     41          1           0        3.844856    0.875772   -0.205958
     42          6           0        3.265379    2.514288    0.989355
     43          6           0        3.635925    2.599274   -1.494489
     44          1           0        2.943106    3.445044   -1.616233
     45          1           0        4.603093    3.028086   -1.215464
     46          8           0        4.286943    2.949046    1.444109
     47          6           0        3.766723    1.818565   -2.805103
     48          1           0        2.795999    1.384339   -3.085891
     49          1           0        4.456763    0.979726   -2.649577
     50          6           0        4.292211    2.694023   -3.946060
     51          1           0        3.614288    3.544641   -4.103707
     52          1           0        5.269751    3.101954   -3.661968
     53          6           0        4.452783    1.931008   -5.264877
     54          1           0        3.457234    1.618457   -5.629438
     55          1           0        4.855329    2.620664   -6.014123
     56          7           0        5.401265    0.821006   -5.116545
     57          1           0        5.779976    0.561144   -6.024107
     58          1           0        4.926212   -0.007847   -4.766063
     59          8           0        2.045969    2.743543    1.605563
     60          1           0        0.756470    1.538170    2.230186
     61          1           0        2.254686    3.311132    2.374457
     62          1           0       -0.792745   -5.326121    2.649910
 ---------------------------------------------------------------------

 SCF Done:  E(RB3LYP) =  -1526.32061417     A.U. after    3 cycles

 Alpha  occ. eigenvalues --  -19.35923 -19.33266 -19.32276 -19.27324 -19.26602
 Alpha  occ. eigenvalues --  -19.26355 -19.25977 -14.53729 -14.49921 -14.44043
 Alpha  occ. eigenvalues --  -14.37898 -10.47502 -10.45237 -10.44361 -10.42880
 Alpha  occ. eigenvalues --  -10.38641 -10.36765 -10.36080 -10.34342 -10.32502
 Alpha  occ. eigenvalues --  -10.32490 -10.31821 -10.29808 -10.29421 -10.29231
 Alpha  occ. eigenvalues --  -10.28682 -10.28498 -10.27718 -10.27703 -10.27498
 Alpha  occ. eigenvalues --  -10.25586  -1.26119  -1.23577  -1.23031  -1.18108
 Alpha  occ. eigenvalues --   -1.14878  -1.14393  -1.14289  -1.11362  -1.06722
 Alpha  occ. eigenvalues --   -1.02390  -0.96115  -0.94781  -0.93509  -0.91784
 Alpha  occ. eigenvalues --   -0.90552  -0.86470  -0.85530  -0.84446  -0.83388
 Alpha  occ. eigenvalues --   -0.80919  -0.78994  -0.78220  -0.75951  -0.74903
 Alpha  occ. eigenvalues --   -0.73699  -0.72571  -0.71950  -0.71816  -0.70728
 Alpha  occ. eigenvalues --   -0.69013  -0.66423  -0.65633  -0.65194  -0.64232
 Alpha  occ. eigenvalues --   -0.63902  -0.62621  -0.62183  -0.61699  -0.60882
 Alpha  occ. eigenvalues --   -0.60292  -0.59247  -0.58569  -0.58356  -0.57140
 Alpha  occ. eigenvalues --   -0.56840  -0.56257  -0.55808  -0.55771  -0.55550
 Alpha  occ. eigenvalues --   -0.55455  -0.54687  -0.54502  -0.53901  -0.53255
 Alpha  occ. eigenvalues --   -0.52971  -0.52097  -0.51964  -0.51204  -0.50966
 Alpha  occ. eigenvalues --   -0.50444  -0.50107  -0.49878  -0.49400  -0.48892
 Alpha  occ. eigenvalues --   -0.48116  -0.47669  -0.47173  -0.46529  -0.45865
 Alpha  occ. eigenvalues --   -0.45653  -0.45387  -0.44623  -0.44397  -0.43085
 Alpha  occ. eigenvalues --   -0.42574  -0.42298  -0.42115  -0.41554  -0.40773
 Alpha  occ. eigenvalues --   -0.40420  -0.39531  -0.37971  -0.36279  -0.34840
 Alpha  occ. eigenvalues --   -0.31315  -0.30191
 Alpha virt. eigenvalues --   -0.16514  -0.13010  -0.12345  -0.11441  -0.09994
 Alpha virt. eigenvalues --   -0.08655  -0.06782  -0.04555  -0.03734  -0.03186
 Alpha virt. eigenvalues --   -0.01255  -0.00793  -0.00220  -0.00048   0.00248

 Mulliken charges:
               1
     1  N   -0.701595
     2  H    0.334280
     3  H    0.326054
     4  C   -0.100144
     5  H    0.199285
     6  C    0.675319
     7  C   -0.295969
     8  H    0.183628
     9  H    0.180856
    10  O   -0.587675
    11  C   -0.397679
    12  H    0.206609
    13  H    0.225222
    14  C    0.606469
    15  O   -0.502236
    16  O   -0.524125
    17  N   -0.575298
    18  H    0.441784
    19  C   -0.078364
    20  H    0.191871
    21  C    0.586856
    22  C   -0.407074
    23  H    0.182904
    24  H    0.186705
    25  O   -0.504689
    26  C    0.164545
    27  C   -0.207460
    28  H    0.156423
    29  C   -0.188137
    30  H    0.124071
    31  C   -0.159584
    32  H    0.161613
    33  C   -0.186797
    34  H    0.143090
    35  O   -0.624566
    36  H    0.419510
    37  C    0.359767
    38  N   -0.591804
    39  H    0.346174
    40  C   -0.046226
    41  H    0.226045
    42  C    0.617290
    43  C   -0.307661
    44  H    0.144968
    45  H    0.199859
    46  O   -0.413719
    47  C   -0.269291
    48  H    0.121565
    49  H    0.161736
    50  C   -0.234846
    51  H    0.128008
    52  H    0.157749
    53  C   -0.152481
    54  H    0.116389
    55  H    0.155610
    56  N   -0.715584
    57  H    0.311871
    58  H    0.295215
    59  O   -0.627462
    60  H    0.491504
    61  H    0.438117
    62  H    0.431503
 Sum of Mulliken charges =   1.00000

 Dipole moment (field-independent basis, Debye):
    X=             -1.8506    Y=             -0.3604    Z=              4.2372  Tot=              4.6377
 Quadrupole moment (field-independent basis, Debye-Ang):
   XX=           -165.0609   YY=           -145.3120   ZZ=           -116.0660
   XY=              2.7189   XZ=             -8.9936   YZ=            -19.8315

 Normal termination of Gaussian 16 at Thu Jun 23 14:08:18 2022.
