 Gaussian 16, Revision C.01,
 Gaussian 16:  ES64L-G16RevC.01  3-Jul-2019

 ----------------------------------------------------------------------
 # B3LYP/6-31G* empiricaldispersion=gd3bj guess=read geom=check nosymm
 integral(ultrafinegrid)
 ----------------------------------------------------------------------

 ------------------------------------------------------
 Candidate Structure: Conf:353 Charge calc in gas phase
 ------------------------------------------------------
 Structure from the checkpoint file:  "conf-353.chk"
 Charge =  1 Multiplicity = 1

                          Input orientation:
 ---------------------------------------------------------------------
 Center     Atomic      Atomic             Coordinates (Angstroms)
 Number     Number       Type             X           Y           Z
 ---------------------------------------------------------------------
      1          7           0        0.396345   -4.247207    2.675465
      2          1           0        0.144721   -4.828148    1.876453
      3          1           0        1.406660   -4.130249    2.622083
      4          6           0       -0.243793   -2.944078    2.575755
      5          1           0        0.053970   -2.375346    3.469179
      6          6           0        0.298759   -2.110121    1.398986
      7          6           0       -1.772280   -3.081926    2.630978
      8          1           0       -2.227347   -2.096521    2.770367
      9          1           0       -1.990196   -3.656389    3.533930
     10          8           0        1.463990   -2.247911    1.007035
     11          6           0       -2.417857   -3.789490    1.414897
     12          1           0       -2.945345   -4.699881    1.705474
     13          1           0       -1.658167   -4.105150    0.684428
     14          6           0       -3.372332   -2.899981    0.649784
     15          8           0       -3.231227   -1.693945    0.492901
     16          8           0       -4.393926   -3.575190    0.120030
     17          7           0       -0.482895   -1.136498    0.851614
     18          1           0       -1.502755   -1.180050    0.945254
     19          6           0       -0.008653   -0.504271   -0.376524
     20          1           0       -0.501419    0.471304   -0.458159
     21          6           0        1.454187   -0.194950   -0.202036
     22          6           0       -0.316702   -1.313278   -1.658773
     23          1           0        0.305547   -2.212476   -1.673365
     24          1           0       -1.359720   -1.632475   -1.559047
     25          8           0        2.348386   -0.554923   -1.097912
     26          6           0       -0.134371   -0.488170   -2.911969
     27          6           0       -1.034733    0.547082   -3.206193
     28          1           0       -1.899030    0.706777   -2.564750
     29          6           0        0.952570   -0.680319   -3.769033
     30          1           0        1.666762   -1.472163   -3.566484
     31          6           0       -0.853177    1.377704   -4.304412
     32          1           0       -1.554617    2.172148   -4.535517
     33          6           0        1.153760    0.147034   -4.876040
     34          1           0        2.004349   -0.021604   -5.532307
     35          8           0        0.380792    2.026136   -6.203608
     36          1           0        1.130220    1.752154   -6.756005
     37          6           0        0.248378    1.180778   -5.149074
     38          7           0        1.944194    0.595292    0.719825
     39          1           0        1.398584    0.938316    1.499223
     40          6           0        3.388410    0.770364    0.568783
     41          1           0        3.624808    1.831723    0.448146
     42          6           0        3.611387    0.056803   -0.753072
     43          6           0        4.197384    0.125957    1.707185
     44          1           0        3.912164   -0.930011    1.779126
     45          1           0        5.252560    0.163485    1.413830
     46          8           0        4.571436   -0.099549   -1.422637
     47          6           0        3.990802    0.829223    3.051852
     48          1           0        2.923508    0.818745    3.321545
     49          1           0        4.280126    1.885515    2.962795
     50          6           0        4.786276    0.159475    4.175816
     51          1           0        4.485669   -0.889990    4.279015
     52          1           0        5.853030    0.154305    3.910338
     53          6           0        4.603713    0.848639    5.529519
     54          1           0        4.909807    1.907965    5.440313
     55          1           0        3.536533    0.854297    5.787580
     56          7           0        5.306511    0.097847    6.568730
     57          1           0        5.100274    0.490573    7.484979
     58          1           0        6.313624    0.189399    6.442527
     59          8           0        1.823268    1.986130   -1.931329
     60          1           0        1.675713    2.918543   -2.149332
     61          1           0        1.715112    1.522277   -2.779433
     62          1           0       -4.948731   -2.942751   -0.377406
 ---------------------------------------------------------------------

 SCF Done:  E(RB3LYP) =  -1526.29889401     A.U. after    3 cycles

 Alpha  occ. eigenvalues --  -19.36669 -19.31471 -19.30000 -19.27347 -19.26536
 Alpha  occ. eigenvalues --  -19.25756 -19.25613 -14.54608 -14.48995 -14.41687
 Alpha  occ. eigenvalues --  -14.38315 -10.48660 -10.47223 -10.44483 -10.41413
 Alpha  occ. eigenvalues --  -10.39272 -10.38700 -10.35159 -10.34029 -10.31770
 Alpha  occ. eigenvalues --  -10.31748 -10.31451 -10.30457 -10.29870 -10.29694
 Alpha  occ. eigenvalues --  -10.29474 -10.29434 -10.29128 -10.28746 -10.28542
 Alpha  occ. eigenvalues --  -10.27156  -1.29382  -1.22784  -1.20548  -1.17390
 Alpha  occ. eigenvalues --   -1.15627  -1.13640  -1.11684  -1.11433  -1.05961
 Alpha  occ. eigenvalues --   -0.99829  -0.96282  -0.95555  -0.94924  -0.91560
 Alpha  occ. eigenvalues --   -0.90272  -0.88094  -0.85244  -0.85000  -0.82944
 Alpha  occ. eigenvalues --   -0.81029  -0.80080  -0.78121  -0.76469  -0.75682
 Alpha  occ. eigenvalues --   -0.72823  -0.72261  -0.71746  -0.70431  -0.69500
 Alpha  occ. eigenvalues --   -0.67815  -0.67176  -0.65987  -0.64478  -0.63889
 Alpha  occ. eigenvalues --   -0.63497  -0.62593  -0.62213  -0.61295  -0.60488
 Alpha  occ. eigenvalues --   -0.59900  -0.59048  -0.58676  -0.58033  -0.57762
 Alpha  occ. eigenvalues --   -0.57453  -0.56455  -0.56325  -0.55898  -0.55651
 Alpha  occ. eigenvalues --   -0.54792  -0.53879  -0.53789  -0.53386  -0.52991
 Alpha  occ. eigenvalues --   -0.52659  -0.52484  -0.52184  -0.51414  -0.51027
 Alpha  occ. eigenvalues --   -0.50714  -0.50419  -0.50251  -0.49238  -0.48247
 Alpha  occ. eigenvalues --   -0.47449  -0.47345  -0.47208  -0.46428  -0.46069
 Alpha  occ. eigenvalues --   -0.45628  -0.45064  -0.43865  -0.43746  -0.43586
 Alpha  occ. eigenvalues --   -0.43560  -0.43071  -0.42431  -0.41961  -0.41136
 Alpha  occ. eigenvalues --   -0.40672  -0.39319  -0.38785  -0.35557  -0.34387
 Alpha  occ. eigenvalues --   -0.31965  -0.30625
 Alpha virt. eigenvalues --   -0.18039  -0.12885  -0.12079  -0.10961  -0.10573
 Alpha virt. eigenvalues --   -0.09174  -0.06688  -0.04212  -0.03473  -0.01931
 Alpha virt. eigenvalues --   -0.01732  -0.01414  -0.00908  -0.00585  -0.00169

 Mulliken charges:
               1
     1  N   -0.683574
     2  H    0.307160
     3  H    0.326636
     4  C   -0.091413
     5  H    0.185792
     6  C    0.590978
     7  C   -0.299806
     8  H    0.170446
     9  H    0.203124
    10  O   -0.530034
    11  C   -0.374591
    12  H    0.216037
    13  H    0.185092
    14  C    0.595809
    15  O   -0.490759
    16  O   -0.528291
    17  N   -0.644434
    18  H    0.402167
    19  C   -0.060082
    20  H    0.213872
    21  C    0.760181
    22  C   -0.375716
    23  H    0.186497
    24  H    0.178810
    25  O   -0.458593
    26  C    0.153642
    27  C   -0.186028
    28  H    0.140956
    29  C   -0.198962
    30  H    0.156753
    31  C   -0.164964
    32  H    0.166464
    33  C   -0.222995
    34  H    0.151032
    35  O   -0.622871
    36  H    0.421493
    37  C    0.349084
    38  N   -0.570914
    39  H    0.382082
    40  C   -0.063826
    41  H    0.235140
    42  C    0.645481
    43  C   -0.273848
    44  H    0.186623
    45  H    0.194535
    46  O   -0.370834
    47  C   -0.280140
    48  H    0.119543
    49  H    0.153544
    50  C   -0.252527
    51  H    0.160445
    52  H    0.145262
    53  C   -0.134249
    54  H    0.121198
    55  H    0.137290
    56  N   -0.714840
    57  H    0.309561
    58  H    0.302212
    59  O   -0.826450
    60  H    0.411578
    61  H    0.423060
    62  H    0.431161
 Sum of Mulliken charges =   1.00000

 Dipole moment (field-independent basis, Debye):
    X=              3.0505    Y=              0.4042    Z=              0.5962  Tot=              3.1344
 Quadrupole moment (field-independent basis, Debye-Ang):
   XX=           -134.0204   YY=           -158.0627   ZZ=           -130.9475
   XY=             28.5396   XZ=              9.7807   YZ=              4.3153

 Normal termination of Gaussian 16 at Thu Jun 23 14:08:19 2022.
