 Gaussian 16, Revision C.01,
 Gaussian 16:  ES64L-G16RevC.01  3-Jul-2019

 ----------------------------------------------------------------------
 # B3LYP/6-31G* empiricaldispersion=gd3bj guess=read geom=check nosymm
 integral(ultrafinegrid)
 ----------------------------------------------------------------------

 -----------------------------------------------------
 Candidate Structure: Conf:34 Charge calc in gas phase
 -----------------------------------------------------
 Structure from the checkpoint file:  "conf-34.chk"
 Charge =  1 Multiplicity = 1

                          Input orientation:
 ---------------------------------------------------------------------
 Center     Atomic      Atomic             Coordinates (Angstroms)
 Number     Number       Type             X           Y           Z
 ---------------------------------------------------------------------
      1          7           0        1.198126   -3.229694    3.229255
      2          1           0        1.854660   -3.409117    2.470596
      3          1           0        1.687049   -2.627729    3.888628
      4          6           0        0.024720   -2.560494    2.703585
      5          1           0       -0.552729   -2.179887    3.554339
      6          6           0        0.322820   -1.350222    1.816339
      7          6           0       -0.857669   -3.571134    1.923460
      8          1           0       -0.193230   -4.318245    1.477524
      9          1           0       -1.387485   -3.083010    1.099778
     10          8           0        1.433256   -1.093130    1.344896
     11          6           0       -1.861273   -4.274122    2.833957
     12          1           0       -1.351670   -4.705060    3.702801
     13          1           0       -2.337537   -5.115168    2.315644
     14          6           0       -2.990112   -3.413817    3.363643
     15          8           0       -3.804974   -3.760734    4.178391
     16          8           0       -3.039846   -2.147606    2.812178
     17          7           0       -0.736668   -0.529373    1.561244
     18          1           0       -1.662834   -0.799015    1.880574
     19          6           0       -0.582077    0.493102    0.542461
     20          1           0       -1.374549    1.235391    0.694203
     21          6           0        0.717559    1.229977    0.842869
     22          6           0       -0.691959   -0.114136   -0.878499
     23          1           0        0.052356   -0.912439   -0.955652
     24          1           0       -1.675989   -0.596449   -0.914304
     25          8           0        0.872638    1.584018    2.088683
     26          6           0       -0.533554    0.859564   -2.026054
     27          6           0       -1.323050    2.018582   -2.122476
     28          1           0       -2.102170    2.207788   -1.387789
     29          6           0        0.439614    0.643338   -3.011966
     30          1           0        1.050158   -0.256185   -2.974955
     31          6           0       -1.141330    2.931555   -3.150671
     32          1           0       -1.753680    3.823432   -3.228026
     33          6           0        0.636208    1.554196   -4.051307
     34          1           0        1.392607    1.360756   -4.807881
     35          8           0       -0.024725    3.641095   -5.093969
     36          1           0        0.652736    3.370469   -5.734203
     37          6           0       -0.154646    2.705874   -4.123497
     38          7           0        1.543744    1.604644   -0.103925
     39          1           0        1.260285    1.387155   -1.062490
     40          6           0        2.935664    2.071993    0.070059
     41          1           0        3.367914    1.506338    0.903707
     42          6           0        2.920127    3.559550    0.439645
     43          6           0        3.709183    1.800946   -1.219050
     44          1           0        3.553430    0.747184   -1.480550
     45          1           0        3.276933    2.410192   -2.021664
     46          8           0        3.177129    4.485171   -0.275526
     47          6           0        5.209875    2.083037   -1.095581
     48          1           0        5.626473    1.495200   -0.265644
     49          1           0        5.365082    3.139974   -0.850623
     50          6           0        5.952566    1.748177   -2.392312
     51          1           0        5.817608    0.681727   -2.626098
     52          1           0        5.522236    2.309265   -3.230646
     53          6           0        7.447386    2.065190   -2.323229
     54          1           0        7.574732    3.137669   -2.130690
     55          1           0        7.891873    1.536276   -1.459324
     56          7           0        8.080208    1.764504   -3.607706
     57          1           0        8.147695    0.755452   -3.733473
     58          1           0        9.036308    2.113767   -3.616554
     59          8           0        2.528666    3.700654    1.746695
     60          1           0        1.567745    2.277397    2.205837
     61          1           0        2.477907    4.652868    1.964501
     62          1           0       -3.820044   -1.730425    3.226857
 ---------------------------------------------------------------------

 SCF Done:  E(RB3LYP) =  -1526.30534734     A.U. after    1 cycles

 Alpha  occ. eigenvalues --  -19.35893 -19.35541 -19.29988 -19.29158 -19.28294
 Alpha  occ. eigenvalues --  -19.24888 -19.23160 -14.54435 -14.48736 -14.41290
 Alpha  occ. eigenvalues --  -14.38027 -10.48952 -10.47022 -10.41552 -10.40592
 Alpha  occ. eigenvalues --  -10.39456 -10.39248 -10.36328 -10.33056 -10.32504
 Alpha  occ. eigenvalues --  -10.31593 -10.31399 -10.31137 -10.30891 -10.30404
 Alpha  occ. eigenvalues --  -10.29849 -10.29419 -10.29380 -10.28842 -10.28241
 Alpha  occ. eigenvalues --  -10.26707  -1.26937  -1.25300  -1.19978  -1.17090
 Alpha  occ. eigenvalues --   -1.16666  -1.16588  -1.11998  -1.10989  -1.05845
 Alpha  occ. eigenvalues --   -0.99260  -0.97489  -0.95437  -0.94868  -0.91530
 Alpha  occ. eigenvalues --   -0.89164  -0.87953  -0.86662  -0.86200  -0.81805
 Alpha  occ. eigenvalues --   -0.81353  -0.80936  -0.77306  -0.76330  -0.74825
 Alpha  occ. eigenvalues --   -0.74125  -0.72659  -0.71372  -0.70782  -0.70499
 Alpha  occ. eigenvalues --   -0.69405  -0.67772  -0.66975  -0.65975  -0.65646
 Alpha  occ. eigenvalues --   -0.64926  -0.63428  -0.61651  -0.60440  -0.59976
 Alpha  occ. eigenvalues --   -0.59129  -0.59046  -0.58063  -0.57860  -0.57581
 Alpha  occ. eigenvalues --   -0.56997  -0.56684  -0.56329  -0.56143  -0.55775
 Alpha  occ. eigenvalues --   -0.55339  -0.54725  -0.54250  -0.53603  -0.53432
 Alpha  occ. eigenvalues --   -0.53016  -0.52688  -0.52057  -0.51590  -0.51196
 Alpha  occ. eigenvalues --   -0.50780  -0.50290  -0.50006  -0.49272  -0.48481
 Alpha  occ. eigenvalues --   -0.48073  -0.47676  -0.47602  -0.46930  -0.46752
 Alpha  occ. eigenvalues --   -0.45932  -0.45222  -0.44888  -0.44372  -0.44103
 Alpha  occ. eigenvalues --   -0.43774  -0.42628  -0.41856  -0.41551  -0.41245
 Alpha  occ. eigenvalues --   -0.38955  -0.38398  -0.37003  -0.36637  -0.33957
 Alpha  occ. eigenvalues --   -0.33212  -0.30334
 Alpha virt. eigenvalues --   -0.17183  -0.14565  -0.12399  -0.11192  -0.10040
 Alpha virt. eigenvalues --   -0.08342  -0.06918  -0.04144  -0.03114  -0.02724
 Alpha virt. eigenvalues --   -0.02370  -0.01325  -0.01135  -0.00876  -0.00134

 Mulliken charges:
               1
     1  N   -0.688793
     2  H    0.315941
     3  H    0.314783
     4  C   -0.086875
     5  H    0.172247
     6  C    0.596420
     7  C   -0.267553
     8  H    0.173147
     9  H    0.151030
    10  O   -0.542272
    11  C   -0.370406
    12  H    0.220971
    13  H    0.205345
    14  C    0.587648
    15  O   -0.425714
    16  O   -0.607291
    17  N   -0.598926
    18  H    0.377892
    19  C   -0.036590
    20  H    0.203182
    21  C    0.661449
    22  C   -0.363216
    23  H    0.188828
    24  H    0.189694
    25  O   -0.556031
    26  C    0.085411
    27  C   -0.181224
    28  H    0.143092
    29  C   -0.228383
    30  H    0.156929
    31  C   -0.149452
    32  H    0.174785
    33  C   -0.180633
    34  H    0.154529
    35  O   -0.617131
    36  H    0.424216
    37  C    0.360128
    38  N   -0.606411
    39  H    0.407811
    40  C   -0.077330
    41  H    0.218631
    42  C    0.633909
    43  C   -0.307399
    44  H    0.166901
    45  H    0.180232
    46  O   -0.394454
    47  C   -0.285897
    48  H    0.145380
    49  H    0.168386
    50  C   -0.249344
    51  H    0.131080
    52  H    0.156596
    53  C   -0.138334
    54  H    0.148165
    55  H    0.118974
    56  N   -0.716000
    57  H    0.298227
    58  H    0.309836
    59  O   -0.614019
    60  H    0.476410
    61  H    0.450681
    62  H    0.420793
 Sum of Mulliken charges =   1.00000

 Dipole moment (field-independent basis, Debye):
    X=              6.1392    Y=              5.6052    Z=             -0.0812  Tot=              8.3135
 Quadrupole moment (field-independent basis, Debye-Ang):
   XX=           -129.8915   YY=           -156.5305   ZZ=           -156.2063
   XY=              9.3644   XZ=             -2.6995   YZ=             11.9619

 Normal termination of Gaussian 16 at Thu Jun 23 14:07:57 2022.
