 Gaussian 16, Revision C.01,
 Gaussian 16:  ES64L-G16RevC.01  3-Jul-2019

 ----------------------------------------------------------------------
 # B3LYP/6-31G* empiricaldispersion=gd3bj guess=read geom=check nosymm
 integral(ultrafinegrid)
 ----------------------------------------------------------------------

 ------------------------------------------------------
 Candidate Structure: Conf:962 Charge calc in gas phase
 ------------------------------------------------------
 Structure from the checkpoint file:  "conf-962.chk"
 Charge =  1 Multiplicity = 1

                          Input orientation:
 ---------------------------------------------------------------------
 Center     Atomic      Atomic             Coordinates (Angstroms)
 Number     Number       Type             X           Y           Z
 ---------------------------------------------------------------------
      1          7           0       -3.019382   -2.695050    1.969580
      2          1           0       -3.110866   -2.028529    2.729938
      3          1           0       -3.675819   -2.496015    1.222959
      4          6           0       -1.653697   -2.932185    1.543272
      5          1           0       -1.659842   -3.768975    0.833656
      6          6           0       -0.938969   -1.788933    0.814459
      7          6           0       -0.775532   -3.317481    2.749043
      8          1           0       -0.776068   -2.492827    3.472935
      9          1           0        0.257131   -3.426459    2.407925
     10          8           0        0.167546   -1.921568    0.286410
     11          6           0       -1.245987   -4.595544    3.436972
     12          1           0       -1.121148   -5.470818    2.788832
     13          1           0       -2.316645   -4.542834    3.666039
     14          6           0       -0.493656   -4.834424    4.727035
     15          8           0        0.253653   -4.042122    5.259891
     16          8           0       -0.765027   -6.053801    5.239078
     17          7           0       -1.534732   -0.563131    0.820564
     18          1           0       -2.421921   -0.427870    1.282336
     19          6           0       -0.838906    0.536965    0.183458
     20          1           0       -1.252914    1.469252    0.586700
     21          6           0        0.608455    0.516201    0.675178
     22          6           0       -1.047326    0.489326   -1.354171
     23          1           0       -0.793511   -0.522901   -1.678733
     24          1           0       -2.127506    0.607586   -1.500032
     25          8           0        0.739694    0.315436    1.957103
     26          6           0       -0.284192    1.494402   -2.194416
     27          6           0       -0.284209    2.872228   -1.910186
     28          1           0       -0.879329    3.258032   -1.085920
     29          6           0        0.484535    1.048482   -3.278954
     30          1           0        0.499375   -0.010046   -3.524918
     31          6           0        0.473346    3.764077   -2.658291
     32          1           0        0.481087    4.824367   -2.430974
     33          6           0        1.235774    1.934793   -4.050234
     34          1           0        1.818217    1.564735   -4.890238
     35          8           0        1.970831    4.212958   -4.426358
     36          1           0        2.372580    3.794045   -5.204669
     37          6           0        1.239514    3.296250   -3.735245
     38          7           0        1.595610    0.862496   -0.107776
     39          1           0        1.333047    1.060592   -1.076076
     40          6           0        3.047536    0.967371    0.166015
     41          1           0        3.403654   -0.005310    0.522573
     42          6           0        3.271345    2.010548    1.269162
     43          6           0        3.705406    1.366743   -1.155871
     44          1           0        3.481905    0.570155   -1.877100
     45          1           0        3.233355    2.291521   -1.503459
     46          8           0        3.481587    3.180311    1.125522
     47          6           0        5.212197    1.613788   -1.078672
     48          1           0        5.720781    0.771734   -0.590606
     49          1           0        5.380904    2.502970   -0.466328
     50          6           0        5.828833    1.837584   -2.471158
     51          1           0        6.849474    2.217499   -2.337941
     52          1           0        5.925743    0.880597   -3.000194
     53          6           0        5.032098    2.801147   -3.363728
     54          1           0        5.618491    2.992793   -4.278823
     55          1           0        4.109025    2.303870   -3.689015
     56          7           0        4.631919    4.005680   -2.634375
     57          1           0        4.011464    4.572682   -3.208190
     58          1           0        5.446557    4.577292   -2.417460
     59          8           0        3.154860    1.410466    2.500616
     60          1           0        1.656608    0.468183    2.296257
     61          1           0        3.275726    2.094661    3.189984
     62          1           0       -0.262248   -6.126352    6.072573
 ---------------------------------------------------------------------

 SCF Done:  E(RB3LYP) =  -1526.30722504     A.U. after    1 cycles

 Alpha  occ. eigenvalues --  -19.35727 -19.34946 -19.29192 -19.28648 -19.26230
 Alpha  occ. eigenvalues --  -19.23994 -19.20779 -14.54145 -14.49296 -14.42809
 Alpha  occ. eigenvalues --  -14.39303 -10.48626 -10.46479 -10.40345 -10.39416
 Alpha  occ. eigenvalues --  -10.39023 -10.38852 -10.36660 -10.33171 -10.32378
 Alpha  occ. eigenvalues --  -10.31532 -10.31183 -10.31161 -10.30596 -10.30234
 Alpha  occ. eigenvalues --  -10.30158 -10.29387 -10.28102 -10.27915 -10.27568
 Alpha  occ. eigenvalues --  -10.27033  -1.26644  -1.24771  -1.17288  -1.17234
 Alpha  occ. eigenvalues --   -1.16553  -1.16165  -1.11784  -1.08272  -1.05928
 Alpha  occ. eigenvalues --   -1.00100  -0.97605  -0.96410  -0.94677  -0.91017
 Alpha  occ. eigenvalues --   -0.87859  -0.87582  -0.86655  -0.86058  -0.81757
 Alpha  occ. eigenvalues --   -0.81130  -0.81010  -0.77625  -0.76439  -0.74108
 Alpha  occ. eigenvalues --   -0.73910  -0.72368  -0.72122  -0.71377  -0.70487
 Alpha  occ. eigenvalues --   -0.67229  -0.66221  -0.66113  -0.65713  -0.65613
 Alpha  occ. eigenvalues --   -0.64774  -0.62657  -0.61562  -0.60985  -0.59570
 Alpha  occ. eigenvalues --   -0.59224  -0.58763  -0.58344  -0.57675  -0.57586
 Alpha  occ. eigenvalues --   -0.56847  -0.56591  -0.55584  -0.55381  -0.55094
 Alpha  occ. eigenvalues --   -0.54829  -0.54628  -0.54368  -0.53802  -0.53101
 Alpha  occ. eigenvalues --   -0.52867  -0.52313  -0.51994  -0.51626  -0.50989
 Alpha  occ. eigenvalues --   -0.50574  -0.49734  -0.48717  -0.48354  -0.47868
 Alpha  occ. eigenvalues --   -0.47474  -0.47232  -0.46696  -0.46468  -0.46058
 Alpha  occ. eigenvalues --   -0.45235  -0.45130  -0.44278  -0.43900  -0.43476
 Alpha  occ. eigenvalues --   -0.43182  -0.42265  -0.41820  -0.41126  -0.39502
 Alpha  occ. eigenvalues --   -0.38763  -0.38560  -0.37105  -0.34489  -0.33730
 Alpha  occ. eigenvalues --   -0.33607  -0.31706
 Alpha virt. eigenvalues --   -0.16557  -0.14325  -0.12449  -0.11389  -0.09578
 Alpha virt. eigenvalues --   -0.06557  -0.05833  -0.05089  -0.04290  -0.03300
 Alpha virt. eigenvalues --   -0.02027  -0.01151  -0.00862   0.00069   0.00870

 Mulliken charges:
               1
     1  N   -0.731589
     2  H    0.312977
     3  H    0.321657
     4  C   -0.060616
     5  H    0.185791
     6  C    0.629607
     7  C   -0.274938
     8  H    0.156838
     9  H    0.182024
    10  O   -0.540477
    11  C   -0.358456
    12  H    0.185122
    13  H    0.207980
    14  C    0.583076
    15  O   -0.466586
    16  O   -0.560164
    17  N   -0.595506
    18  H    0.331613
    19  C   -0.038984
    20  H    0.203430
    21  C    0.666604
    22  C   -0.344612
    23  H    0.198192
    24  H    0.187914
    25  O   -0.562067
    26  C    0.045943
    27  C   -0.178229
    28  H    0.144261
    29  C   -0.198711
    30  H    0.162322
    31  C   -0.143597
    32  H    0.176658
    33  C   -0.179177
    34  H    0.154966
    35  O   -0.632838
    36  H    0.425393
    37  C    0.368092
    38  N   -0.616468
    39  H    0.414182
    40  C   -0.047644
    41  H    0.219674
    42  C    0.595330
    43  C   -0.327324
    44  H    0.159231
    45  H    0.211971
    46  O   -0.385440
    47  C   -0.268139
    48  H    0.141496
    49  H    0.179401
    50  C   -0.275505
    51  H    0.154793
    52  H    0.144829
    53  C   -0.153652
    54  H    0.135590
    55  H    0.120726
    56  N   -0.734100
    57  H    0.320173
    58  H    0.307529
    59  O   -0.601532
    60  H    0.475983
    61  H    0.447129
    62  H    0.417852
 Sum of Mulliken charges =   1.00000

 Dipole moment (field-independent basis, Debye):
    X=              4.0187    Y=              4.1039    Z=             -1.5333  Tot=              5.9450
 Quadrupole moment (field-independent basis, Debye-Ang):
   XX=           -130.5358   YY=           -155.7687   ZZ=           -131.1896
   XY=             19.9710   XZ=            -18.6031   YZ=            -18.6687

 Normal termination of Gaussian 16 at Thu Jun 23 14:34:06 2022.
