 Gaussian 16, Revision C.01,
 Gaussian 16:  ES64L-G16RevC.01  3-Jul-2019

 ----------------------------------------------------------------------
 # B3LYP/6-31G* empiricaldispersion=gd3bj guess=read geom=check nosymm
 integral(ultrafinegrid)
 ----------------------------------------------------------------------

 ------------------------------------------------------
 Candidate Structure: Conf:472 Charge calc in gas phase
 ------------------------------------------------------
 Structure from the checkpoint file:  "conf-472.chk"
 Charge =  1 Multiplicity = 1

                          Input orientation:
 ---------------------------------------------------------------------
 Center     Atomic      Atomic             Coordinates (Angstroms)
 Number     Number       Type             X           Y           Z
 ---------------------------------------------------------------------
      1          7           0        0.205557   -1.300110    4.036320
      2          1           0        0.802246   -2.117134    3.913278
      3          1           0        0.831049   -0.508986    4.173883
      4          6           0       -0.608794   -1.116239    2.851032
      5          1           0       -1.135657   -0.156522    2.939756
      6          6           0        0.205477   -1.099799    1.550765
      7          6           0       -1.650036   -2.244419    2.721914
      8          1           0       -1.122061   -3.195115    2.578365
      9          1           0       -2.250681   -2.097607    1.820534
     10          8           0        1.339189   -1.574983    1.465083
     11          6           0       -2.576696   -2.360064    3.926645
     12          1           0       -3.135102   -1.430473    4.096060
     13          1           0       -2.012552   -2.539673    4.846868
     14          6           0       -3.573393   -3.480071    3.719699
     15          8           0       -3.637794   -4.184916    2.733042
     16          8           0       -4.401211   -3.610208    4.774221
     17          7           0       -0.364930   -0.510316    0.444410
     18          1           0       -1.367740   -0.359633    0.445998
     19          6           0        0.210638   -0.833122   -0.865370
     20          1           0       -0.167010   -0.082242   -1.569749
     21          6           0        1.706327   -0.607907   -0.745427
     22          6           0       -0.166001   -2.236288   -1.384577
     23          1           0        0.289142   -2.368361   -2.372405
     24          1           0        0.273965   -2.986578   -0.722216
     25          8           0        2.491954   -1.501579   -1.264437
     26          6           0       -1.668834   -2.387230   -1.442385
     27          6           0       -2.344427   -3.202190   -0.523964
     28          1           0       -1.782201   -3.782072    0.201489
     29          6           0       -2.429641   -1.675820   -2.378258
     30          1           0       -1.936575   -1.052376   -3.121873
     31          6           0       -3.731569   -3.296523   -0.516773
     32          1           0       -4.239398   -3.916611    0.212991
     33          6           0       -3.819776   -1.764630   -2.392046
     34          1           0       -4.393431   -1.212702   -3.133123
     35          8           0       -5.829263   -2.696567   -1.405629
     36          1           0       -6.232952   -2.189315   -2.127429
     37          6           0       -4.476805   -2.573909   -1.455860
     38          7           0        2.140806    0.541434   -0.271752
     39          1           0        1.432156    1.118111    0.173481
     40          6           0        3.544954    0.961728   -0.101518
     41          1           0        4.061900    0.757973   -1.043975
     42          6           0        4.168409    0.094563    1.001270
     43          6           0        3.611635    2.450834    0.236255
     44          1           0        3.195809    2.600577    1.239389
     45          1           0        4.673747    2.709138    0.307561
     46          8           0        4.315165    0.392809    2.151488
     47          6           0        2.919537    3.356132   -0.792784
     48          1           0        3.085122    4.394130   -0.481575
     49          1           0        1.829782    3.210709   -0.756569
     50          6           0        3.405885    3.159548   -2.231136
     51          1           0        4.501730    3.249592   -2.264231
     52          1           0        3.164146    2.152294   -2.594717
     53          6           0        2.784750    4.155865   -3.212423
     54          1           0        1.691095    4.091989   -3.141001
     55          1           0        3.058400    5.181794   -2.906757
     56          7           0        3.161000    3.805978   -4.582421
     57          1           0        4.149254    4.006629   -4.731485
     58          1           0        2.655537    4.393460   -5.242810
     59          8           0        4.514784   -1.120583    0.473950
     60          1           0        3.407314   -1.462117   -0.887594
     61          1           0        4.812636   -1.709856    1.195960
     62          1           0       -5.009782   -4.345596    4.569251
 ---------------------------------------------------------------------

 SCF Done:  E(RB3LYP) =  -1526.30658940     A.U. after    1 cycles

 Alpha  occ. eigenvalues --  -19.36814 -19.35533 -19.29224 -19.27134 -19.26688
 Alpha  occ. eigenvalues --  -19.26058 -19.21853 -14.55657 -14.50593 -14.42002
 Alpha  occ. eigenvalues --  -14.39558 -10.49759 -10.47154 -10.42260 -10.40027
 Alpha  occ. eigenvalues --  -10.39947 -10.39226 -10.34088 -10.33756 -10.32388
 Alpha  occ. eigenvalues --  -10.31144 -10.30458 -10.29903 -10.29117 -10.28864
 Alpha  occ. eigenvalues --  -10.28750 -10.28601 -10.28465 -10.28036 -10.28034
 Alpha  occ. eigenvalues --  -10.26865  -1.27759  -1.25395  -1.18458  -1.18213
 Alpha  occ. eigenvalues --   -1.17176  -1.14308  -1.13036  -1.09237  -1.06923
 Alpha  occ. eigenvalues --   -1.00033  -0.96782  -0.95901  -0.94932  -0.91674
 Alpha  occ. eigenvalues --   -0.88721  -0.88501  -0.85259  -0.83842  -0.82478
 Alpha  occ. eigenvalues --   -0.82294  -0.80123  -0.77795  -0.76507  -0.75219
 Alpha  occ. eigenvalues --   -0.74149  -0.72800  -0.71894  -0.71091  -0.69129
 Alpha  occ. eigenvalues --   -0.68073  -0.67123  -0.66979  -0.65988  -0.64801
 Alpha  occ. eigenvalues --   -0.63581  -0.63226  -0.62293  -0.61087  -0.60136
 Alpha  occ. eigenvalues --   -0.59440  -0.59043  -0.58406  -0.57452  -0.57282
 Alpha  occ. eigenvalues --   -0.57015  -0.56421  -0.56214  -0.56032  -0.55760
 Alpha  occ. eigenvalues --   -0.55256  -0.55004  -0.54629  -0.53393  -0.53018
 Alpha  occ. eigenvalues --   -0.52515  -0.52373  -0.52281  -0.51709  -0.51038
 Alpha  occ. eigenvalues --   -0.49762  -0.49579  -0.49125  -0.48883  -0.48132
 Alpha  occ. eigenvalues --   -0.47494  -0.47154  -0.46862  -0.46587  -0.46283
 Alpha  occ. eigenvalues --   -0.45202  -0.44853  -0.44752  -0.44222  -0.44057
 Alpha  occ. eigenvalues --   -0.43420  -0.42500  -0.42203  -0.41971  -0.40933
 Alpha  occ. eigenvalues --   -0.39543  -0.39450  -0.35637  -0.34619  -0.34222
 Alpha  occ. eigenvalues --   -0.31960  -0.30827
 Alpha virt. eigenvalues --   -0.18192  -0.14494  -0.12210  -0.09524  -0.08388
 Alpha virt. eigenvalues --   -0.07580  -0.06783  -0.06294  -0.03543  -0.03258
 Alpha virt. eigenvalues --   -0.01923  -0.01434  -0.00788  -0.00768  -0.00189

 Mulliken charges:
               1
     1  N   -0.682107
     2  H    0.318196
     3  H    0.314743
     4  C   -0.090388
     5  H    0.158942
     6  C    0.598901
     7  C   -0.283640
     8  H    0.167232
     9  H    0.166970
    10  O   -0.526924
    11  C   -0.351526
    12  H    0.182165
    13  H    0.216804
    14  C    0.589123
    15  O   -0.467421
    16  O   -0.557015
    17  N   -0.614200
    18  H    0.364314
    19  C   -0.062911
    20  H    0.209012
    21  C    0.655718
    22  C   -0.353102
    23  H    0.184245
    24  H    0.186530
    25  O   -0.559575
    26  C    0.144005
    27  C   -0.217222
    28  H    0.153974
    29  C   -0.202468
    30  H    0.131103
    31  C   -0.162735
    32  H    0.190157
    33  C   -0.189374
    34  H    0.140507
    35  O   -0.624952
    36  H    0.417410
    37  C    0.355891
    38  N   -0.536494
    39  H    0.384144
    40  C   -0.094249
    41  H    0.216610
    42  C    0.642595
    43  C   -0.311111
    44  H    0.182064
    45  H    0.191667
    46  O   -0.398923
    47  C   -0.279338
    48  H    0.176742
    49  H    0.126005
    50  C   -0.260271
    51  H    0.144436
    52  H    0.137531
    53  C   -0.135695
    54  H    0.138496
    55  H    0.133040
    56  N   -0.720327
    57  H    0.303586
    58  H    0.312413
    59  O   -0.610493
    60  H    0.482643
    61  H    0.453404
    62  H    0.421142
 Sum of Mulliken charges =   1.00000

 Dipole moment (field-independent basis, Debye):
    X=              5.3119    Y=              2.0491    Z=             -1.7736  Tot=              5.9633
 Quadrupole moment (field-independent basis, Debye-Ang):
   XX=           -113.1423   YY=           -153.0967   ZZ=           -160.3336
   XY=             12.4298   XZ=             -4.7139   YZ=            -20.4167

 Normal termination of Gaussian 16 at Thu Jun 23 14:08:00 2022.
