 Gaussian 16, Revision C.01,
 Gaussian 16:  ES64L-G16RevC.01  3-Jul-2019

 -------------------------------------------------------------------
 # B3LYP/6-31G* guess=read geom=check nosymm integral(ultrafinegrid)
 -------------------------------------------------------------------

 ------------------------------------------------------
 Candidate Structure: Conf:446 Charge calc in gas phase
 ------------------------------------------------------
 Structure from the checkpoint file:  "conf-446.chk"
 Charge =  1 Multiplicity = 1

                          Input orientation:
 ---------------------------------------------------------------------
 Center     Atomic      Atomic             Coordinates (Angstroms)
 Number     Number       Type             X           Y           Z
 ---------------------------------------------------------------------
      1          7           0        0.677652   -1.670003    3.215922
      2          1           0        1.560106   -0.173592    3.148230
      3          1           0        0.525194   -2.085562    4.133124
      4          1           0        1.266465   -2.310214    2.679790
      5          6           0       -0.604720   -1.499112    2.498240
      6          1           0       -1.187375   -0.752003    3.051486
      7          6           0       -0.252255   -0.957424    1.102182
      8          6           0       -1.442750   -2.788112    2.344504
      9          1           0       -0.846860   -3.534737    1.807495
     10          1           0       -2.315697   -2.562922    1.717596
     11          8           0        0.665465   -1.446948    0.450802
     12          6           0       -1.926927   -3.364216    3.688521
     13          1           0       -2.524872   -2.630174    4.235933
     14          1           0       -1.071669   -3.654570    4.310745
     15          6           0       -2.797668   -4.590196    3.487191
     16          8           0       -3.986182   -4.648079    3.695588
     17          8           0       -2.073008   -5.633229    3.012258
     18          7           0       -0.974523    0.117894    0.661174
     19          1           0       -1.809577    0.377979    1.168782
     20          6           0       -0.785699    0.702902   -0.672235
     21          1           0       -1.384366    1.622817   -0.673079
     22          6           0        0.691265    1.127845   -0.883551
     23          6           0       -1.286936   -0.199786   -1.825845
     24          1           0       -1.112108    0.342742   -2.760217
     25          1           0       -0.661082   -1.095746   -1.856597
     26          8           0        1.167823    1.162700   -2.031107
     27          6           0       -2.745711   -0.572627   -1.677423
     28          6           0       -3.123152   -1.854340   -1.249126
     29          1           0       -2.354456   -2.599790   -1.057794
     30          6           0       -3.763747    0.351427   -1.945258
     31          1           0       -3.510562    1.349783   -2.298496
     32          6           0       -4.460303   -2.204574   -1.085407
     33          1           0       -4.748814   -3.200574   -0.765058
     34          6           0       -5.108454    0.019464   -1.784926
     35          1           0       -5.881813    0.752214   -2.006937
     36          8           0       -6.753170   -1.659935   -1.175024
     37          1           0       -7.353781   -0.935733   -1.411545
     38          6           0       -5.462665   -1.263914   -1.351476
     39          7           0        1.346930    1.493537    0.246434
     40          1           0        0.795167    1.392560    1.093792
     41          6           0        2.771130    1.227795    0.529095
     42          1           0        3.099307    0.448147   -0.167972
     43          6           0        2.893768    0.557172    1.910019
     44          6           0        3.696214    2.450119    0.309760
     45          1           0        3.483416    3.247892    1.029903
     46          1           0        4.731898    2.125232    0.455436
     47          8           0        3.884970   -0.056397    2.224411
     48          6           0        3.401392    2.873643   -1.127838
     49          1           0        2.372878    3.255558   -1.126511
     50          1           0        3.366364    1.928696   -1.674868
     51          6           0        4.244530    3.822693   -1.974967
     52          1           0        4.415540    4.794974   -1.499005
     53          1           0        5.230140    3.398788   -2.202701
     54          6           0        3.453347    4.086853   -3.268771
     55          1           0        2.613327    4.760506   -3.083022
     56          1           0        4.063126    4.496295   -4.077130
     57          7           0        2.811708    2.804617   -3.818445
     58          1           0        2.259304    3.007753   -4.657929
     59          1           0        2.183782    2.317780   -3.126091
     60          1           0        3.526525    2.119136   -4.087503
     61          8           0        1.782751    0.689963    2.654021
     62          1           0       -2.695376   -6.377030    2.899344
 ---------------------------------------------------------------------

 SCF Done:  E(RB3LYP) =  -1526.20052918     A.U. after    1 cycles

 Alpha  occ. eigenvalues --  -19.26585 -19.25935 -19.24941 -19.24500 -19.22586
 Alpha  occ. eigenvalues --  -19.21968 -19.20882 -14.60800 -14.47477 -14.46249
 Alpha  occ. eigenvalues --  -14.44364 -10.41082 -10.40427 -10.40173 -10.39600
 Alpha  occ. eigenvalues --  -10.39251 -10.34760 -10.34041 -10.33567 -10.33322
 Alpha  occ. eigenvalues --  -10.32510 -10.30917 -10.30078 -10.29026 -10.28645
 Alpha  occ. eigenvalues --  -10.28099 -10.27231 -10.27126 -10.26844 -10.26730
 Alpha  occ. eigenvalues --  -10.26031  -1.17529  -1.17393  -1.15505  -1.14862
 Alpha  occ. eigenvalues --   -1.14305  -1.13114  -1.09335  -1.08481  -1.04388
 Alpha  occ. eigenvalues --   -1.02544  -1.00458  -0.94411  -0.93223  -0.89921
 Alpha  occ. eigenvalues --   -0.88617  -0.87554  -0.83805  -0.82490  -0.82383
 Alpha  occ. eigenvalues --   -0.80328  -0.77922  -0.74998  -0.74174  -0.73294
 Alpha  occ. eigenvalues --   -0.72381  -0.70350  -0.70223  -0.69722  -0.69103
 Alpha  occ. eigenvalues --   -0.67879  -0.67729  -0.66138  -0.64377  -0.63954
 Alpha  occ. eigenvalues --   -0.62537  -0.61999  -0.61723  -0.60802  -0.58910
 Alpha  occ. eigenvalues --   -0.57721  -0.57272  -0.56740  -0.56396  -0.55827
 Alpha  occ. eigenvalues --   -0.55633  -0.55121  -0.54527  -0.54380  -0.54347
 Alpha  occ. eigenvalues --   -0.53856  -0.53314  -0.52527  -0.52165  -0.51551
 Alpha  occ. eigenvalues --   -0.51118  -0.50954  -0.50347  -0.49982  -0.49724
 Alpha  occ. eigenvalues --   -0.49231  -0.48131  -0.47909  -0.47663  -0.47387
 Alpha  occ. eigenvalues --   -0.46703  -0.46125  -0.45744  -0.45395  -0.45081
 Alpha  occ. eigenvalues --   -0.44762  -0.44311  -0.44157  -0.43140  -0.41269
 Alpha  occ. eigenvalues --   -0.40492  -0.39841  -0.38875  -0.38728  -0.38014
 Alpha  occ. eigenvalues --   -0.37285  -0.36164  -0.35964  -0.34646  -0.34188
 Alpha  occ. eigenvalues --   -0.32977  -0.29354
 Alpha virt. eigenvalues --   -0.11846  -0.10838  -0.09291  -0.08199  -0.07691
 Alpha virt. eigenvalues --   -0.06705  -0.06164  -0.05894  -0.04148  -0.03090
 Alpha virt. eigenvalues --   -0.02424  -0.01419  -0.00746  -0.00293   0.00165

 Mulliken charges:
               1
     1  N   -0.775651
     2  H    0.462923
     3  H    0.342415
     4  H    0.353765
     5  C   -0.066834
     6  H    0.155861
     7  C    0.636576
     8  C   -0.291371
     9  H    0.186155
    10  H    0.170386
    11  O   -0.529784
    12  C   -0.342719
    13  H    0.180709
    14  H    0.166210
    15  C    0.562879
    16  O   -0.437731
    17  O   -0.560123
    18  N   -0.632835
    19  H    0.351013
    20  C   -0.057571
    21  H    0.178849
    22  C    0.649306
    23  C   -0.350780
    24  H    0.159059
    25  H    0.185934
    26  O   -0.580784
    27  C    0.161421
    28  C   -0.207129
    29  H    0.139968
    30  C   -0.197920
    31  H    0.120981
    32  C   -0.159564
    33  H    0.158094
    34  C   -0.189482
    35  H    0.133823
    36  O   -0.628944
    37  H    0.415545
    38  C    0.354866
    39  N   -0.606237
    40  H    0.379299
    41  C   -0.072181
    42  H    0.203204
    43  C    0.600057
    44  C   -0.264168
    45  H    0.168610
    46  H    0.182813
    47  O   -0.444081
    48  C   -0.292680
    49  H    0.158515
    50  H    0.138627
    51  C   -0.280513
    52  H    0.196599
    53  H    0.177289
    54  C   -0.196418
    55  H    0.218842
    56  H    0.215728
    57  N   -0.775089
    58  H    0.415232
    59  H    0.459148
    60  H    0.413934
    61  O   -0.634801
    62  H    0.420762
 Sum of Mulliken charges =   1.00000

 Dipole moment (field-independent basis, Debye):
    X=              5.5010    Y=             10.9808    Z=            -10.2213  Tot=             15.9786
 Quadrupole moment (field-independent basis, Debye-Ang):
   XX=           -135.2697   YY=           -121.6078   ZZ=           -117.6397
   XY=             30.2054   XZ=            -36.2961   YZ=            -51.9582

 Normal termination of Gaussian 16 at Tue May 24 03:12:57 2022.
