 Gaussian 16, Revision C.01,
 Gaussian 16:  ES64L-G16RevC.01  3-Jul-2019

 -------------------------------------------------------------------
 # B3LYP/6-31G* guess=read geom=check nosymm integral(ultrafinegrid)
 -------------------------------------------------------------------

 ------------------------------------------------------
 Candidate Structure: Conf:222 Charge calc in gas phase
 ------------------------------------------------------
 Structure from the checkpoint file:  "conf-222.chk"
 Charge =  1 Multiplicity = 1

                          Input orientation:
 ---------------------------------------------------------------------
 Center     Atomic      Atomic             Coordinates (Angstroms)
 Number     Number       Type             X           Y           Z
 ---------------------------------------------------------------------
      1          7           0       -1.841310   -2.864862    2.450365
      2          1           0       -1.670622   -3.234886    1.495839
      3          1           0       -2.239583   -3.597338    3.045202
      4          1           0       -2.497676   -2.063371    2.335709
      5          6           0       -0.591129   -2.228963    3.031244
      6          1           0        0.246578   -2.894144    2.807144
      7          6           0       -0.527208   -0.907966    2.224436
      8          6           0       -0.775131   -2.026567    4.539946
      9          1           0       -1.003366   -2.989322    5.011676
     10          1           0       -1.633659   -1.363337    4.704391
     11          8           0       -1.603475   -0.368226    1.944371
     12          6           0        0.479583   -1.432422    5.201413
     13          1           0        0.732095   -0.453358    4.787969
     14          1           0        1.340268   -2.094706    5.032715
     15          6           0        0.343106   -1.252635    6.706157
     16          8           0        0.755576   -0.302778    7.322520
     17          8           0       -0.276959   -2.312234    7.280964
     18          7           0        0.681375   -0.494058    1.849476
     19          1           0        1.524088   -1.038292    2.047956
     20          6           0        0.909279    0.457298    0.766891
     21          1           0        0.502049    1.435277    1.040201
     22          6           0        2.448617    0.541259    0.652769
     23          6           0        0.237113   -0.006372   -0.580210
     24          1           0       -0.740515    0.476491   -0.650908
     25          1           0        0.843300    0.387517   -1.404876
     26          8           0        3.146641   -0.375224    1.102731
     27          6           0        0.050752   -1.506758   -0.717136
     28          6           0        1.132996   -2.407285   -0.690251
     29          1           0        2.146209   -2.029645   -0.588521
     30          6           0       -1.235378   -2.043746   -0.839391
     31          1           0       -2.092017   -1.375287   -0.874014
     32          6           0        0.939594   -3.782173   -0.769558
     33          1           0        1.780426   -4.468372   -0.762418
     34          6           0       -1.452221   -3.428519   -0.917250
     35          1           0       -2.459153   -3.814788   -1.071370
     36          8           0       -0.478842   -5.656531   -0.982035
     37          1           0       -1.380616   -5.895114   -1.250587
     38          6           0       -0.356329   -4.304788   -0.896197
     39          7           0        2.927513    1.626465    0.031157
     40          1           0        2.319206    2.383884   -0.270059
     41          6           0        4.349559    1.897123   -0.164474
     42          1           0        4.902457    1.543325    0.708532
     43          6           0        4.505191    3.407945   -0.298099
     44          6           0        4.897809    1.194304   -1.448365
     45          1           0        5.031930    0.137949   -1.192837
     46          1           0        4.110800    1.238267   -2.211937
     47          8           0        5.720083    3.807165    0.027123
     48          6           0        6.208003    1.776665   -2.028394
     49          1           0        6.734315    0.971818   -2.553795
     50          1           0        6.862452    2.083515   -1.207216
     51          6           0        5.992386    2.955723   -3.021669
     52          1           0        6.005990    2.554505   -4.041669
     53          1           0        4.990827    3.385677   -2.895208
     54          6           0        7.018934    4.105586   -2.947230
     55          1           0        7.986568    3.732392   -2.595068
     56          1           0        7.182209    4.522048   -3.949971
     57          7           0        6.588860    5.179015   -2.008922
     58          1           0        7.337980    5.859253   -1.883751
     59          1           0        6.034550    4.551911   -0.630732
     60          1           0        5.799715    5.688439   -2.408021
     61          8           0        3.610770    4.103893   -0.757390
     62          1           0       -0.300066   -2.138365    8.242049
 ---------------------------------------------------------------------

 SCF Done:  E(RB3LYP) =  -1526.20977382     A.U. after    3 cycles

 Alpha  occ. eigenvalues --  -19.29454 -19.28726 -19.26165 -19.23533 -19.23263
 Alpha  occ. eigenvalues --  -19.22416 -19.20654 -14.60390 -14.49240 -14.46072
 Alpha  occ. eigenvalues --  -14.42707 -10.43255 -10.42144 -10.40821 -10.39500
 Alpha  occ. eigenvalues --  -10.38538 -10.36562 -10.35389 -10.34280 -10.32276
 Alpha  occ. eigenvalues --  -10.31628 -10.30730 -10.30672 -10.30545 -10.30461
 Alpha  occ. eigenvalues --  -10.29985 -10.29598 -10.29540 -10.27070 -10.26082
 Alpha  occ. eigenvalues --  -10.25829  -1.20193  -1.18849  -1.16939  -1.15768
 Alpha  occ. eigenvalues --   -1.14436  -1.13902  -1.11319  -1.07447  -1.06021
 Alpha  occ. eigenvalues --   -1.02473  -0.98030  -0.96604  -0.94910  -0.90241
 Alpha  occ. eigenvalues --   -0.87848  -0.87060  -0.86022  -0.84745  -0.82536
 Alpha  occ. eigenvalues --   -0.79109  -0.77985  -0.76857  -0.74198  -0.73309
 Alpha  occ. eigenvalues --   -0.72500  -0.71829  -0.70883  -0.70652  -0.69838
 Alpha  occ. eigenvalues --   -0.68840  -0.67364  -0.66424  -0.65448  -0.64861
 Alpha  occ. eigenvalues --   -0.63745  -0.61203  -0.60263  -0.59580  -0.59008
 Alpha  occ. eigenvalues --   -0.58863  -0.58506  -0.57402  -0.57196  -0.56958
 Alpha  occ. eigenvalues --   -0.56553  -0.55832  -0.55674  -0.54550  -0.54273
 Alpha  occ. eigenvalues --   -0.54062  -0.53308  -0.53095  -0.52697  -0.52386
 Alpha  occ. eigenvalues --   -0.52135  -0.51346  -0.50623  -0.50333  -0.49950
 Alpha  occ. eigenvalues --   -0.49740  -0.49401  -0.48916  -0.48890  -0.48113
 Alpha  occ. eigenvalues --   -0.47761  -0.47317  -0.46447  -0.45136  -0.44439
 Alpha  occ. eigenvalues --   -0.44135  -0.43706  -0.43562  -0.41479  -0.41359
 Alpha  occ. eigenvalues --   -0.40857  -0.40729  -0.40572  -0.39213  -0.37214
 Alpha  occ. eigenvalues --   -0.37119  -0.36683  -0.36516  -0.35523  -0.34850
 Alpha  occ. eigenvalues --   -0.33778  -0.33178
 Alpha virt. eigenvalues --   -0.13282  -0.12187  -0.10919  -0.09635  -0.08933
 Alpha virt. eigenvalues --   -0.08141  -0.06258  -0.04820  -0.04508  -0.03274
 Alpha virt. eigenvalues --   -0.02567  -0.01390  -0.01175  -0.00469  -0.00286

 Mulliken charges:
               1
     1  N   -0.752248
     2  H    0.415934
     3  H    0.408103
     4  H    0.421444
     5  C   -0.123021
     6  H    0.211660
     7  C    0.657287
     8  C   -0.289522
     9  H    0.190789
    10  H    0.192328
    11  O   -0.539661
    12  C   -0.370422
    13  H    0.206701
    14  H    0.194560
    15  C    0.583781
    16  O   -0.425147
    17  O   -0.567062
    18  N   -0.608737
    19  H    0.371960
    20  C   -0.034554
    21  H    0.199344
    22  C    0.626538
    23  C   -0.377042
    24  H    0.186034
    25  H    0.186715
    26  O   -0.549926
    27  C    0.147739
    28  C   -0.198577
    29  H    0.177823
    30  C   -0.202843
    31  H    0.160480
    32  C   -0.169952
    33  H    0.172825
    34  C   -0.274987
    35  H    0.147239
    36  O   -0.622662
    37  H    0.420149
    38  C    0.357612
    39  N   -0.618059
    40  H    0.357737
    41  C   -0.016953
    42  H    0.196241
    43  C    0.581513
    44  C   -0.282168
    45  H    0.167039
    46  H    0.146627
    47  O   -0.599244
    48  C   -0.283417
    49  H    0.151673
    50  H    0.173335
    51  C   -0.293048
    52  H    0.156199
    53  H    0.159928
    54  C   -0.145828
    55  H    0.169306
    56  H    0.156143
    57  N   -0.780644
    58  H    0.340324
    59  H    0.462438
    60  H    0.343224
    61  O   -0.503164
    62  H    0.430116
 Sum of Mulliken charges =   1.00000

 Dipole moment (field-independent basis, Debye):
    X=              1.1430    Y=             -8.0181    Z=              4.1919  Tot=              9.1197
 Quadrupole moment (field-independent basis, Debye-Ang):
   XX=           -109.3986   YY=           -112.8056   ZZ=           -129.5947
   XY=             63.2107   XZ=            -43.2149   YZ=            -51.5236

 Normal termination of Gaussian 16 at Tue May 24 03:11:45 2022.
