 Gaussian 16, Revision C.01,
 Gaussian 16:  ES64L-G16RevC.01  3-Jul-2019

 -------------------------------------------------------------------
 # B3LYP/6-31G* guess=read geom=check nosymm integral(ultrafinegrid)
 -------------------------------------------------------------------

 ------------------------------------------------------
 Candidate Structure: Conf:217 Charge calc in gas phase
 ------------------------------------------------------
 Structure from the checkpoint file:  "conf-217.chk"
 Charge =  1 Multiplicity = 1

                          Input orientation:
 ---------------------------------------------------------------------
 Center     Atomic      Atomic             Coordinates (Angstroms)
 Number     Number       Type             X           Y           Z
 ---------------------------------------------------------------------
      1          7           0        0.717145    0.466855    3.521789
      2          1           0        0.335341    1.416045    3.572670
      3          1           0        0.832816    0.024669    4.453422
      4          1           0        1.666566    0.539978    3.010520
      5          6           0       -0.196721   -0.367881    2.669329
      6          1           0       -1.192393   -0.325296    3.127553
      7          6           0       -0.289707    0.435899    1.345540
      8          6           0        0.289787   -1.824248    2.606744
      9          1           0        1.366629   -1.840230    2.403362
     10          1           0       -0.199582   -2.301278    1.751302
     11          8           0       -0.366307    1.664668    1.444122
     12          6           0       -0.069508   -2.732137    3.802225
     13          1           0        0.139195   -3.772033    3.534945
     14          1           0       -1.151503   -2.688280    3.994583
     15          6           0        0.609798   -2.455373    5.128537
     16          8           0        0.991853   -1.367572    5.536460
     17          8           0        0.715333   -3.564045    5.864104
     18          7           0       -0.298963   -0.229400    0.176856
     19          1           0       -0.073062   -1.214465    0.167420
     20          6           0       -0.156553    0.461796   -1.119345
     21          1           0       -0.683871    1.413535   -1.019649
     22          6           0        1.367619    0.684821   -1.287037
     23          6           0       -0.748669   -0.374132   -2.263075
     24          1           0       -0.640231    0.218531   -3.179551
     25          1           0       -0.115831   -1.256907   -2.405995
     26          8           0        2.073437   -0.113520   -1.883317
     27          6           0       -2.191600   -0.773814   -2.043606
     28          6           0       -2.530112   -2.090822   -1.701881
     29          1           0       -1.747201   -2.844316   -1.634561
     30          6           0       -3.230869    0.157524   -2.161114
     31          1           0       -3.007582    1.184806   -2.441883
     32          6           0       -3.849928   -2.470724   -1.474590
     33          1           0       -4.108598   -3.494715   -1.224361
     34          6           0       -4.557917   -0.204056   -1.936822
     35          1           0       -5.349519    0.535544   -2.040940
     36          8           0       -6.147918   -1.945743   -1.354561
     37          1           0       -6.765764   -1.214837   -1.512973
     38          6           0       -4.872797   -1.523182   -1.589479
     39          7           0        1.843064    1.785599   -0.619709
     40          1           0        1.160914    2.259926   -0.034781
     41          6           0        3.231023    1.816672   -0.147332
     42          1           0        3.707360    0.933953   -0.585773
     43          6           0        3.179068    1.606480    1.393757
     44          6           0        3.975687    3.075372   -0.599534
     45          1           0        3.778642    3.225021   -1.665810
     46          1           0        3.538577    3.948253   -0.096575
     47          8           0        3.575231    2.515732    2.189834
     48          6           0        5.502021    2.978816   -0.361111
     49          1           0        5.968158    2.568729   -1.262924
     50          1           0        5.714771    2.254464    0.436291
     51          6           0        6.189080    4.312372   -0.007791
     52          1           0        7.242966    4.282041   -0.308279
     53          1           0        5.740356    5.140430   -0.574130
     54          6           0        6.196045    4.641575    1.485145
     55          1           0        6.703000    3.854857    2.051184
     56          1           0        6.705070    5.589755    1.681252
     57          7           0        4.808128    4.729645    2.063026
     58          1           0        4.845441    4.971215    3.057118
     59          1           0        4.242485    3.740272    1.991036
     60          1           0        4.264433    5.460462    1.596924
     61          8           0        2.658916    0.525834    1.772875
     62          1           0        1.112004   -3.320216    6.723749
 ---------------------------------------------------------------------

 SCF Done:  E(RB3LYP) =  -1526.24029004     A.U. after    1 cycles

 Alpha  occ. eigenvalues --  -19.31464 -19.26843 -19.24269 -19.23337 -19.22057
 Alpha  occ. eigenvalues --  -19.20779 -19.20233 -14.54072 -14.52283 -14.47803
 Alpha  occ. eigenvalues --  -14.44152 -10.44854 -10.40996 -10.38983 -10.37429
 Alpha  occ. eigenvalues --  -10.37162 -10.36061 -10.32819 -10.32801 -10.32615
 Alpha  occ. eigenvalues --  -10.31675 -10.31483 -10.30577 -10.28848 -10.28358
 Alpha  occ. eigenvalues --  -10.27160 -10.26255 -10.26138 -10.26110 -10.25816
 Alpha  occ. eigenvalues --  -10.25267  -1.22940  -1.15720  -1.14608  -1.13870
 Alpha  occ. eigenvalues --   -1.12380  -1.12038  -1.09285  -1.08025  -1.05380
 Alpha  occ. eigenvalues --   -1.03963  -1.00668  -0.92915  -0.92281  -0.91189
 Alpha  occ. eigenvalues --   -0.87938  -0.86154  -0.84891  -0.81631  -0.81388
 Alpha  occ. eigenvalues --   -0.79541  -0.77912  -0.74454  -0.72948  -0.71382
 Alpha  occ. eigenvalues --   -0.70555  -0.70102  -0.69085  -0.68920  -0.68856
 Alpha  occ. eigenvalues --   -0.67419  -0.66717  -0.66548  -0.65938  -0.64012
 Alpha  occ. eigenvalues --   -0.62726  -0.61226  -0.61179  -0.61082  -0.60351
 Alpha  occ. eigenvalues --   -0.58721  -0.58569  -0.57853  -0.57666  -0.57196
 Alpha  occ. eigenvalues --   -0.55681  -0.55183  -0.54914  -0.53788  -0.53444
 Alpha  occ. eigenvalues --   -0.52938  -0.52747  -0.52567  -0.51965  -0.51128
 Alpha  occ. eigenvalues --   -0.50689  -0.50480  -0.49726  -0.49570  -0.49201
 Alpha  occ. eigenvalues --   -0.49110  -0.49002  -0.48676  -0.48384  -0.47705
 Alpha  occ. eigenvalues --   -0.46933  -0.46716  -0.45830  -0.45603  -0.44376
 Alpha  occ. eigenvalues --   -0.43982  -0.43936  -0.43513  -0.43315  -0.42092
 Alpha  occ. eigenvalues --   -0.40472  -0.40448  -0.39531  -0.38461  -0.37548
 Alpha  occ. eigenvalues --   -0.37305  -0.36844  -0.35312  -0.33685  -0.32992
 Alpha  occ. eigenvalues --   -0.32068  -0.28517
 Alpha virt. eigenvalues --   -0.11507  -0.10337  -0.08172  -0.07738  -0.07361
 Alpha virt. eigenvalues --   -0.05818  -0.04700  -0.03761  -0.02747  -0.02519
 Alpha virt. eigenvalues --   -0.01292  -0.00529  -0.00369   0.00778   0.01506

 Mulliken charges:
               1
     1  N   -0.782519
     2  H    0.394528
     3  H    0.426580
     4  H    0.434007
     5  C   -0.103648
     6  H    0.208080
     7  C    0.674339
     8  C   -0.316160
     9  H    0.215401
    10  H    0.176362
    11  O   -0.556614
    12  C   -0.376525
    13  H    0.214182
    14  H    0.208491
    15  C    0.607663
    16  O   -0.491154
    17  O   -0.528262
    18  N   -0.594530
    19  H    0.353772
    20  C   -0.075010
    21  H    0.187360
    22  C    0.622661
    23  C   -0.397921
    24  H    0.178335
    25  H    0.180076
    26  O   -0.501624
    27  C    0.186686
    28  C   -0.210760
    29  H    0.122733
    30  C   -0.188754
    31  H    0.131263
    32  C   -0.158235
    33  H    0.149651
    34  C   -0.190796
    35  H    0.132698
    36  O   -0.634538
    37  H    0.414248
    38  C    0.352517
    39  N   -0.610232
    40  H    0.351951
    41  C   -0.050933
    42  H    0.204717
    43  C    0.616596
    44  C   -0.270587
    45  H    0.177533
    46  H    0.103045
    47  O   -0.626676
    48  C   -0.288763
    49  H    0.177898
    50  H    0.155442
    51  C   -0.286114
    52  H    0.184909
    53  H    0.161205
    54  C   -0.183329
    55  H    0.204409
    56  H    0.194716
    57  N   -0.773948
    58  H    0.390917
    59  H    0.475389
    60  H    0.381945
    61  O   -0.590033
    62  H    0.435359
 Sum of Mulliken charges =   1.00000

 Dipole moment (field-independent basis, Debye):
    X=              9.6353    Y=              9.9031    Z=             12.5747  Tot=             18.6824
 Quadrupole moment (field-independent basis, Debye-Ang):
   XX=            -89.4376   YY=            -98.1738   ZZ=           -124.6010
   XY=             64.2966   XZ=             28.7567   YZ=             -1.1605

 Normal termination of Gaussian 16 at Tue May 24 03:11:27 2022.
