 Gaussian 16, Revision C.01,
 Gaussian 16:  ES64L-G16RevC.01  3-Jul-2019

 -------------------------------------------------------------------
 # B3LYP/6-31G* guess=read geom=check nosymm integral(ultrafinegrid)
 -------------------------------------------------------------------

 ------------------------------------------------------
 Candidate Structure: Conf:448 Charge calc in gas phase
 ------------------------------------------------------
 Structure from the checkpoint file:  "conf-448.chk"
 Charge =  1 Multiplicity = 1

                          Input orientation:
 ---------------------------------------------------------------------
 Center     Atomic      Atomic             Coordinates (Angstroms)
 Number     Number       Type             X           Y           Z
 ---------------------------------------------------------------------
      1          7           0        0.145127   -0.874570    3.682164
      2          1           0        0.653068    0.108281    3.525715
      3          1           0       -0.107166   -1.018731    4.662566
      4          1           0        0.840344   -1.579395    3.408108
      5          6           0       -1.046058   -0.927775    2.768184
      6          1           0       -1.731781   -0.148426    3.116244
      7          6           0       -0.485059   -0.620440    1.361719
      8          6           0       -1.714925   -2.307602    2.816952
      9          1           0       -1.964727   -2.540235    3.860205
     10          1           0       -0.998457   -3.061007    2.474993
     11          8           0        0.439398   -1.299688    0.930877
     12          6           0       -2.987085   -2.372662    1.956757
     13          1           0       -2.730475   -2.228550    0.898677
     14          1           0       -3.703184   -1.592543    2.231916
     15          6           0       -3.729905   -3.695241    2.059691
     16          8           0       -4.929912   -3.804802    2.125032
     17          8           0       -2.879493   -4.748175    2.042871
     18          7           0       -1.038269    0.416136    0.682681
     19          1           0       -1.806176    0.921463    1.103440
     20          6           0       -0.591519    0.841146   -0.653252
     21          1           0       -0.915404    1.885772   -0.745006
     22          6           0        0.955667    0.854799   -0.745534
     23          6           0       -1.223089    0.038893   -1.810880
     24          1           0       -0.751233   -0.946093   -1.855698
     25          1           0       -2.281224   -0.112293   -1.562762
     26          8           0        1.569989    0.303624   -1.638447
     27          6           0       -1.101826    0.760921   -3.140094
     28          6           0       -1.829055    1.938075   -3.380726
     29          1           0       -2.508865    2.319319   -2.619702
     30          6           0       -0.272595    0.284772   -4.161985
     31          1           0        0.308405   -0.618036   -4.000963
     32          6           0       -1.731705    2.623751   -4.588246
     33          1           0       -2.309770    3.522950   -4.776600
     34          6           0       -0.169479    0.954145   -5.381332
     35          1           0        0.473209    0.558228   -6.165424
     36          8           0       -0.838757    2.838181   -6.761879
     37          1           0       -0.322140    2.345352   -7.418993
     38          6           0       -0.899428    2.128259   -5.600030
     39          7           0        1.607747    1.710625    0.163058
     40          1           0        0.997922    1.997145    0.942026
     41          6           0        2.842241    1.188860    0.837145
     42          1           0        3.109969    0.249231    0.347806
     43          6           0        2.456643    0.828897    2.297534
     44          6           0        4.053113    2.130225    0.762509
     45          1           0        3.775990    3.129371    1.126187
     46          1           0        4.775020    1.740821    1.486564
     47          8           0        3.199492    0.080697    2.927768
     48          6           0        4.706230    2.181674   -0.645528
     49          1           0        4.178849    1.485234   -1.312237
     50          1           0        5.727920    1.792717   -0.588061
     51          6           0        4.803613    3.564408   -1.319601
     52          1           0        5.490556    4.210809   -0.760083
     53          1           0        5.246259    3.442666   -2.316751
     54          6           0        3.494456    4.345265   -1.450773
     55          1           0        3.155245    4.750320   -0.494513
     56          1           0        3.590950    5.170000   -2.160356
     57          7           0        2.368053    3.452114   -1.928050
     58          1           0        1.569935    3.990728   -2.278171
     59          1           0        2.033336    2.844526   -1.109801
     60          1           0        2.660348    2.813921   -2.676036
     61          8           0        1.318666    1.312803    2.692290
     62          1           0       -3.428070   -5.555031    2.089359
 ---------------------------------------------------------------------

 SCF Done:  E(RB3LYP) =  -1526.19520846     A.U. after    1 cycles

 Alpha  occ. eigenvalues --  -19.28497 -19.26271 -19.24777 -19.24681 -19.22662
 Alpha  occ. eigenvalues --  -19.19429 -19.17366 -14.58093 -14.55241 -14.49798
 Alpha  occ. eigenvalues --  -14.46767 -10.42247 -10.41299 -10.41245 -10.38575
 Alpha  occ. eigenvalues --  -10.38178 -10.36279 -10.35978 -10.33786 -10.32312
 Alpha  occ. eigenvalues --  -10.31844 -10.31795 -10.31235 -10.29709 -10.29445
 Alpha  occ. eigenvalues --  -10.28748 -10.28374 -10.28322 -10.27901 -10.27704
 Alpha  occ. eigenvalues --  -10.27435  -1.19307  -1.17278  -1.16177  -1.14403
 Alpha  occ. eigenvalues --   -1.12825  -1.11770  -1.10393  -1.09863  -1.05826
 Alpha  occ. eigenvalues --   -1.03463  -1.01582  -0.94531  -0.92962  -0.92463
 Alpha  occ. eigenvalues --   -0.89682  -0.87075  -0.85236  -0.83650  -0.82939
 Alpha  occ. eigenvalues --   -0.81403  -0.77218  -0.76344  -0.74450  -0.72475
 Alpha  occ. eigenvalues --   -0.71560  -0.71039  -0.70718  -0.70421  -0.70313
 Alpha  occ. eigenvalues --   -0.69416  -0.68208  -0.67320  -0.66313  -0.65068
 Alpha  occ. eigenvalues --   -0.63503  -0.63073  -0.61838  -0.61228  -0.60432
 Alpha  occ. eigenvalues --   -0.59634  -0.59074  -0.57854  -0.57575  -0.56759
 Alpha  occ. eigenvalues --   -0.56662  -0.55987  -0.55695  -0.55277  -0.54340
 Alpha  occ. eigenvalues --   -0.53944  -0.53341  -0.52962  -0.52430  -0.52099
 Alpha  occ. eigenvalues --   -0.51640  -0.51209  -0.50901  -0.50518  -0.49978
 Alpha  occ. eigenvalues --   -0.49459  -0.49021  -0.48648  -0.48473  -0.48395
 Alpha  occ. eigenvalues --   -0.48008  -0.47571  -0.46830  -0.46354  -0.45937
 Alpha  occ. eigenvalues --   -0.44906  -0.44542  -0.43713  -0.43454  -0.42372
 Alpha  occ. eigenvalues --   -0.41798  -0.40562  -0.40206  -0.39120  -0.38535
 Alpha  occ. eigenvalues --   -0.37312  -0.36255  -0.34704  -0.34145  -0.33920
 Alpha  occ. eigenvalues --   -0.31067  -0.30594
 Alpha virt. eigenvalues --   -0.12673  -0.11464  -0.09457  -0.09231  -0.08245
 Alpha virt. eigenvalues --   -0.07753  -0.06559  -0.05232  -0.04357  -0.03845
 Alpha virt. eigenvalues --   -0.02629  -0.01643  -0.01276  -0.01143  -0.00863

 Mulliken charges:
               1
     1  N   -0.758959
     2  H    0.441577
     3  H    0.395963
     4  H    0.416246
     5  C   -0.103418
     6  H    0.184161
     7  C    0.658831
     8  C   -0.280685
     9  H    0.169504
    10  H    0.208951
    11  O   -0.510387
    12  C   -0.367321
    13  H    0.195968
    14  H    0.181479
    15  C    0.579241
    16  O   -0.433849
    17  O   -0.559500
    18  N   -0.615551
    19  H    0.346766
    20  C   -0.054210
    21  H    0.159628
    22  C    0.595705
    23  C   -0.343719
    24  H    0.193426
    25  H    0.157521
    26  O   -0.469094
    27  C    0.148840
    28  C   -0.208367
    29  H    0.124455
    30  C   -0.180317
    31  H    0.156956
    32  C   -0.168639
    33  H    0.155876
    34  C   -0.205995
    35  H    0.138112
    36  O   -0.632280
    37  H    0.417188
    38  C    0.347607
    39  N   -0.691744
    40  H    0.360781
    41  C   -0.061695
    42  H    0.204861
    43  C    0.606055
    44  C   -0.295648
    45  H    0.139542
    46  H    0.204267
    47  O   -0.533424
    48  C   -0.306036
    49  H    0.155394
    50  H    0.186924
    51  C   -0.298554
    52  H    0.192989
    53  H    0.170739
    54  C   -0.187938
    55  H    0.208141
    56  H    0.210642
    57  N   -0.774409
    58  H    0.403527
    59  H    0.450386
    60  H    0.413671
    61  O   -0.667812
    62  H    0.427629
 Sum of Mulliken charges =   1.00000

 Dipole moment (field-independent basis, Debye):
    X=              2.9284    Y=              9.0192    Z=             -2.1465  Tot=              9.7226
 Quadrupole moment (field-independent basis, Debye-Ang):
   XX=           -162.6046   YY=           -119.2762   ZZ=           -121.4631
   XY=             35.7546   XZ=            -36.1074   YZ=            -36.6001

 Normal termination of Gaussian 16 at Tue May 24 03:12:17 2022.
