 Gaussian 16, Revision C.01,
 Gaussian 16:  ES64L-G16RevC.01  3-Jul-2019

 -------------------------------------------------------------------
 # B3LYP/6-31G* guess=read geom=check nosymm integral(ultrafinegrid)
 -------------------------------------------------------------------

 ------------------------------------------------------
 Candidate Structure: Conf:197 Charge calc in gas phase
 ------------------------------------------------------
 Structure from the checkpoint file:  "conf-197.chk"
 Charge =  1 Multiplicity = 1

                          Input orientation:
 ---------------------------------------------------------------------
 Center     Atomic      Atomic             Coordinates (Angstroms)
 Number     Number       Type             X           Y           Z
 ---------------------------------------------------------------------
      1          7           0       -0.951274   -3.799600    1.454504
      2          1           0        0.012046   -4.138444    1.374488
      3          1           0       -1.438122   -4.359782    2.159396
      4          1           0       -1.420043   -3.875826    0.511865
      5          6           0       -1.021489   -2.306187    1.726334
      6          1           0       -0.099622   -1.969124    2.210546
      7          6           0       -1.145415   -1.724757    0.286424
      8          6           0       -2.240774   -2.033611    2.623289
      9          1           0       -2.119282   -2.610598    3.547521
     10          1           0       -3.148399   -2.395937    2.121994
     11          8           0       -1.627463   -2.467645   -0.585818
     12          6           0       -2.394562   -0.550032    2.992177
     13          1           0       -2.645257    0.053133    2.116674
     14          1           0       -1.440996   -0.167856    3.380821
     15          6           0       -3.470807   -0.275187    4.023769
     16          8           0       -4.172340    0.707810    4.037371
     17          8           0       -3.547810   -1.251733    4.962779
     18          7           0       -0.702556   -0.474653    0.192500
     19          1           0       -0.168927   -0.135893    1.054546
     20          6           0       -0.526720    0.390217   -0.990163
     21          1           0       -1.215832    1.238636   -0.871246
     22          6           0        0.924455    0.919225   -0.827311
     23          6           0       -0.776466   -0.259805   -2.364346
     24          1           0       -0.219788   -1.194941   -2.435044
     25          1           0       -1.837847   -0.517283   -2.441660
     26          8           0        1.843397    0.560616   -1.559578
     27          6           0       -0.335550    0.674176   -3.474198
     28          6           0       -0.824760    1.984215   -3.569820
     29          1           0       -1.652729    2.304906   -2.941913
     30          6           0        0.669582    0.282561   -4.366136
     31          1           0        1.055036   -0.731289   -4.321137
     32          6           0       -0.254760    2.908747   -4.451719
     33          1           0       -0.638636    3.922101   -4.536025
     34          6           0        1.246741    1.184415   -5.256193
     35          1           0        2.064127    0.869630   -5.901410
     36          8           0        1.500333    3.508212   -5.933949
     37          1           0        1.974143    3.125913   -6.691274
     38          6           0        0.815271    2.511345   -5.258903
     39          7           0        1.117930    1.749335    0.246585
     40          1           0        0.294691    1.870540    0.829458
     41          6           0        2.308681    1.549592    1.108233
     42          1           0        3.037975    0.998741    0.506564
     43          6           0        1.925004    0.615539    2.325125
     44          6           0        2.937323    2.856065    1.603312
     45          1           0        2.152666    3.518919    1.996025
     46          1           0        3.563236    2.574674    2.455279
     47          8           0        2.811635    0.405277    3.144647
     48          6           0        3.813425    3.630853    0.604498
     49          1           0        4.633950    2.986016    0.261503
     50          1           0        4.292610    4.454604    1.145015
     51          6           0        3.066883    4.233054   -0.616873
     52          1           0        1.994642    4.280765   -0.390552
     53          1           0        3.407191    5.263744   -0.788772
     54          6           0        3.271263    3.442687   -1.908643
     55          1           0        4.291826    3.536783   -2.286159
     56          1           0        3.013831    2.384338   -1.816666
     57          7           0        2.356424    4.010205   -2.993974
     58          1           0        1.391950    3.664744   -2.879239
     59          1           0        2.605276    3.755552   -3.960217
     60          1           0        2.331674    5.035054   -2.950335
     61          8           0        0.715118    0.163472    2.331423
     62          1           0       -4.235545   -0.971672    5.596616
 ---------------------------------------------------------------------

 SCF Done:  E(RB3LYP) =  -1526.16849520     A.U. after    1 cycles

 Alpha  occ. eigenvalues --  -19.30127 -19.27367 -19.24210 -19.22471 -19.21363
 Alpha  occ. eigenvalues --  -19.16416 -19.14404 -14.59275 -14.58173 -14.46280
 Alpha  occ. eigenvalues --  -14.44849 -10.40986 -10.39926 -10.39026 -10.37342
 Alpha  occ. eigenvalues --  -10.36859 -10.36425 -10.34763 -10.33372 -10.31651
 Alpha  occ. eigenvalues --  -10.30983 -10.30455 -10.30290 -10.30174 -10.30155
 Alpha  occ. eigenvalues --  -10.29880 -10.29598 -10.29221 -10.29010 -10.28246
 Alpha  occ. eigenvalues --  -10.26088  -1.18083  -1.17552  -1.16463  -1.14035
 Alpha  occ. eigenvalues --   -1.13531  -1.11707  -1.09086  -1.08598  -1.04053
 Alpha  occ. eigenvalues --   -1.01109  -0.99693  -0.96682  -0.92178  -0.91416
 Alpha  occ. eigenvalues --   -0.89531  -0.86103  -0.85885  -0.84907  -0.82871
 Alpha  occ. eigenvalues --   -0.79907  -0.77437  -0.75946  -0.74374  -0.73082
 Alpha  occ. eigenvalues --   -0.72111  -0.71615  -0.70875  -0.70501  -0.70283
 Alpha  occ. eigenvalues --   -0.68456  -0.67938  -0.66965  -0.66280  -0.65684
 Alpha  occ. eigenvalues --   -0.64368  -0.62354  -0.61949  -0.60492  -0.59169
 Alpha  occ. eigenvalues --   -0.58928  -0.58831  -0.57645  -0.57149  -0.56733
 Alpha  occ. eigenvalues --   -0.55964  -0.55332  -0.55014  -0.54581  -0.54151
 Alpha  occ. eigenvalues --   -0.53510  -0.53063  -0.52945  -0.52488  -0.51804
 Alpha  occ. eigenvalues --   -0.51175  -0.50718  -0.50184  -0.50115  -0.49461
 Alpha  occ. eigenvalues --   -0.48928  -0.48457  -0.47306  -0.47226  -0.47170
 Alpha  occ. eigenvalues --   -0.46755  -0.46511  -0.46012  -0.45751  -0.44901
 Alpha  occ. eigenvalues --   -0.44697  -0.43784  -0.43573  -0.42944  -0.42396
 Alpha  occ. eigenvalues --   -0.41154  -0.39337  -0.38894  -0.38025  -0.36711
 Alpha  occ. eigenvalues --   -0.36533  -0.35013  -0.34869  -0.33118  -0.31187
 Alpha  occ. eigenvalues --   -0.31079  -0.28110
 Alpha virt. eigenvalues --   -0.12190  -0.11288  -0.10563  -0.09472  -0.09004
 Alpha virt. eigenvalues --   -0.07905  -0.06641  -0.05138  -0.04127  -0.03273
 Alpha virt. eigenvalues --   -0.02340  -0.01813  -0.01216  -0.01149  -0.00807

 Mulliken charges:
               1
     1  N   -0.753105
     2  H    0.416625
     3  H    0.409242
     4  H    0.422147
     5  C   -0.135318
     6  H    0.253326
     7  C    0.632965
     8  C   -0.296744
     9  H    0.190948
    10  H    0.173306
    11  O   -0.559336
    12  C   -0.380632
    13  H    0.182500
    14  H    0.243342
    15  C    0.582569
    16  O   -0.444351
    17  O   -0.568042
    18  N   -0.665070
    19  H    0.427074
    20  C   -0.027696
    21  H    0.166039
    22  C    0.566683
    23  C   -0.348865
    24  H    0.180009
    25  H    0.187077
    26  O   -0.517970
    27  C    0.170716
    28  C   -0.194600
    29  H    0.152864
    30  C   -0.150329
    31  H    0.161138
    32  C   -0.234655
    33  H    0.163965
    34  C   -0.186235
    35  H    0.150001
    36  O   -0.663308
    37  H    0.429188
    38  C    0.309070
    39  N   -0.585116
    40  H    0.328632
    41  C   -0.098629
    42  H    0.176546
    43  C    0.586354
    44  C   -0.273024
    45  H    0.137262
    46  H    0.202140
    47  O   -0.509429
    48  C   -0.285870
    49  H    0.155068
    50  H    0.167948
    51  C   -0.281237
    52  H    0.163588
    53  H    0.152143
    54  C   -0.222896
    55  H    0.203100
    56  H    0.264838
    57  N   -0.750973
    58  H    0.412201
    59  H    0.424864
    60  H    0.403713
    61  O   -0.639280
    62  H    0.423519
 Sum of Mulliken charges =   1.00000

 Dipole moment (field-independent basis, Debye):
    X=              2.7677    Y=              3.0341    Z=            -10.4277  Tot=             11.2073
 Quadrupole moment (field-independent basis, Debye-Ang):
   XX=           -161.1756   YY=            -75.8914   ZZ=           -127.4237
   XY=             48.4333   XZ=            -51.9303   YZ=            -65.0475

 Normal termination of Gaussian 16 at Tue May 24 03:11:29 2022.
