 Gaussian 16, Revision C.01,
 Gaussian 16:  ES64L-G16RevC.01  3-Jul-2019

 -------------------------------------------------------------------
 # B3LYP/6-31G* guess=read geom=check nosymm integral(ultrafinegrid)
 -------------------------------------------------------------------

 ------------------------------------------------------
 Candidate Structure: Conf:879 Charge calc in gas phase
 ------------------------------------------------------
 Structure from the checkpoint file:  "conf-879.chk"
 Charge =  1 Multiplicity = 1

                          Input orientation:
 ---------------------------------------------------------------------
 Center     Atomic      Atomic             Coordinates (Angstroms)
 Number     Number       Type             X           Y           Z
 ---------------------------------------------------------------------
      1          7           0       -2.082459   -1.593672    3.503857
      2          1           0       -1.120230   -1.206452    3.295577
      3          1           0       -2.386357   -1.376265    4.457765
      4          1           0       -2.016445   -2.612041    3.385731
      5          6           0       -3.014160   -1.041718    2.430111
      6          1           0       -3.054516    0.035382    2.613952
      7          6           0       -2.183353   -1.376367    1.169314
      8          6           0       -4.427262   -1.626414    2.518139
      9          1           0       -5.017065   -1.146293    1.730209
     10          1           0       -4.871666   -1.297488    3.467607
     11          8           0       -1.900028   -2.550157    0.964889
     12          6           0       -4.552426   -3.155544    2.383476
     13          1           0       -4.011995   -3.691330    3.170053
     14          1           0       -4.146519   -3.484055    1.421708
     15          6           0       -5.995975   -3.622661    2.483410
     16          8           0       -6.388358   -4.500463    3.212217
     17          8           0       -6.795280   -2.935564    1.633750
     18          7           0       -1.690063   -0.315040    0.475995
     19          1           0       -1.947719    0.594428    0.839118
     20          6           0       -0.316065   -0.370345   -0.042525
     21          1           0       -0.115933    0.628043   -0.445130
     22          6           0        0.638219   -0.570254    1.178596
     23          6           0       -0.139752   -1.389052   -1.202415
     24          1           0       -0.114796   -2.402202   -0.796005
     25          1           0       -1.054729   -1.318096   -1.802898
     26          8           0        0.196919   -0.669253    2.344123
     27          6           0        1.071981   -1.130667   -2.076505
     28          6           0        1.178843    0.045239   -2.840516
     29          1           0        0.385562    0.789884   -2.803134
     30          6           0        2.099691   -2.075589   -2.185581
     31          1           0        2.038041   -3.003863   -1.622073
     32          6           0        2.268593    0.276983   -3.669256
     33          1           0        2.345593    1.183315   -4.260776
     34          6           0        3.199536   -1.859799   -3.015972
     35          1           0        3.983504   -2.610756   -3.086694
     36          8           0        4.329151   -0.399267   -4.590316
     37          1           0        4.962925   -1.133746   -4.581504
     38          6           0        3.289528   -0.679488   -3.760307
     39          7           0        1.943261   -0.567730    0.912164
     40          1           0        2.279382   -0.481155   -0.046059
     41          6           0        2.986064   -0.641104    1.934413
     42          1           0        2.629223   -0.138556    2.835044
     43          6           0        4.222061    0.074439    1.400281
     44          6           0        3.353570   -2.121419    2.270584
     45          1           0        2.536350   -2.517027    2.883563
     46          1           0        3.344964   -2.688032    1.331300
     47          8           0        4.969868    0.544905    2.383628
     48          6           0        4.710394   -2.326706    2.985864
     49          1           0        4.636648   -3.229095    3.603174
     50          1           0        4.883515   -1.497042    3.677939
     51          6           0        5.920751   -2.488244    2.020056
     52          1           0        6.114527   -3.558795    1.886402
     53          1           0        5.666329   -2.113277    1.021087
     54          6           0        7.238090   -1.817178    2.462158
     55          1           0        7.297202   -1.773246    3.555001
     56          1           0        8.091198   -2.417889    2.120123
     57          7           0        7.354359   -0.422422    1.954405
     58          1           0        8.170391    0.033618    2.361553
     59          1           0        5.975138    0.397365    2.155911
     60          1           0        7.504840   -0.435584    0.945093
     61          8           0        4.497837    0.079759    0.211324
     62          1           0       -7.696041   -3.300497    1.732013
 ---------------------------------------------------------------------

 SCF Done:  E(RB3LYP) =  -1526.20692536     A.U. after    1 cycles

 Alpha  occ. eigenvalues --  -19.29129 -19.26152 -19.25351 -19.24849 -19.24084
 Alpha  occ. eigenvalues --  -19.23350 -19.21338 -14.59446 -14.49584 -14.47344
 Alpha  occ. eigenvalues --  -14.43468 -10.43423 -10.41870 -10.41386 -10.40720
 Alpha  occ. eigenvalues --  -10.39301 -10.36099 -10.33923 -10.32964 -10.32760
 Alpha  occ. eigenvalues --  -10.31768 -10.30436 -10.29392 -10.28328 -10.27878
 Alpha  occ. eigenvalues --  -10.27655 -10.27555 -10.27012 -10.27007 -10.26954
 Alpha  occ. eigenvalues --  -10.26525  -1.19938  -1.18852  -1.16548  -1.15600
 Alpha  occ. eigenvalues --   -1.13659  -1.13563  -1.11067  -1.08189  -1.06233
 Alpha  occ. eigenvalues --   -1.03772  -0.98814  -0.94392  -0.93819  -0.90196
 Alpha  occ. eigenvalues --   -0.88554  -0.86574  -0.84349  -0.83024  -0.82192
 Alpha  occ. eigenvalues --   -0.78724  -0.78164  -0.75787  -0.73989  -0.72635
 Alpha  occ. eigenvalues --   -0.71637  -0.71373  -0.70593  -0.70482  -0.69393
 Alpha  occ. eigenvalues --   -0.68202  -0.67373  -0.66536  -0.65905  -0.63168
 Alpha  occ. eigenvalues --   -0.62421  -0.62356  -0.60521  -0.59718  -0.59120
 Alpha  occ. eigenvalues --   -0.58739  -0.58096  -0.57267  -0.56679  -0.56370
 Alpha  occ. eigenvalues --   -0.55824  -0.55422  -0.55072  -0.54762  -0.54571
 Alpha  occ. eigenvalues --   -0.54078  -0.53668  -0.53196  -0.52601  -0.51926
 Alpha  occ. eigenvalues --   -0.51447  -0.50433  -0.49981  -0.49957  -0.49748
 Alpha  occ. eigenvalues --   -0.49432  -0.48974  -0.48390  -0.48135  -0.48051
 Alpha  occ. eigenvalues --   -0.47859  -0.46849  -0.45553  -0.45060  -0.44644
 Alpha  occ. eigenvalues --   -0.44187  -0.42444  -0.41873  -0.41776  -0.41738
 Alpha  occ. eigenvalues --   -0.41244  -0.41149  -0.40416  -0.39384  -0.38475
 Alpha  occ. eigenvalues --   -0.38076  -0.36792  -0.36776  -0.35677  -0.34565
 Alpha  occ. eigenvalues --   -0.33384  -0.29883
 Alpha virt. eigenvalues --   -0.13985  -0.10461  -0.09848  -0.08745  -0.08429
 Alpha virt. eigenvalues --   -0.07502  -0.07031  -0.06471  -0.04172  -0.01387
 Alpha virt. eigenvalues --   -0.01212  -0.00992  -0.00242   0.00004   0.00404

 Mulliken charges:
               1
     1  N   -0.759375
     2  H    0.459022
     3  H    0.407102
     4  H    0.419762
     5  C   -0.118693
     6  H    0.197323
     7  C    0.615860
     8  C   -0.291648
     9  H    0.218215
    10  H    0.175446
    11  O   -0.495801
    12  C   -0.363865
    13  H    0.161926
    14  H    0.226556
    15  C    0.575593
    16  O   -0.430029
    17  O   -0.561167
    18  N   -0.563078
    19  H    0.345021
    20  C   -0.105003
    21  H    0.194875
    22  C    0.651232
    23  C   -0.346645
    24  H    0.188285
    25  H    0.184183
    26  O   -0.608631
    27  C    0.116831
    28  C   -0.188186
    29  H    0.131348
    30  C   -0.200040
    31  H    0.137464
    32  C   -0.148016
    33  H    0.161236
    34  C   -0.175711
    35  H    0.134789
    36  O   -0.627401
    37  H    0.416191
    38  C    0.362183
    39  N   -0.601392
    40  H    0.384361
    41  C   -0.022563
    42  H    0.187145
    43  C    0.581128
    44  C   -0.277778
    45  H    0.150908
    46  H    0.154793
    47  O   -0.601033
    48  C   -0.284639
    49  H    0.151266
    50  H    0.171843
    51  C   -0.293167
    52  H    0.156843
    53  H    0.161988
    54  C   -0.146135
    55  H    0.168928
    56  H    0.157121
    57  N   -0.780062
    58  H    0.341001
    59  H    0.462405
    60  H    0.342969
    61  O   -0.492495
    62  H    0.429408
 Sum of Mulliken charges =   1.00000

 Dipole moment (field-independent basis, Debye):
    X=              1.1196    Y=             -5.5235    Z=             10.1335  Tot=             11.5953
 Quadrupole moment (field-independent basis, Debye-Ang):
   XX=            -58.6272   YY=           -173.1570   ZZ=           -136.1688
   XY=            -20.5868   XZ=            -10.8519   YZ=             -7.7797

 Normal termination of Gaussian 16 at Tue May 24 03:12:14 2022.
