 Gaussian 16, Revision C.01,
 Gaussian 16:  ES64L-G16RevC.01  3-Jul-2019

 -------------------------------------------------------------------
 # B3LYP/6-31G* guess=read geom=check nosymm integral(ultrafinegrid)
 -------------------------------------------------------------------

 ------------------------------------------------------
 Candidate Structure: Conf:472 Charge calc in gas phase
 ------------------------------------------------------
 Structure from the checkpoint file:  "conf-472.chk"
 Charge =  1 Multiplicity = 1

                          Input orientation:
 ---------------------------------------------------------------------
 Center     Atomic      Atomic             Coordinates (Angstroms)
 Number     Number       Type             X           Y           Z
 ---------------------------------------------------------------------
      1          7           0        1.057946   -0.844932    3.311685
      2          1           0        2.076960    0.462748    2.811276
      3          1           0        0.929724   -1.067875    4.297516
      4          1           0        1.502026   -1.645786    2.857861
      5          6           0       -0.243755   -0.609654    2.651278
      6          1           0       -0.617166    0.360882    2.989387
      7          6           0        0.060232   -0.545224    1.139814
      8          6           0       -1.284999   -1.705036    2.974346
      9          1           0       -1.412643   -1.750212    4.063776
     10          1           0       -0.881944   -2.674120    2.657143
     11          8           0        0.909799   -1.288508    0.652834
     12          6           0       -2.671787   -1.531323    2.308769
     13          1           0       -3.327118   -2.346476    2.624193
     14          1           0       -2.568404   -1.580795    1.219944
     15          6           0       -3.322117   -0.205665    2.640536
     16          8           0       -2.980639    0.875838    2.187626
     17          8           0       -4.324718   -0.323957    3.525835
     18          7           0       -0.615731    0.396168    0.430387
     19          1           0       -1.410045    0.845943    0.882922
     20          6           0       -0.393117    0.613083   -1.008040
     21          1           0       -0.868305    1.575777   -1.232063
     22          6           0        1.127351    0.773860   -1.273188
     23          6           0       -1.030068   -0.472578   -1.909724
     24          1           0       -0.362670   -1.337325   -1.933369
     25          1           0       -1.958868   -0.786330   -1.417357
     26          8           0        1.710274    0.208982   -2.182178
     27          6           0       -1.353965    0.006196   -3.311240
     28          6           0       -2.547363    0.701248   -3.562266
     29          1           0       -3.243674    0.883930   -2.745285
     30          6           0       -0.494076   -0.227282   -4.390497
     31          1           0        0.442697   -0.746735   -4.219025
     32          6           0       -2.877443    1.153473   -4.836074
     33          1           0       -3.805366    1.683690   -5.025785
     34          6           0       -0.812818    0.213951   -5.674470
     35          1           0       -0.132274    0.017271   -6.501473
     36          8           0       -2.374890    1.365198   -7.136234
     37          1           0       -1.704278    1.101009   -7.785142
     38          6           0       -2.005883    0.906921   -5.902176
     39          7           0        1.758461    1.643624   -0.402964
     40          1           0        1.210082    1.891738    0.413192
     41          6           0        3.164587    1.421036   -0.086468
     42          1           0        3.531368    0.671453   -0.793262
     43          6           0        3.305731    0.812763    1.320908
     44          6           0        4.014318    2.701842   -0.234921
     45          1           0        3.770595    3.146479   -1.207058
     46          1           0        3.722685    3.430563    0.534063
     47          8           0        4.232944    0.096894    1.640626
     48          6           0        5.518564    2.406470   -0.147411
     49          1           0        5.794311    1.713636   -0.953665
     50          1           0        5.739369    1.888422    0.792582
     51          6           0        6.376369    3.678762   -0.255688
     52          1           0        6.167927    4.189338   -1.206653
     53          1           0        6.111600    4.373098    0.554360
     54          6           0        7.854918    3.327273   -0.170338
     55          1           0        8.118823    2.860608    0.781731
     56          1           0        8.178144    2.676253   -0.986192
     57          7           0        8.724798    4.587273   -0.273799
     58          1           0        9.728234    4.373236   -0.218999
     59          1           0        8.503841    5.247717    0.481599
     60          1           0        8.556858    5.076070   -1.161816
     61          8           0        2.310022    1.189628    2.134495
     62          1           0       -4.676754    0.573431    3.686889
 ---------------------------------------------------------------------

 SCF Done:  E(RB3LYP) =  -1526.19961636     A.U. after    3 cycles

 Alpha  occ. eigenvalues --  -19.28009 -19.23591 -19.22661 -19.21858 -19.19850
 Alpha  occ. eigenvalues --  -19.18862 -19.17907 -14.65395 -14.42996 -14.41878
 Alpha  occ. eigenvalues --  -14.41445 -10.42151 -10.40734 -10.37959 -10.35880
 Alpha  occ. eigenvalues --  -10.34950 -10.34572 -10.30712 -10.30422 -10.30378
 Alpha  occ. eigenvalues --  -10.30033 -10.28942 -10.28503 -10.28223 -10.28079
 Alpha  occ. eigenvalues --  -10.24114 -10.23277 -10.23197 -10.22925 -10.22808
 Alpha  occ. eigenvalues --  -10.22535  -1.19227  -1.19043  -1.15192  -1.10976
 Alpha  occ. eigenvalues --   -1.09875  -1.09825  -1.09555  -1.06855  -0.99811
 Alpha  occ. eigenvalues --   -0.98310  -0.97848  -0.95602  -0.89415  -0.88403
 Alpha  occ. eigenvalues --   -0.87725  -0.84145  -0.82381  -0.79618  -0.78703
 Alpha  occ. eigenvalues --   -0.78496  -0.77839  -0.77163  -0.74782  -0.72658
 Alpha  occ. eigenvalues --   -0.70849  -0.70357  -0.67571  -0.67212  -0.66320
 Alpha  occ. eigenvalues --   -0.65996  -0.65652  -0.63635  -0.63065  -0.62256
 Alpha  occ. eigenvalues --   -0.61462  -0.59103  -0.58361  -0.57735  -0.57563
 Alpha  occ. eigenvalues --   -0.56761  -0.56275  -0.56101  -0.55099  -0.54304
 Alpha  occ. eigenvalues --   -0.53721  -0.53499  -0.52838  -0.52298  -0.51873
 Alpha  occ. eigenvalues --   -0.51261  -0.50450  -0.49775  -0.49528  -0.49019
 Alpha  occ. eigenvalues --   -0.48437  -0.48252  -0.47361  -0.47071  -0.46989
 Alpha  occ. eigenvalues --   -0.46312  -0.46061  -0.45771  -0.45478  -0.44741
 Alpha  occ. eigenvalues --   -0.44580  -0.44258  -0.43828  -0.43410  -0.43112
 Alpha  occ. eigenvalues --   -0.42977  -0.41586  -0.40848  -0.40069  -0.39703
 Alpha  occ. eigenvalues --   -0.37519  -0.37147  -0.36896  -0.36194  -0.35073
 Alpha  occ. eigenvalues --   -0.34663  -0.33312  -0.32338  -0.31044  -0.30816
 Alpha  occ. eigenvalues --   -0.29133  -0.25712
 Alpha virt. eigenvalues --   -0.15791  -0.09072  -0.09040  -0.07945  -0.06681
 Alpha virt. eigenvalues --   -0.06240  -0.05267  -0.04539  -0.03992  -0.03079
 Alpha virt. eigenvalues --   -0.02589  -0.01637  -0.00377  -0.00012   0.00632

 Mulliken charges:
               1
     1  N   -0.776865
     2  H    0.457403
     3  H    0.326610
     4  H    0.352521
     5  C   -0.061413
     6  H    0.170281
     7  C    0.623102
     8  C   -0.289164
     9  H    0.159245
    10  H    0.177648
    11  O   -0.534888
    12  C   -0.363390
    13  H    0.192916
    14  H    0.194354
    15  C    0.590356
    16  O   -0.479357
    17  O   -0.540556
    18  N   -0.656675
    19  H    0.377516
    20  C   -0.047933
    21  H    0.175072
    22  C    0.616623
    23  C   -0.350814
    24  H    0.188473
    25  H    0.140681
    26  O   -0.500782
    27  C    0.146778
    28  C   -0.191987
    29  H    0.117186
    30  C   -0.175833
    31  H    0.156279
    32  C   -0.156976
    33  H    0.142377
    34  C   -0.197344
    35  H    0.119875
    36  O   -0.640326
    37  H    0.408743
    38  C    0.350508
    39  N   -0.601040
    40  H    0.346743
    41  C   -0.054476
    42  H    0.204941
    43  C    0.599725
    44  C   -0.275224
    45  H    0.166734
    46  H    0.148485
    47  O   -0.476624
    48  C   -0.283172
    49  H    0.165043
    50  H    0.187862
    51  C   -0.291945
    52  H    0.168146
    53  H    0.167545
    54  C   -0.207709
    55  H    0.234628
    56  H    0.232337
    57  N   -0.732158
    58  H    0.432074
    59  H    0.427591
    60  H    0.427795
    61  O   -0.629793
    62  H    0.422245
 Sum of Mulliken charges =   1.00000

 Dipole moment (field-independent basis, Debye):
    X=             30.7026    Y=             18.8570    Z=              3.5956  Tot=             36.2100
 Quadrupole moment (field-independent basis, Debye-Ang):
   XX=            140.6867   YY=            -88.7034   ZZ=           -147.2920
   XY=            171.8410   XZ=            -29.8982   YZ=             -9.0198

 Normal termination of Gaussian 16 at Tue May 24 03:12:47 2022.
