 Gaussian 16, Revision C.01,
 Gaussian 16:  ES64L-G16RevC.01  3-Jul-2019

 -------------------------------------------------------------------
 # B3LYP/6-31G* guess=read geom=check nosymm integral(ultrafinegrid)
 -------------------------------------------------------------------

 ------------------------------------------------------
 Candidate Structure: Conf:234 Charge calc in gas phase
 ------------------------------------------------------
 Structure from the checkpoint file:  "conf-234.chk"
 Charge =  1 Multiplicity = 1

                          Input orientation:
 ---------------------------------------------------------------------
 Center     Atomic      Atomic             Coordinates (Angstroms)
 Number     Number       Type             X           Y           Z
 ---------------------------------------------------------------------
      1          7           0       -0.122528   -1.349721    3.764936
      2          1           0        0.968929    0.069050    3.640531
      3          1           0       -0.432949   -1.616015    4.697748
      4          1           0        0.459470   -2.108716    3.405265
      5          6           0       -1.282532   -1.193654    2.858356
      6          1           0       -1.828994   -0.298567    3.183545
      7          6           0       -0.698882   -0.971500    1.452244
      8          6           0       -2.251942   -2.393593    2.815248
      9          1           0       -1.706694   -3.275931    2.459403
     10          1           0       -3.033807   -2.198923    2.072071
     11          8           0        0.248488   -1.640082    1.056842
     12          6           0       -2.923534   -2.695408    4.157477
     13          1           0       -3.373183   -1.788945    4.588558
     14          1           0       -2.216659   -3.069450    4.906813
     15          6           0       -4.037944   -3.717301    4.011091
     16          8           0       -4.538375   -4.061496    2.964390
     17          8           0       -4.427085   -4.190246    5.214633
     18          7           0       -1.268980    0.016090    0.694115
     19          1           0       -2.056361    0.523622    1.074504
     20          6           0       -0.714905    0.471627   -0.588041
     21          1           0       -1.021926    1.521402   -0.671957
     22          6           0        0.835041    0.482739   -0.514083
     23          6           0       -1.237515   -0.274367   -1.840856
     24          1           0       -0.955738   -1.328157   -1.771128
     25          1           0       -2.333007   -0.220795   -1.832053
     26          8           0        1.551585   -0.041428   -1.361501
     27          6           0       -0.658219    0.346723   -3.101003
     28          6           0        0.252171   -0.366730   -3.892684
     29          1           0        0.425144   -1.418295   -3.688076
     30          6           0       -0.883611    1.693189   -3.413236
     31          1           0       -1.622779    2.265921   -2.857653
     32          6           0        1.000425    0.263814   -4.882819
     33          1           0        1.719271   -0.287877   -5.481898
     34          6           0       -0.126784    2.352139   -4.387387
     35          1           0       -0.277196    3.413235   -4.575357
     36          8           0        1.791316    2.264259   -5.899991
     37          1           0        1.413899    3.075495   -6.279515
     38          6           0        0.846341    1.636820   -5.081832
     39          7           0        1.326647    1.202877    0.534435
     40          1           0        0.664195    1.433682    1.267078
     41          6           0        2.657722    0.896189    1.066111
     42          1           0        2.970838   -0.046022    0.600866
     43          6           0        2.551866    0.548943    2.562105
     44          6           0        3.712227    1.959050    0.679980
     45          1           0        3.502971    2.917116    1.171907
     46          1           0        4.693975    1.614566    1.023100
     47          8           0        3.459441    0.029559    3.164831
     48          6           0        3.652687    2.106922   -0.848288
     49          1           0        2.649876    2.490231   -1.082587
     50          1           0        3.688786    1.091872   -1.259376
     51          6           0        4.680240    2.977149   -1.579214
     52          1           0        4.829403    3.940800   -1.077041
     53          1           0        5.663259    2.491070   -1.618552
     54          6           0        4.182639    3.301091   -2.995211
     55          1           0        3.317313    3.967854   -2.959978
     56          1           0        4.949211    3.753849   -3.628201
     57          7           0        3.691469    2.060630   -3.733191
     58          1           0        3.212059    2.291562   -4.631566
     59          1           0        3.002643    1.538060   -3.169426
     60          1           0        4.461076    1.413702   -3.935610
     61          8           0        1.329543    0.819854    3.065639
     62          1           0       -5.156734   -4.817707    5.049148
 ---------------------------------------------------------------------

 SCF Done:  E(RB3LYP) =  -1526.20490177     A.U. after    2 cycles

 Alpha  occ. eigenvalues --  -19.31303 -19.26556 -19.25117 -19.21949 -19.21806
 Alpha  occ. eigenvalues --  -19.21224 -19.21081 -14.59685 -14.47290 -14.44752
 Alpha  occ. eigenvalues --  -14.43570 -10.39617 -10.39424 -10.39354 -10.39074
 Alpha  occ. eigenvalues --  -10.38909 -10.36318 -10.34645 -10.33005 -10.32617
 Alpha  occ. eigenvalues --  -10.32464 -10.30396 -10.30184 -10.30022 -10.29901
 Alpha  occ. eigenvalues --  -10.29716 -10.29440 -10.29190 -10.29182 -10.28702
 Alpha  occ. eigenvalues --  -10.28103  -1.18235  -1.17532  -1.16575  -1.14384
 Alpha  occ. eigenvalues --   -1.14065  -1.13195  -1.08633  -1.08522  -1.03460
 Alpha  occ. eigenvalues --   -1.01587  -0.99716  -0.96370  -0.93387  -0.89696
 Alpha  occ. eigenvalues --   -0.88100  -0.87952  -0.85718  -0.84461  -0.82194
 Alpha  occ. eigenvalues --   -0.80607  -0.77219  -0.75809  -0.73529  -0.73243
 Alpha  occ. eigenvalues --   -0.72673  -0.71785  -0.70368  -0.69852  -0.69512
 Alpha  occ. eigenvalues --   -0.68181  -0.66385  -0.66313  -0.65691  -0.63647
 Alpha  occ. eigenvalues --   -0.63518  -0.61810  -0.60717  -0.60114  -0.59521
 Alpha  occ. eigenvalues --   -0.58118  -0.57618  -0.57012  -0.56510  -0.56150
 Alpha  occ. eigenvalues --   -0.55711  -0.55335  -0.54951  -0.54757  -0.54086
 Alpha  occ. eigenvalues --   -0.53626  -0.53349  -0.53098  -0.52914  -0.52611
 Alpha  occ. eigenvalues --   -0.52025  -0.51421  -0.50853  -0.50388  -0.49684
 Alpha  occ. eigenvalues --   -0.49571  -0.48588  -0.48104  -0.47392  -0.47070
 Alpha  occ. eigenvalues --   -0.47006  -0.46390  -0.46193  -0.45559  -0.45128
 Alpha  occ. eigenvalues --   -0.44852  -0.44605  -0.44414  -0.43634  -0.43544
 Alpha  occ. eigenvalues --   -0.42913  -0.39018  -0.38835  -0.37213  -0.36821
 Alpha  occ. eigenvalues --   -0.36568  -0.36265  -0.35477  -0.35121  -0.34703
 Alpha  occ. eigenvalues --   -0.33581  -0.32738
 Alpha virt. eigenvalues --   -0.11476  -0.10815  -0.10059  -0.08987  -0.07984
 Alpha virt. eigenvalues --   -0.06937  -0.06042  -0.05699  -0.03689  -0.03222
 Alpha virt. eigenvalues --   -0.03146  -0.01357  -0.01035  -0.00858   0.00361

 Mulliken charges:
               1
     1  N   -0.770774
     2  H    0.458894
     3  H    0.337510
     4  H    0.349963
     5  C   -0.073652
     6  H    0.146498
     7  C    0.640220
     8  C   -0.267090
     9  H    0.178220
    10  H    0.173831
    11  O   -0.516643
    12  C   -0.372371
    13  H    0.184238
    14  H    0.177585
    15  C    0.587286
    16  O   -0.450680
    17  O   -0.560843
    18  N   -0.633614
    19  H    0.341530
    20  C   -0.047319
    21  H    0.163750
    22  C    0.627730
    23  C   -0.342037
    24  H    0.191711
    25  H    0.163609
    26  O   -0.539817
    27  C    0.172572
    28  C   -0.139077
    29  H    0.164512
    30  C   -0.195972
    31  H    0.145573
    32  C   -0.191451
    33  H    0.156499
    34  C   -0.182239
    35  H    0.142391
    36  O   -0.675025
    37  H    0.431677
    38  C    0.285200
    39  N   -0.599025
    40  H    0.355638
    41  C   -0.075102
    42  H    0.211228
    43  C    0.598910
    44  C   -0.261821
    45  H    0.156896
    46  H    0.178861
    47  O   -0.441384
    48  C   -0.305307
    49  H    0.152633
    50  H    0.161538
    51  C   -0.278850
    52  H    0.191475
    53  H    0.174546
    54  C   -0.199111
    55  H    0.210569
    56  H    0.213231
    57  N   -0.773415
    58  H    0.441704
    59  H    0.432706
    60  H    0.409375
    61  O   -0.639251
    62  H    0.421561
 Sum of Mulliken charges =   1.00000

 Dipole moment (field-independent basis, Debye):
    X=              6.4141    Y=              9.9797    Z=             -9.6618  Tot=             15.2999
 Quadrupole moment (field-independent basis, Debye-Ang):
   XX=           -121.8618   YY=           -138.0853   ZZ=            -99.6884
   XY=             36.8596   XZ=            -68.2856   YZ=            -53.8906

 Normal termination of Gaussian 16 at Tue May 24 03:11:35 2022.
