 Gaussian 16, Revision C.01,
 Gaussian 16:  ES64L-G16RevC.01  3-Jul-2019

 -------------------------------------------------------------------
 # B3LYP/6-31G* guess=read geom=check nosymm integral(ultrafinegrid)
 -------------------------------------------------------------------

 ------------------------------------------------------
 Candidate Structure: Conf:669 Charge calc in gas phase
 ------------------------------------------------------
 Structure from the checkpoint file:  "conf-669.chk"
 Charge =  1 Multiplicity = 1

                          Input orientation:
 ---------------------------------------------------------------------
 Center     Atomic      Atomic             Coordinates (Angstroms)
 Number     Number       Type             X           Y           Z
 ---------------------------------------------------------------------
      1          7           0       -3.940967   -2.544576    1.378513
      2          1           0       -4.250411   -3.502383    1.194872
      3          1           0       -4.458129   -2.173005    2.180713
      4          1           0       -4.116229   -1.943528    0.521321
      5          6           0       -2.435565   -2.411841    1.554461
      6          1           0       -2.019415   -3.418358    1.649877
      7          6           0       -1.998488   -1.741221    0.224159
      8          6           0       -2.105949   -1.557422    2.792749
      9          1           0       -1.022617   -1.411149    2.821466
     10          1           0       -2.358168   -2.133681    3.692060
     11          8           0       -2.884652   -1.259592   -0.497628
     12          6           0       -2.777488   -0.175239    2.812507
     13          1           0       -3.842931   -0.217382    3.070498
     14          1           0       -2.697056    0.304160    1.827844
     15          6           0       -2.122429    0.847864    3.758615
     16          8           0       -2.735641    1.806594    4.163063
     17          8           0       -0.843625    0.554951    3.985850
     18          7           0       -0.690034   -1.689502   -0.029744
     19          1           0       -0.017122   -2.106714    0.608105
     20          6           0       -0.097324   -0.771070   -1.018448
     21          1           0       -0.836762    0.010939   -1.204419
     22          6           0        1.157793   -0.217828   -0.300658
     23          6           0        0.267308   -1.460797   -2.351243
     24          1           0        0.979642   -2.265400   -2.145088
     25          1           0       -0.638692   -1.904578   -2.778610
     26          8           0        2.007007   -1.024305    0.078855
     27          6           0        0.869475   -0.434138   -3.286294
     28          6           0        0.049486    0.481646   -3.960529
     29          1           0       -1.031397    0.373548   -3.912830
     30          6           0        2.258627   -0.291495   -3.392782
     31          1           0        2.910873   -0.986899   -2.872833
     32          6           0        0.593108    1.540775   -4.686285
     33          1           0       -0.041149    2.243907   -5.217783
     34          6           0        2.820223    0.763454   -4.112500
     35          1           0        3.900809    0.877958   -4.164083
     36          8           0        2.487097    2.825235   -5.370216
     37          1           0        3.362617    2.620287   -5.739637
     38          6           0        1.977426    1.681466   -4.733645
     39          7           0        1.169702    1.121509   -0.105071
     40          1           0        0.229764    1.542978   -0.132406
     41          6           0        1.805876    1.689955    1.100291
     42          1           0        2.377727    0.902347    1.594466
     43          6           0        0.606754    2.098045    2.030433
     44          6           0        2.729196    2.886753    0.830153
     45          1           0        3.003854    3.278744    1.814609
     46          1           0        3.658596    2.547326    0.352827
     47          8           0        0.894905    2.264265    3.241942
     48          6           0        2.081175    4.008498   -0.013149
     49          1           0        2.387168    4.990516    0.368393
     50          1           0        0.990075    3.961157    0.097879
     51          6           0        2.470093    3.923018   -1.501895
     52          1           0        3.543562    4.146891   -1.598658
     53          1           0        2.314074    2.903642   -1.872222
     54          6           0        1.663147    4.907970   -2.339797
     55          1           0        0.637569    4.568226   -2.500927
     56          1           0        1.635927    5.903909   -1.888994
     57          7           0        2.273672    5.097043   -3.726726
     58          1           0        1.721627    5.749545   -4.294021
     59          1           0        2.359888    4.202901   -4.276552
     60          1           0        3.216381    5.492077   -3.642143
     61          8           0       -0.515970    2.185342    1.464387
     62          1           0       -0.261502    1.393830    3.993274
 ---------------------------------------------------------------------

 SCF Done:  E(RB3LYP) =  -1526.16392630     A.U. after    3 cycles

 Alpha  occ. eigenvalues --  -19.32243 -19.26092 -19.20423 -19.19893 -19.16693
 Alpha  occ. eigenvalues --  -19.13885 -19.13375 -14.60073 -14.58766 -14.49056
 Alpha  occ. eigenvalues --  -14.42073 -10.42758 -10.39468 -10.38487 -10.36751
 Alpha  occ. eigenvalues --  -10.36560 -10.35778 -10.33636 -10.31506 -10.31000
 Alpha  occ. eigenvalues --  -10.30976 -10.30364 -10.30191 -10.30065 -10.29919
 Alpha  occ. eigenvalues --  -10.29709 -10.29147 -10.27963 -10.27600 -10.27378
 Alpha  occ. eigenvalues --  -10.25546  -1.19015  -1.18358  -1.14307  -1.12746
 Alpha  occ. eigenvalues --   -1.12221  -1.11595  -1.07023  -1.05209  -1.04026
 Alpha  occ. eigenvalues --   -0.99657  -0.97582  -0.96607  -0.92350  -0.91951
 Alpha  occ. eigenvalues --   -0.89447  -0.85898  -0.85507  -0.84676  -0.82645
 Alpha  occ. eigenvalues --   -0.79400  -0.76809  -0.75098  -0.74347  -0.73582
 Alpha  occ. eigenvalues --   -0.72944  -0.72786  -0.71792  -0.70956  -0.70197
 Alpha  occ. eigenvalues --   -0.69542  -0.67796  -0.66028  -0.65400  -0.64529
 Alpha  occ. eigenvalues --   -0.63680  -0.62536  -0.61287  -0.60506  -0.59528
 Alpha  occ. eigenvalues --   -0.58950  -0.58900  -0.57469  -0.56888  -0.56362
 Alpha  occ. eigenvalues --   -0.55030  -0.54586  -0.54373  -0.53732  -0.53422
 Alpha  occ. eigenvalues --   -0.53337  -0.52869  -0.52363  -0.51785  -0.51076
 Alpha  occ. eigenvalues --   -0.50999  -0.50110  -0.49723  -0.49093  -0.48518
 Alpha  occ. eigenvalues --   -0.48000  -0.47641  -0.46563  -0.46393  -0.46240
 Alpha  occ. eigenvalues --   -0.46028  -0.45219  -0.44780  -0.44297  -0.44125
 Alpha  occ. eigenvalues --   -0.43886  -0.43432  -0.41916  -0.41339  -0.40443
 Alpha  occ. eigenvalues --   -0.39652  -0.39321  -0.38730  -0.36168  -0.34840
 Alpha  occ. eigenvalues --   -0.34054  -0.33907  -0.33126  -0.30538  -0.29354
 Alpha  occ. eigenvalues --   -0.28284  -0.27167
 Alpha virt. eigenvalues --   -0.11852  -0.11772  -0.11219  -0.10594  -0.09916
 Alpha virt. eigenvalues --   -0.06536  -0.05994  -0.05629  -0.05268  -0.03129
 Alpha virt. eigenvalues --   -0.02998  -0.02663  -0.01031  -0.00861  -0.00192

 Mulliken charges:
               1
     1  N   -0.754718
     2  H    0.412554
     3  H    0.417717
     4  H    0.432863
     5  C   -0.120056
     6  H    0.209983
     7  C    0.655793
     8  C   -0.299073
     9  H    0.224736
    10  H    0.179100
    11  O   -0.542112
    12  C   -0.409554
    13  H    0.148504
    14  H    0.212265
    15  C    0.630706
    16  O   -0.450728
    17  O   -0.618285
    18  N   -0.599478
    19  H    0.368063
    20  C   -0.034962
    21  H    0.184249
    22  C    0.581125
    23  C   -0.353542
    24  H    0.178679
    25  H    0.169016
    26  O   -0.532758
    27  C    0.156654
    28  C   -0.187144
    29  H    0.157130
    30  C   -0.174785
    31  H    0.176439
    32  C   -0.161688
    33  H    0.151875
    34  C   -0.173847
    35  H    0.147264
    36  O   -0.694738
    37  H    0.434173
    38  C    0.309134
    39  N   -0.591049
    40  H    0.344217
    41  C   -0.087222
    42  H    0.181695
    43  C    0.611865
    44  C   -0.275666
    45  H    0.188470
    46  H    0.134157
    47  O   -0.605538
    48  C   -0.282566
    49  H    0.151731
    50  H    0.177172
    51  C   -0.298551
    52  H    0.143217
    53  H    0.195777
    54  C   -0.197769
    55  H    0.220289
    56  H    0.211799
    57  N   -0.774332
    58  H    0.411320
    59  H    0.452364
    60  H    0.404695
    61  O   -0.604453
    62  H    0.457823
 Sum of Mulliken charges =   1.00000

 Dipole moment (field-independent basis, Debye):
    X=              0.2273    Y=              3.6093    Z=            -18.2145  Tot=             18.5701
 Quadrupole moment (field-independent basis, Debye-Ang):
   XX=           -110.2149   YY=            -65.6922   ZZ=           -137.4490
   XY=             89.5337   XZ=            -54.6902   YZ=           -103.5870

 Normal termination of Gaussian 16 at Tue May 24 03:12:30 2022.
