 Gaussian 16, Revision C.01,
 Gaussian 16:  ES64L-G16RevC.01  3-Jul-2019

 -------------------------------------------------------------------
 # B3LYP/6-31G* guess=read geom=check nosymm integral(ultrafinegrid)
 -------------------------------------------------------------------

 -----------------------------------------------------
 Candidate Structure: Conf:28 Charge calc in gas phase
 -----------------------------------------------------
 Structure from the checkpoint file:  "conf-28.chk"
 Charge =  1 Multiplicity = 1

                          Input orientation:
 ---------------------------------------------------------------------
 Center     Atomic      Atomic             Coordinates (Angstroms)
 Number     Number       Type             X           Y           Z
 ---------------------------------------------------------------------
      1          7           0       -2.970823   -1.653571    2.879318
      2          1           0       -3.485851   -1.812101    1.992685
      3          1           0       -3.223800   -2.364206    3.571398
      4          1           0       -3.237109   -0.688306    3.182742
      5          6           0       -1.481323   -1.537528    2.613643
      6          1           0       -1.223858   -2.304038    1.879277
      7          6           0       -1.406393   -0.114209    2.006703
      8          6           0       -0.663465   -1.734213    3.897674
      9          1           0        0.392514   -1.658341    3.618861
     10          1           0       -0.811321   -2.764095    4.251131
     11          8           0       -2.217496    0.714148    2.444722
     12          6           0       -0.962527   -0.734866    5.031282
     13          1           0       -2.000728   -0.788198    5.371713
     14          1           0       -0.779282    0.289881    4.689686
     15          6           0       -0.104250   -0.991368    6.259379
     16          8           0       -0.527437   -1.151389    7.378057
     17          8           0        1.211671   -1.012522    5.942350
     18          7           0       -0.531531    0.084118    1.026807
     19          1           0        0.189644   -0.587746    0.760326
     20          6           0       -0.541766    1.257812    0.158431
     21          1           0       -0.877586    2.120009    0.737256
     22          6           0        0.915509    1.417488   -0.333337
     23          6           0       -1.488565    1.013120   -1.062812
     24          1           0       -1.587013    1.965426   -1.594890
     25          1           0       -0.976057    0.316953   -1.737291
     26          8           0        1.598945    0.381191   -0.455065
     27          6           0       -2.844132    0.453805   -0.690038
     28          6           0       -3.063595   -0.930428   -0.656476
     29          1           0       -2.279403   -1.602761   -0.998670
     30          6           0       -3.904054    1.287208   -0.303984
     31          1           0       -3.771499    2.365841   -0.324640
     32          6           0       -4.276845   -1.475241   -0.216560
     33          1           0       -4.467808   -2.544803   -0.264134
     34          6           0       -5.124031    0.768993    0.123653
     35          1           0       -5.927717    1.441468    0.416081
     36          8           0       -6.475980   -1.195490    0.600422
     37          1           0       -7.149946   -0.511248    0.741667
     38          6           0       -5.316072   -0.617480    0.176792
     39          7           0        1.264609    2.661732   -0.618882
     40          1           0        0.703073    3.501825   -0.334719
     41          6           0        2.585082    3.201816   -0.924647
     42          1           0        3.305752    2.850820   -0.173130
     43          6           0        2.416415    4.786950   -0.723365
     44          6           0        3.131746    2.918083   -2.323780
     45          1           0        2.313251    2.973519   -3.054845
     46          1           0        3.809476    3.757868   -2.522926
     47          8           0        3.402717    5.458946   -1.054711
     48          6           0        3.896550    1.596920   -2.481183
     49          1           0        3.230758    0.737593   -2.345087
     50          1           0        4.656769    1.532086   -1.689943
     51          6           0        4.599809    1.540364   -3.850126
     52          1           0        3.851108    1.538879   -4.655332
     53          1           0        5.204187    2.451377   -3.970083
     54          6           0        5.494245    0.319573   -3.975080
     55          1           0        6.261151    0.282592   -3.197593
     56          1           0        4.939110   -0.621544   -3.975645
     57          7           0        6.260761    0.356450   -5.308671
     58          1           0        6.886088   -0.448887   -5.431957
     59          1           0        6.829015    1.210428   -5.368492
     60          1           0        5.607608    0.375258   -6.101064
     61          8           0        1.291645    5.117358   -0.255847
     62          1           0        1.702256   -1.154406    6.774892
 ---------------------------------------------------------------------

 SCF Done:  E(RB3LYP) =  -1526.12863579     A.U. after    1 cycles

 Alpha  occ. eigenvalues --  -19.28399 -19.27360 -19.24037 -19.22653 -19.17724
 Alpha  occ. eigenvalues --  -19.08827 -19.07650 -14.63577 -14.58390 -14.47196
 Alpha  occ. eigenvalues --  -14.39473 -10.41292 -10.41156 -10.40151 -10.39309
 Alpha  occ. eigenvalues --  -10.34962 -10.34589 -10.33168 -10.31767 -10.31744
 Alpha  occ. eigenvalues --  -10.31039 -10.29143 -10.28707 -10.28535 -10.28482
 Alpha  occ. eigenvalues --  -10.28379 -10.28038 -10.26791 -10.26673 -10.24514
 Alpha  occ. eigenvalues --  -10.23196  -1.19226  -1.17397  -1.16893  -1.15476
 Alpha  occ. eigenvalues --   -1.12085  -1.10350  -1.09071  -1.03581  -1.01946
 Alpha  occ. eigenvalues --   -0.96511  -0.94921  -0.93318  -0.93272  -0.93021
 Alpha  occ. eigenvalues --   -0.87985  -0.85789  -0.84828  -0.84420  -0.82262
 Alpha  occ. eigenvalues --   -0.78870  -0.77408  -0.76075  -0.76015  -0.74672
 Alpha  occ. eigenvalues --   -0.72355  -0.71649  -0.71542  -0.71090  -0.69817
 Alpha  occ. eigenvalues --   -0.69259  -0.68009  -0.67184  -0.64758  -0.63942
 Alpha  occ. eigenvalues --   -0.63686  -0.61076  -0.60898  -0.60620  -0.59765
 Alpha  occ. eigenvalues --   -0.58078  -0.57860  -0.57332  -0.56136  -0.55688
 Alpha  occ. eigenvalues --   -0.55110  -0.54711  -0.54103  -0.53594  -0.53555
 Alpha  occ. eigenvalues --   -0.52916  -0.52701  -0.51739  -0.51241  -0.50477
 Alpha  occ. eigenvalues --   -0.50290  -0.50139  -0.49058  -0.48592  -0.48151
 Alpha  occ. eigenvalues --   -0.48063  -0.47478  -0.47036  -0.46763  -0.46271
 Alpha  occ. eigenvalues --   -0.45210  -0.44657  -0.44076  -0.43229  -0.42863
 Alpha  occ. eigenvalues --   -0.42118  -0.40676  -0.40525  -0.40255  -0.38794
 Alpha  occ. eigenvalues --   -0.38642  -0.38148  -0.36978  -0.36173  -0.36085
 Alpha  occ. eigenvalues --   -0.34844  -0.32383  -0.31245  -0.30321  -0.23789
 Alpha  occ. eigenvalues --   -0.23778  -0.22061
 Alpha virt. eigenvalues --   -0.14154  -0.11213  -0.10806  -0.09137  -0.08157
 Alpha virt. eigenvalues --   -0.07806  -0.07516  -0.07315  -0.04750  -0.03914
 Alpha virt. eigenvalues --   -0.03248  -0.02711  -0.01642  -0.01254  -0.00620

 Mulliken charges:
               1
     1  N   -0.754378
     2  H    0.415031
     3  H    0.404866
     4  H    0.428025
     5  C   -0.122291
     6  H    0.200717
     7  C    0.678261
     8  C   -0.300466
     9  H    0.218361
    10  H    0.175169
    11  O   -0.544538
    12  C   -0.363307
    13  H    0.166745
    14  H    0.222855
    15  C    0.575459
    16  O   -0.431277
    17  O   -0.559862
    18  N   -0.605952
    19  H    0.355952
    20  C   -0.060241
    21  H    0.202399
    22  C    0.617343
    23  C   -0.363048
    24  H    0.186856
    25  H    0.160828
    26  O   -0.593300
    27  C    0.172915
    28  C   -0.203190
    29  H    0.135295
    30  C   -0.158404
    31  H    0.164773
    32  C   -0.255232
    33  H    0.158900
    34  C   -0.190917
    35  H    0.150032
    36  O   -0.635742
    37  H    0.422995
    38  C    0.354075
    39  N   -0.614514
    40  H    0.365938
    41  C   -0.067292
    42  H    0.142501
    43  C    0.589139
    44  C   -0.267083
    45  H    0.127984
    46  H    0.181708
    47  O   -0.576147
    48  C   -0.274564
    49  H    0.174315
    50  H    0.145255
    51  C   -0.291641
    52  H    0.160714
    53  H    0.168548
    54  C   -0.205803
    55  H    0.226132
    56  H    0.222363
    57  N   -0.731083
    58  H    0.424800
    59  H    0.427217
    60  H    0.423954
    61  O   -0.606159
    62  H    0.428008
 Sum of Mulliken charges =   1.00000

 Dipole moment (field-independent basis, Debye):
    X=              8.6145    Y=            -17.7102    Z=            -11.5369  Tot=             22.8246
 Quadrupole moment (field-independent basis, Debye-Ang):
   XX=             10.7843   YY=           -247.7380   ZZ=            -47.0515
   XY=            -23.0585   XZ=           -139.2702   YZ=            -17.1178

 Normal termination of Gaussian 16 at Tue May 24 03:11:26 2022.
