 Gaussian 16, Revision C.01,
 Gaussian 16:  ES64L-G16RevC.01  3-Jul-2019

 -------------------------------------------------------------------
 # B3LYP/6-31G* guess=read geom=check nosymm integral(ultrafinegrid)
 -------------------------------------------------------------------

 ------------------------------------------------------
 Candidate Structure: Conf:684 Charge calc in gas phase
 ------------------------------------------------------
 Structure from the checkpoint file:  "conf-684.chk"
 Charge =  1 Multiplicity = 1

                          Input orientation:
 ---------------------------------------------------------------------
 Center     Atomic      Atomic             Coordinates (Angstroms)
 Number     Number       Type             X           Y           Z
 ---------------------------------------------------------------------
      1          7           0        1.428524   -1.468992    3.016357
      2          1           0        2.009400   -0.544479    2.899410
      3          1           0        1.384918   -1.778453    3.989898
      4          1           0        1.903649   -2.175489    2.436860
      5          6           0        0.068431   -1.246380    2.411860
      6          1           0       -0.331306   -0.335406    2.866840
      7          6           0        0.384915   -1.047314    0.911141
      8          6           0       -0.842554   -2.453619    2.679369
      9          1           0       -0.879003   -2.630329    3.762562
     10          1           0       -0.404774   -3.344583    2.217128
     11          8           0        1.277643   -1.729615    0.414052
     12          6           0       -2.271400   -2.246695    2.151242
     13          1           0       -2.255648   -2.137482    1.058988
     14          1           0       -2.729749   -1.345365    2.569282
     15          6           0       -3.212147   -3.397503    2.472925
     16          8           0       -4.351603   -3.268419    2.846942
     17          8           0       -2.620967   -4.597401    2.262288
     18          7           0       -0.316738   -0.101907    0.248791
     19          1           0       -1.040597    0.401953    0.744172
     20          6           0        0.001037    0.315265   -1.137657
     21          1           0       -0.578153    1.231251   -1.296485
     22          6           0        1.509586    0.687935   -1.206702
     23          6           0       -0.407937   -0.723738   -2.205670
     24          1           0        0.370687   -1.487823   -2.262480
     25          1           0       -1.322776   -1.209789   -1.846288
     26          8           0        2.270808    0.221144   -2.038355
     27          6           0       -0.670623   -0.105935   -3.565247
     28          6           0       -1.932866    0.431304   -3.863921
     29          1           0       -2.727380    0.384224   -3.120803
     30          6           0        0.317549   -0.048718   -4.554551
     31          1           0        1.304786   -0.446870   -4.344251
     32          6           0       -2.206466    1.009773   -5.098340
     33          1           0       -3.186096    1.416121   -5.328388
     34          6           0        0.057860    0.523873   -5.799184
     35          1           0        0.838337    0.553667   -6.557403
     36          8           0       -1.525574    1.630175   -7.271062
     37          1           0       -0.762129    1.580601   -7.867429
     38          6           0       -1.205552    1.056905   -6.076064
     39          7           0        1.905601    1.598302   -0.252347
     40          1           0        1.260799    1.744704    0.516047
     41          6           0        3.296995    1.608548    0.187355
     42          1           0        3.851529    1.126704   -0.620362
     43          6           0        3.416197    0.752060    1.468439
     44          6           0        3.832125    3.035670    0.406948
     45          1           0        3.622829    3.611618   -0.502520
     46          1           0        3.261586    3.506084    1.217445
     47          8           0        4.476486    0.088145    1.672607
     48          6           0        5.332638    3.111836    0.742761
     49          1           0        5.536600    2.542427    1.657947
     50          1           0        5.560464    4.154024    0.988390
     51          6           0        6.289018    2.653700   -0.393993
     52          1           0        5.742446    2.524310   -1.338862
     53          1           0        7.019683    3.445250   -0.593745
     54          6           0        7.119621    1.398987   -0.112033
     55          1           0        7.907189    1.279477   -0.861774
     56          1           0        7.591823    1.454836    0.872820
     57          7           0        6.298098    0.135980   -0.113749
     58          1           0        6.888630   -0.678254    0.077413
     59          1           0        5.870206   -0.018796   -1.031656
     60          1           0        5.459517    0.139495    0.675181
     61          8           0        2.423345    0.770116    2.249744
     62          1           0       -3.290317   -5.280635    2.460858
 ---------------------------------------------------------------------

 SCF Done:  E(RB3LYP) =  -1526.22637346     A.U. after    1 cycles

 Alpha  occ. eigenvalues --  -19.28834 -19.24948 -19.23778 -19.23706 -19.23165
 Alpha  occ. eigenvalues --  -19.22986 -19.21745 -14.55483 -14.54124 -14.49500
 Alpha  occ. eigenvalues --  -14.45240 -10.42300 -10.41569 -10.40637 -10.38785
 Alpha  occ. eigenvalues --  -10.38774 -10.36363 -10.34346 -10.33067 -10.32942
 Alpha  occ. eigenvalues --  -10.31606 -10.31061 -10.30988 -10.29334 -10.29083
 Alpha  occ. eigenvalues --  -10.27342 -10.25673 -10.25548 -10.25192 -10.25033
 Alpha  occ. eigenvalues --  -10.24614  -1.19629  -1.17476  -1.16633  -1.13482
 Alpha  occ. eigenvalues --   -1.11818  -1.10734  -1.10632  -1.09442  -1.07400
 Alpha  occ. eigenvalues --   -1.05462  -1.01916  -0.93349  -0.91833  -0.91575
 Alpha  occ. eigenvalues --   -0.88302  -0.86669  -0.84896  -0.81704  -0.80915
 Alpha  occ. eigenvalues --   -0.80005  -0.76962  -0.75280  -0.73793  -0.71688
 Alpha  occ. eigenvalues --   -0.71160  -0.70844  -0.70267  -0.69255  -0.68446
 Alpha  occ. eigenvalues --   -0.68060  -0.67745  -0.67251  -0.65330  -0.64692
 Alpha  occ. eigenvalues --   -0.63491  -0.61456  -0.61367  -0.60524  -0.60244
 Alpha  occ. eigenvalues --   -0.59019  -0.58317  -0.57771  -0.57104  -0.56628
 Alpha  occ. eigenvalues --   -0.56484  -0.56189  -0.54997  -0.54632  -0.54202
 Alpha  occ. eigenvalues --   -0.53811  -0.53113  -0.52916  -0.52416  -0.52028
 Alpha  occ. eigenvalues --   -0.51400  -0.50552  -0.50010  -0.49413  -0.49032
 Alpha  occ. eigenvalues --   -0.48826  -0.48734  -0.48248  -0.47994  -0.47859
 Alpha  occ. eigenvalues --   -0.47358  -0.46950  -0.46331  -0.46215  -0.45280
 Alpha  occ. eigenvalues --   -0.44344  -0.43643  -0.43375  -0.42465  -0.40897
 Alpha  occ. eigenvalues --   -0.39872  -0.39720  -0.39429  -0.38861  -0.38721
 Alpha  occ. eigenvalues --   -0.38634  -0.37650  -0.36506  -0.35038  -0.34464
 Alpha  occ. eigenvalues --   -0.31350  -0.27947
 Alpha virt. eigenvalues --   -0.11834  -0.09049  -0.08481  -0.07993  -0.07434
 Alpha virt. eigenvalues --   -0.06810  -0.06401  -0.05167  -0.05028  -0.02724
 Alpha virt. eigenvalues --   -0.01790  -0.01382  -0.00929  -0.00169   0.00610

 Mulliken charges:
               1
     1  N   -0.764381
     2  H    0.450971
     3  H    0.390975
     4  H    0.405273
     5  C   -0.108138
     6  H    0.195294
     7  C    0.664672
     8  C   -0.282628
     9  H    0.170928
    10  H    0.202925
    11  O   -0.524726
    12  C   -0.370145
    13  H    0.196883
    14  H    0.184122
    15  C    0.579820
    16  O   -0.430719
    17  O   -0.561521
    18  N   -0.628816
    19  H    0.346998
    20  C   -0.060128
    21  H    0.187791
    22  C    0.624445
    23  C   -0.349546
    24  H    0.191823
    25  H    0.146922
    26  O   -0.503661
    27  C    0.141950
    28  C   -0.191389
    29  H    0.117703
    30  C   -0.178886
    31  H    0.152162
    32  C   -0.154684
    33  H    0.151183
    34  C   -0.194121
    35  H    0.126821
    36  O   -0.633801
    37  H    0.412868
    38  C    0.354257
    39  N   -0.579727
    40  H    0.329235
    41  C   -0.075614
    42  H    0.148750
    43  C    0.666803
    44  C   -0.275435
    45  H    0.171687
    46  H    0.162254
    47  O   -0.606891
    48  C   -0.296850
    49  H    0.161992
    50  H    0.174281
    51  C   -0.288171
    52  H    0.165419
    53  H    0.188079
    54  C   -0.185750
    55  H    0.195480
    56  H    0.204485
    57  N   -0.782809
    58  H    0.390735
    59  H    0.391917
    60  H    0.469527
    61  O   -0.617230
    62  H    0.428338
 Sum of Mulliken charges =   1.00000

 Dipole moment (field-independent basis, Debye):
    X=             15.9582    Y=             -1.0891    Z=              4.9321  Tot=             16.7385
 Quadrupole moment (field-independent basis, Debye-Ang):
   XX=            -69.7696   YY=           -152.1964   ZZ=           -141.2227
   XY=             15.7771   XZ=             -7.2262   YZ=            -19.4531

 Normal termination of Gaussian 16 at Tue May 24 03:12:15 2022.
