 Gaussian 16, Revision C.01,
 Gaussian 16:  ES64L-G16RevC.01  3-Jul-2019

 -------------------------------------------------------------------
 # B3LYP/6-31G* guess=read geom=check nosymm integral(ultrafinegrid)
 -------------------------------------------------------------------

 ------------------------------------------------------
 Candidate Structure: Conf:549 Charge calc in gas phase
 ------------------------------------------------------
 Structure from the checkpoint file:  "conf-549.chk"
 Charge =  1 Multiplicity = 1

                          Input orientation:
 ---------------------------------------------------------------------
 Center     Atomic      Atomic             Coordinates (Angstroms)
 Number     Number       Type             X           Y           Z
 ---------------------------------------------------------------------
      1          7           0        1.036213   -1.963254    3.182767
      2          1           0        1.703117   -1.130842    3.201634
      3          1           0        0.969147   -2.413515    4.098203
      4          1           0        1.433322   -2.608749    2.482174
      5          6           0       -0.298426   -1.511688    2.637131
      6          1           0       -0.596149   -0.637576    3.223259
      7          6           0        0.045840   -1.130218    1.180386
      8          6           0       -1.350986   -2.624062    2.696842
      9          1           0       -0.980694   -3.499926    2.150580
     10          1           0       -2.229611   -2.286154    2.136920
     11          8           0        0.937609   -1.760891    0.613912
     12          6           0       -1.789438   -3.020662    4.110299
     13          1           0       -2.118424   -2.146650    4.688422
     14          1           0       -0.987877   -3.489749    4.696100
     15          6           0       -2.952025   -4.002980    4.057540
     16          8           0       -3.542918   -4.314140    3.049826
     17          8           0       -3.241742   -4.472730    5.285014
     18          7           0       -0.616448   -0.085908    0.645274
     19          1           0       -1.435893    0.271068    1.119383
     20          6           0       -0.323092    0.418444   -0.712598
     21          1           0       -0.868333    1.366650   -0.784750
     22          6           0        1.193506    0.734622   -0.813868
     23          6           0       -0.803475   -0.524026   -1.835038
     24          1           0       -0.588699   -0.024301   -2.785001
     25          1           0       -0.190620   -1.428805   -1.814554
     26          8           0        1.861889    0.419014   -1.781913
     27          6           0       -2.273647   -0.857829   -1.705193
     28          6           0       -2.690922   -2.046700   -1.086218
     29          1           0       -1.943962   -2.767905   -0.760533
     30          6           0       -3.263751    0.024679   -2.154888
     31          1           0       -2.978161    0.946247   -2.658449
     32          6           0       -4.038873   -2.343684   -0.904721
     33          1           0       -4.354891   -3.268334   -0.432102
     34          6           0       -4.619154   -0.257483   -1.986319
     35          1           0       -5.370194    0.438999   -2.353993
     36          8           0       -6.316980   -1.780635   -1.152774
     37          1           0       -6.892690   -1.110078   -1.553020
     38          6           0       -5.012505   -1.443524   -1.355430
     39          7           0        1.695094    1.432103    0.263825
     40          1           0        1.092514    1.494337    1.075662
     41          6           0        3.107284    1.330878    0.607479
     42          1           0        3.600059    0.910022   -0.271062
     43          6           0        3.235872    0.351644    1.787583
     44          6           0        3.724293    2.704541    0.949907
     45          1           0        3.470403    3.378380    0.123368
     46          1           0        3.222847    3.098336    1.843257
     47          8           0        4.303646   -0.383164    1.888664
     48          6           0        5.246632    2.705246    1.175223
     49          1           0        5.504509    2.020973    1.993907
     50          1           0        5.515413    3.702915    1.538033
     51          6           0        6.101732    2.379954   -0.079831
     52          1           0        5.472497    2.357600   -0.981338
     53          1           0        6.818246    3.191139   -0.249913
     54          6           0        6.918204    1.086280   -0.004825
     55          1           0        7.640629    1.057214   -0.830283
     56          1           0        7.489278    1.057320    0.929421
     57          7           0        6.060226   -0.131107   -0.030049
     58          1           0        6.646503   -0.962242    0.064708
     59          1           0        5.613486   -0.215140   -0.945579
     60          1           0        4.994986   -0.245351    1.091091
     61          8           0        2.321209    0.287667    2.625806
     62          1           0       -4.001491   -5.079902    5.192681
 ---------------------------------------------------------------------

 SCF Done:  E(RB3LYP) =  -1526.23322196     A.U. after    1 cycles

 Alpha  occ. eigenvalues --  -19.29599 -19.28206 -19.25798 -19.25439 -19.24933
 Alpha  occ. eigenvalues --  -19.24247 -19.21749 -14.57567 -14.49908 -14.46578
 Alpha  occ. eigenvalues --  -14.45554 -10.43215 -10.43038 -10.42713 -10.39842
 Alpha  occ. eigenvalues --  -10.38963 -10.34700 -10.33900 -10.33304 -10.32948
 Alpha  occ. eigenvalues --  -10.32449 -10.32306 -10.29014 -10.28591 -10.28340
 Alpha  occ. eigenvalues --  -10.27652 -10.27015 -10.26951 -10.26881 -10.26573
 Alpha  occ. eigenvalues --  -10.26035  -1.20669  -1.20388  -1.18269  -1.13666
 Alpha  occ. eigenvalues --   -1.13077  -1.12567  -1.11885  -1.11476  -1.06105
 Alpha  occ. eigenvalues --   -1.02411  -1.01725  -0.94199  -0.93114  -0.90409
 Alpha  occ. eigenvalues --   -0.88893  -0.86244  -0.85375  -0.82389  -0.81931
 Alpha  occ. eigenvalues --   -0.79540  -0.78118  -0.74857  -0.73070  -0.72987
 Alpha  occ. eigenvalues --   -0.72586  -0.71520  -0.70516  -0.69742  -0.69438
 Alpha  occ. eigenvalues --   -0.68361  -0.67928  -0.66718  -0.65677  -0.63825
 Alpha  occ. eigenvalues --   -0.62996  -0.61928  -0.61887  -0.60753  -0.59806
 Alpha  occ. eigenvalues --   -0.58922  -0.58366  -0.58057  -0.57963  -0.57661
 Alpha  occ. eigenvalues --   -0.57285  -0.55968  -0.55095  -0.54870  -0.54610
 Alpha  occ. eigenvalues --   -0.54235  -0.53769  -0.52771  -0.52436  -0.52229
 Alpha  occ. eigenvalues --   -0.51419  -0.50768  -0.50442  -0.50049  -0.49710
 Alpha  occ. eigenvalues --   -0.49419  -0.49302  -0.48866  -0.48249  -0.48159
 Alpha  occ. eigenvalues --   -0.47619  -0.47007  -0.46640  -0.46027  -0.44649
 Alpha  occ. eigenvalues --   -0.44073  -0.43551  -0.43111  -0.42809  -0.41887
 Alpha  occ. eigenvalues --   -0.41799  -0.41207  -0.40466  -0.40023  -0.39851
 Alpha  occ. eigenvalues --   -0.39221  -0.38563  -0.37930  -0.35608  -0.34997
 Alpha  occ. eigenvalues --   -0.32910  -0.29297
 Alpha virt. eigenvalues --   -0.12573  -0.10507  -0.09679  -0.08675  -0.08094
 Alpha virt. eigenvalues --   -0.07830  -0.06676  -0.04897  -0.04051  -0.02871
 Alpha virt. eigenvalues --   -0.02076  -0.01391   0.00039   0.00188   0.00309

 Mulliken charges:
               1
     1  N   -0.759087
     2  H    0.447816
     3  H    0.399172
     4  H    0.412101
     5  C   -0.128150
     6  H    0.200013
     7  C    0.673927
     8  C   -0.283016
     9  H    0.192067
    10  H    0.214291
    11  O   -0.530671
    12  C   -0.381534
    13  H    0.199144
    14  H    0.172572
    15  C    0.597359
    16  O   -0.438798
    17  O   -0.557528
    18  N   -0.623596
    19  H    0.354100
    20  C   -0.066359
    21  H    0.186080
    22  C    0.625812
    23  C   -0.357872
    24  H    0.184019
    25  H    0.189049
    26  O   -0.495728
    27  C    0.157574
    28  C   -0.213678
    29  H    0.130303
    30  C   -0.198804
    31  H    0.135752
    32  C   -0.163506
    33  H    0.161950
    34  C   -0.190446
    35  H    0.136411
    36  O   -0.631716
    37  H    0.415635
    38  C    0.352616
    39  N   -0.587570
    40  H    0.332382
    41  C   -0.081577
    42  H    0.181410
    43  C    0.648833
    44  C   -0.275960
    45  H    0.176342
    46  H    0.156317
    47  O   -0.593103
    48  C   -0.291091
    49  H    0.151113
    50  H    0.170132
    51  C   -0.279119
    52  H    0.155484
    53  H    0.174072
    54  C   -0.155641
    55  H    0.169125
    56  H    0.175856
    57  N   -0.799749
    58  H    0.352801
    59  H    0.351913
    60  H    0.491562
    61  O   -0.572127
    62  H    0.431321
 Sum of Mulliken charges =   1.00000

 Dipole moment (field-independent basis, Debye):
    X=              6.2646    Y=             -2.1626    Z=             10.3018  Tot=             12.2494
 Quadrupole moment (field-independent basis, Debye-Ang):
   XX=            -80.4739   YY=           -151.8349   ZZ=           -139.0950
   XY=              4.4959   XZ=             -1.3206   YZ=            -31.6986

 Normal termination of Gaussian 16 at Tue May 24 03:12:00 2022.
