 Gaussian 16, Revision C.01,
 Gaussian 16:  ES64L-G16RevC.01  3-Jul-2019

 -------------------------------------------------------------------
 # B3LYP/6-31G* guess=read geom=check nosymm integral(ultrafinegrid)
 -------------------------------------------------------------------

 -----------------------------------------------------
 Candidate Structure: Conf:14 Charge calc in gas phase
 -----------------------------------------------------
 Structure from the checkpoint file:  "conf-14.chk"
 Charge =  1 Multiplicity = 1

                          Input orientation:
 ---------------------------------------------------------------------
 Center     Atomic      Atomic             Coordinates (Angstroms)
 Number     Number       Type             X           Y           Z
 ---------------------------------------------------------------------
      1          7           0        0.804975   -0.433177    3.202779
      2          1           0        1.871566    0.771013    2.594843
      3          1           0        0.624498   -0.518582    4.202205
      4          1           0        1.277852   -1.287102    2.898613
      5          6           0       -0.470405   -0.335509    2.456985
      6          1           0       -0.910057    0.645163    2.680353
      7          6           0       -0.086591   -0.424814    0.967500
      8          6           0       -1.470787   -1.447244    2.837530
      9          1           0       -1.592432   -1.445965    3.926508
     10          1           0       -1.032786   -2.413709    2.558980
     11          8           0        0.729544   -1.263048    0.598101
     12          6           0       -2.852697   -1.287621    2.179679
     13          1           0       -2.789272   -1.330925    1.089714
     14          1           0       -3.281444   -0.313701    2.456464
     15          6           0       -3.846336   -2.354772    2.599024
     16          8           0       -4.501382   -3.034953    1.845593
     17          8           0       -3.933422   -2.453989    3.949750
     18          7           0       -0.656967    0.476275    0.119069
     19          1           0       -1.367091    1.100058    0.477732
     20          6           0       -0.360440    0.516448   -1.326149
     21          1           0       -0.759458    1.476127   -1.675636
     22          6           0        1.178512    0.550621   -1.532757
     23          6           0       -1.034664   -0.621716   -2.128898
     24          1           0       -0.424077   -1.522295   -2.030846
     25          1           0       -1.998794   -0.824069   -1.647141
     26          8           0        1.761363   -0.169047   -2.323522
     27          6           0       -1.271607   -0.277091   -3.586324
     28          6           0       -2.415982    0.442417   -3.964679
     29          1           0       -3.140070    0.736674   -3.206530
     30          6           0       -0.377454   -0.660383   -4.592523
     31          1           0        0.521652   -1.204740   -4.323992
     32          6           0       -2.665242    0.776160   -5.292097
     33          1           0       -3.556635    1.324301   -5.580226
     34          6           0       -0.615507   -0.338789   -5.928438
     35          1           0        0.089700   -0.651713   -6.696803
     36          8           0       -2.049774    0.728124   -7.573338
     37          1           0       -1.369469    0.362696   -8.160110
     38          6           0       -1.760243    0.381789   -6.283482
     39          7           0        1.825460    1.495575   -0.757996
     40          1           0        1.259453    1.888521   -0.014315
     41          6           0        3.193995    1.230958   -0.325939
     42          1           0        3.539639    0.359414   -0.889025
     43          6           0        3.209578    0.834684    1.161674
     44          6           0        4.145842    2.413490   -0.608572
     45          1           0        3.986620    2.720992   -1.648848
     46          1           0        3.872746    3.268760    0.024898
     47          8           0        4.065094    0.122948    1.646925
     48          6           0        5.616476    2.031556   -0.386029
     49          1           0        5.876848    1.205380   -1.061107
     50          1           0        5.749077    1.650164    0.632618
     51          6           0        6.576021    3.208750   -0.631096
     52          1           0        6.455321    3.580789   -1.658433
     53          1           0        6.327792    4.036117    0.048732
     54          6           0        8.016371    2.770507   -0.405243
     55          1           0        8.195521    2.437844    0.619996
     56          1           0        8.326028    1.980433   -1.093589
     57          7           0        8.988014    3.933950   -0.643125
     58          1           0        9.967150    3.658978   -0.496521
     59          1           0        8.784798    4.716844   -0.009499
     60          1           0        8.903791    4.291498   -1.602731
     61          8           0        2.189774    1.380449    1.839355
     62          1           0       -4.594505   -3.148879    4.132097
 ---------------------------------------------------------------------

 SCF Done:  E(RB3LYP) =  -1526.18878493     A.U. after    2 cycles

 Alpha  occ. eigenvalues --  -19.25548 -19.24225 -19.22111 -19.20483 -19.19840
 Alpha  occ. eigenvalues --  -19.19750 -19.18652 -14.65643 -14.44991 -14.42620
 Alpha  occ. eigenvalues --  -14.42196 -10.42431 -10.38590 -10.38150 -10.37025
 Alpha  occ. eigenvalues --  -10.35712 -10.34905 -10.31686 -10.31074 -10.31061
 Alpha  occ. eigenvalues --  -10.30784 -10.29238 -10.29007 -10.27395 -10.27364
 Alpha  occ. eigenvalues --  -10.24579 -10.23614 -10.23552 -10.23220 -10.23130
 Alpha  occ. eigenvalues --  -10.22822  -1.19475  -1.16326  -1.15834  -1.12067
 Alpha  occ. eigenvalues --   -1.10356  -1.10144  -1.07491  -1.07359  -1.01040
 Alpha  occ. eigenvalues --   -0.99187  -0.98609  -0.95926  -0.89775  -0.88843
 Alpha  occ. eigenvalues --   -0.87308  -0.84766  -0.82827  -0.79841  -0.79011
 Alpha  occ. eigenvalues --   -0.78746  -0.78085  -0.77351  -0.75202  -0.72283
 Alpha  occ. eigenvalues --   -0.71280  -0.70235  -0.67825  -0.67134  -0.66694
 Alpha  occ. eigenvalues --   -0.66506  -0.66397  -0.64305  -0.63375  -0.62788
 Alpha  occ. eigenvalues --   -0.62202  -0.59817  -0.58664  -0.58126  -0.57126
 Alpha  occ. eigenvalues --   -0.56779  -0.55843  -0.55492  -0.54844  -0.54363
 Alpha  occ. eigenvalues --   -0.53478  -0.53108  -0.52721  -0.52539  -0.52278
 Alpha  occ. eigenvalues --   -0.51487  -0.50919  -0.50344  -0.50087  -0.49483
 Alpha  occ. eigenvalues --   -0.48511  -0.48310  -0.47710  -0.47413  -0.46814
 Alpha  occ. eigenvalues --   -0.46656  -0.46205  -0.45950  -0.45166  -0.45012
 Alpha  occ. eigenvalues --   -0.44931  -0.44297  -0.44011  -0.43635  -0.43478
 Alpha  occ. eigenvalues --   -0.42718  -0.42282  -0.41241  -0.40106  -0.37868
 Alpha  occ. eigenvalues --   -0.37802  -0.37680  -0.37247  -0.35945  -0.35559
 Alpha  occ. eigenvalues --   -0.34555  -0.33470  -0.32841  -0.31830  -0.31514
 Alpha  occ. eigenvalues --   -0.29446  -0.26047
 Alpha virt. eigenvalues --   -0.16022  -0.09300  -0.09276  -0.07099  -0.06790
 Alpha virt. eigenvalues --   -0.06318  -0.05252  -0.05151  -0.04427  -0.03357
 Alpha virt. eigenvalues --   -0.03059  -0.01928  -0.01107  -0.00723   0.00373

 Mulliken charges:
               1
     1  N   -0.776403
     2  H    0.457672
     3  H    0.331640
     4  H    0.355272
     5  C   -0.062749
     6  H    0.146013
     7  C    0.644968
     8  C   -0.281126
     9  H    0.171409
    10  H    0.177031
    11  O   -0.523324
    12  C   -0.362625
    13  H    0.187372
    14  H    0.168407
    15  C    0.572493
    16  O   -0.441530
    17  O   -0.563156
    18  N   -0.634729
    19  H    0.336261
    20  C   -0.054078
    21  H    0.174039
    22  C    0.620584
    23  C   -0.352032
    24  H    0.192892
    25  H    0.149982
    26  O   -0.495385
    27  C    0.145266
    28  C   -0.191289
    29  H    0.116173
    30  C   -0.177079
    31  H    0.157503
    32  C   -0.156492
    33  H    0.144115
    34  C   -0.196752
    35  H    0.121004
    36  O   -0.639294
    37  H    0.409347
    38  C    0.351205
    39  N   -0.599498
    40  H    0.342686
    41  C   -0.056766
    42  H    0.206636
    43  C    0.598756
    44  C   -0.274900
    45  H    0.167889
    46  H    0.148561
    47  O   -0.474904
    48  C   -0.283588
    49  H    0.165740
    50  H    0.188327
    51  C   -0.292096
    52  H    0.168674
    53  H    0.167865
    54  C   -0.207733
    55  H    0.234906
    56  H    0.232795
    57  N   -0.732186
    58  H    0.432620
    59  H    0.427835
    60  H    0.428084
    61  O   -0.631903
    62  H    0.419594
 Sum of Mulliken charges =   1.00000

 Dipole moment (field-independent basis, Debye):
    X=             33.9869    Y=             18.5617    Z=              1.3447  Tot=             38.7486
 Quadrupole moment (field-independent basis, Debye-Ang):
   XX=            152.0085   YY=           -114.4156   ZZ=           -146.6110
   XY=            147.3198   XZ=            -44.0092   YZ=            -15.6261

 Normal termination of Gaussian 16 at Tue May 24 03:12:00 2022.
