 Gaussian 16, Revision C.01,
 Gaussian 16:  ES64L-G16RevC.01  3-Jul-2019

 -------------------------------------------------------------------
 # B3LYP/6-31G* guess=read geom=check nosymm integral(ultrafinegrid)
 -------------------------------------------------------------------

 ------------------------------------------------------
 Candidate Structure: Conf:474 Charge calc in gas phase
 ------------------------------------------------------
 Structure from the checkpoint file:  "conf-474.chk"
 Charge =  1 Multiplicity = 1

                          Input orientation:
 ---------------------------------------------------------------------
 Center     Atomic      Atomic             Coordinates (Angstroms)
 Number     Number       Type             X           Y           Z
 ---------------------------------------------------------------------
      1          7           0        0.560332   -0.988917    3.137902
      2          1           0        1.594098    0.317695    2.620648
      3          1           0        0.306846   -1.111749    4.117240
      4          1           0        1.112785   -1.797578    2.848231
      5          6           0       -0.646863   -0.915094    2.289619
      6          1           0       -1.111287    0.062014    2.472422
      7          6           0       -0.147992   -0.979186    0.835490
      8          6           0       -1.714945   -1.998992    2.574741
      9          1           0       -2.585214   -1.805103    1.933472
     10          1           0       -2.058267   -1.873916    3.608767
     11          8           0        0.775419   -1.727476    0.526670
     12          6           0       -1.239936   -3.450094    2.366340
     13          1           0       -0.387599   -3.662257    3.022646
     14          1           0       -0.927103   -3.622722    1.335359
     15          6           0       -2.341271   -4.439983    2.686315
     16          8           0       -2.906588   -5.149722    1.888061
     17          8           0       -2.647432   -4.428626    4.009984
     18          7           0       -0.750108   -0.146891   -0.059715
     19          1           0       -1.550319    0.394457    0.238717
     20          6           0       -0.355689   -0.083061   -1.479241
     21          1           0       -0.813425    0.835605   -1.865607
     22          6           0        1.184464    0.090332   -1.577018
     23          6           0       -0.865314   -1.279994   -2.317195
     24          1           0       -0.187665   -2.123136   -2.164195
     25          1           0       -1.840400   -1.564179   -1.903796
     26          8           0        1.878240   -0.548425   -2.347876
     27          6           0       -1.021825   -0.967196   -3.792486
     28          6           0       -2.171057   -0.309132   -4.257818
     29          1           0       -2.955823   -0.036382   -3.553863
     30          6           0       -0.048123   -1.325472   -4.731438
     31          1           0        0.855967   -1.822024   -4.395176
     32          6           0       -2.349088   -0.011113   -5.605104
     33          1           0       -3.244523    0.488564   -5.960897
     34          6           0       -0.214097   -1.040477   -6.086488
     35          1           0        0.552211   -1.334875   -6.801859
     36          8           0       -1.587134   -0.072701   -7.841459
     37          1           0       -0.862058   -0.429219   -8.377939
     38          6           0       -1.365510   -0.381398   -6.528661
     39          7           0        1.697254    1.061501   -0.735940
     40          1           0        1.052033    1.383908   -0.023348
     41          6           0        3.050189    0.890559   -0.213810
     42          1           0        3.493578    0.047385   -0.750969
     43          6           0        2.999348    0.486221    1.270945
     44          6           0        3.931480    2.137544   -0.444330
     45          1           0        3.814520    2.401010   -1.503402
     46          1           0        3.538860    2.981821    0.139846
     47          8           0        3.868068   -0.170436    1.803930
     48          6           0        5.405053    1.886259   -0.088736
     49          1           0        5.786463    1.034389   -0.667607
     50          1           0        5.485123    1.587441    0.960276
     51          6           0        6.328518    3.101075   -0.305672
     52          1           0        5.941237    3.965790    0.251712
     53          1           0        7.323199    2.868521    0.099385
     54          6           0        6.460698    3.459328   -1.781179
     55          1           0        6.864447    2.634810   -2.374180
     56          1           0        5.521331    3.790944   -2.227308
     57          7           0        7.440882    4.623919   -1.965032
     58          1           0        7.555217    4.884470   -2.952341
     59          1           0        8.368971    4.383228   -1.595175
     60          1           0        7.120153    5.457210   -1.456525
     61          8           0        1.900844    0.952271    1.885264
     62          1           0       -3.365235   -5.078934    4.131901
 ---------------------------------------------------------------------

 SCF Done:  E(RB3LYP) =  -1526.18669161     A.U. after    1 cycles

 Alpha  occ. eigenvalues --  -19.25203 -19.24540 -19.22543 -19.20623 -19.20218
 Alpha  occ. eigenvalues --  -19.19460 -19.19083 -14.65671 -14.45255 -14.42615
 Alpha  occ. eigenvalues --  -14.42582 -10.42390 -10.38787 -10.37750 -10.37359
 Alpha  occ. eigenvalues --  -10.36151 -10.34970 -10.31884 -10.31495 -10.31458
 Alpha  occ. eigenvalues --  -10.30827 -10.29671 -10.29660 -10.27793 -10.26602
 Alpha  occ. eigenvalues --  -10.24947 -10.24041 -10.23972 -10.23662 -10.23581
 Alpha  occ. eigenvalues --  -10.23259  -1.19514  -1.16076  -1.15961  -1.12431
 Alpha  occ. eigenvalues --   -1.10769  -1.10574  -1.07726  -1.07014  -1.01384
 Alpha  occ. eigenvalues --   -0.99520  -0.98699  -0.95939  -0.90198  -0.88858
 Alpha  occ. eigenvalues --   -0.86952  -0.85106  -0.83291  -0.80329  -0.79449
 Alpha  occ. eigenvalues --   -0.78965  -0.78114  -0.77626  -0.75644  -0.72426
 Alpha  occ. eigenvalues --   -0.70965  -0.70456  -0.67975  -0.67656  -0.67210
 Alpha  occ. eigenvalues --   -0.66849  -0.66254  -0.64709  -0.63274  -0.62585
 Alpha  occ. eigenvalues --   -0.61615  -0.60177  -0.59102  -0.58342  -0.58114
 Alpha  occ. eigenvalues --   -0.56299  -0.55896  -0.55429  -0.54959  -0.54517
 Alpha  occ. eigenvalues --   -0.53738  -0.53298  -0.53286  -0.52835  -0.52714
 Alpha  occ. eigenvalues --   -0.51399  -0.50973  -0.50794  -0.49972  -0.49604
 Alpha  occ. eigenvalues --   -0.48876  -0.48518  -0.48079  -0.47675  -0.47394
 Alpha  occ. eigenvalues --   -0.46915  -0.46629  -0.46209  -0.45390  -0.45277
 Alpha  occ. eigenvalues --   -0.44682  -0.44393  -0.44197  -0.43977  -0.43507
 Alpha  occ. eigenvalues --   -0.42758  -0.42547  -0.41664  -0.40553  -0.38273
 Alpha  occ. eigenvalues --   -0.38033  -0.37654  -0.37382  -0.35959  -0.35594
 Alpha  occ. eigenvalues --   -0.34799  -0.33632  -0.32820  -0.32240  -0.31876
 Alpha  occ. eigenvalues --   -0.29879  -0.26466
 Alpha virt. eigenvalues --   -0.16025  -0.09349  -0.09309  -0.07862  -0.06899
 Alpha virt. eigenvalues --   -0.06231  -0.05470  -0.04902  -0.04765  -0.03439
 Alpha virt. eigenvalues --   -0.03172  -0.02151  -0.01647  -0.00467   0.00099

 Mulliken charges:
               1
     1  N   -0.777422
     2  H    0.457742
     3  H    0.333071
     4  H    0.358840
     5  C   -0.067579
     6  H    0.151504
     7  C    0.652142
     8  C   -0.289491
     9  H    0.159058
    10  H    0.174177
    11  O   -0.527917
    12  C   -0.337732
    13  H    0.164620
    14  H    0.201305
    15  C    0.559161
    16  O   -0.441890
    17  O   -0.564850
    18  N   -0.637606
    19  H    0.338119
    20  C   -0.052952
    21  H    0.173001
    22  C    0.617087
    23  C   -0.347083
    24  H    0.191614
    25  H    0.148566
    26  O   -0.497212
    27  C    0.147752
    28  C   -0.191743
    29  H    0.116016
    30  C   -0.175287
    31  H    0.155016
    32  C   -0.156908
    33  H    0.144429
    34  C   -0.197683
    35  H    0.120647
    36  O   -0.639338
    37  H    0.409318
    38  C    0.350578
    39  N   -0.603259
    40  H    0.344148
    41  C   -0.052919
    42  H    0.207867
    43  C    0.600265
    44  C   -0.283793
    45  H    0.149451
    46  H    0.150384
    47  O   -0.466746
    48  C   -0.281535
    49  H    0.165777
    50  H    0.206168
    51  C   -0.296924
    52  H    0.168353
    53  H    0.169979
    54  C   -0.205035
    55  H    0.232038
    56  H    0.232970
    57  N   -0.731708
    58  H    0.432607
    59  H    0.427926
    60  H    0.427713
    61  O   -0.632125
    62  H    0.417326
 Sum of Mulliken charges =   1.00000

 Dipole moment (field-independent basis, Debye):
    X=             26.9988    Y=             20.6530    Z=             -4.3219  Tot=             34.2660
 Quadrupole moment (field-independent basis, Debye-Ang):
   XX=             51.1823   YY=            -94.4004   ZZ=           -136.0408
   XY=            145.3114   XZ=            -78.7880   YZ=            -45.3932

 Normal termination of Gaussian 16 at Tue May 24 03:12:14 2022.
