 Gaussian 16, Revision C.01,
 Gaussian 16:  ES64L-G16RevC.01  3-Jul-2019

 -------------------------------------------------------------------
 # B3LYP/6-31G* guess=read geom=check nosymm integral(ultrafinegrid)
 -------------------------------------------------------------------

 ------------------------------------------------------
 Candidate Structure: Conf:306 Charge calc in gas phase
 ------------------------------------------------------
 Structure from the checkpoint file:  "conf-306.chk"
 Charge =  1 Multiplicity = 1

                          Input orientation:
 ---------------------------------------------------------------------
 Center     Atomic      Atomic             Coordinates (Angstroms)
 Number     Number       Type             X           Y           Z
 ---------------------------------------------------------------------
      1          7           0        0.926060   -1.097628    3.111102
      2          1           0        1.879335    0.260370    2.617807
      3          1           0        0.738107   -1.267500    4.097148
      4          1           0        1.477092   -1.880419    2.752998
      5          6           0       -0.331332   -1.034042    2.333398
      6          1           0       -0.841944   -0.103585    2.614809
      7          6           0        0.097939   -0.973802    0.856098
      8          6           0       -1.290630   -2.224695    2.536284
      9          1           0       -0.785180   -3.144628    2.219025
     10          1           0       -2.154883   -2.108182    1.872371
     11          8           0        1.029322   -1.665601    0.457325
     12          6           0       -1.798466   -2.371189    3.973231
     13          1           0       -2.202955   -1.419433    4.348168
     14          1           0       -1.004925   -2.659875    4.671977
     15          6           0       -2.912876   -3.397310    4.078769
     16          8           0       -3.542783   -3.847145    3.148955
     17          8           0       -3.140331   -3.741121    5.366402
     18          7           0       -0.576022   -0.105436    0.050874
     19          1           0       -1.385058    0.374829    0.421090
     20          6           0       -0.261556    0.062704   -1.380255
     21          1           0       -0.775271    0.982974   -1.682749
     22          6           0        1.263958    0.308590   -1.539626
     23          6           0       -0.766777   -1.102086   -2.268454
     24          1           0       -0.017690   -1.897447   -2.251428
     25          1           0       -1.672470   -1.494784   -1.792432
     26          8           0        1.946324   -0.258114   -2.374835
     27          6           0       -1.095516   -0.688154   -3.690213
     28          6           0       -0.128221   -0.688400   -4.707544
     29          1           0        0.886721   -0.987331   -4.468590
     30          6           0       -2.395468   -0.288838   -4.024548
     31          1           0       -3.174085   -0.295278   -3.263783
     32          6           0       -0.445008   -0.302839   -6.006160
     33          1           0        0.303013   -0.310852   -6.792886
     34          6           0       -2.728148    0.103326   -5.321290
     35          1           0       -3.748060    0.401713   -5.557778
     36          8           0       -2.002512    0.465262   -7.610711
     37          1           0       -2.942382    0.687665   -7.699477
     38          6           0       -1.749026    0.096744   -6.319203
     39          7           0        1.776307    1.252116   -0.669144
     40          1           0        1.155283    1.504122    0.091435
     41          6           0        3.161844    1.117789   -0.231202
     42          1           0        3.611856    0.335196   -0.848858
     43          6           0        3.214233    0.616450    1.223567
     44          6           0        3.974352    2.417874   -0.416640
     45          1           0        3.780681    2.781020   -1.432866
     46          1           0        3.607820    3.188509    0.275544
     47          8           0        4.155570   -0.005053    1.672264
     48          6           0        5.478743    2.187136   -0.213422
     49          1           0        5.825106    1.438117   -0.938085
     50          1           0        5.656450    1.759876    0.779745
     51          6           0        6.302322    3.475190   -0.383983
     52          1           0        6.132654    3.895752   -1.385388
     53          1           0        5.972164    4.226219    0.347632
     54          6           0        7.783639    3.182556   -0.190338
     55          1           0        8.008574    2.811432    0.812420
     56          1           0        8.168945    2.472462   -0.926021
     57          7           0        8.621985    4.456073   -0.362931
     58          1           0        9.626520    4.280439   -0.237096
     59          1           0        8.342331    5.174135    0.316643
     60          1           0        8.489461    4.857608   -1.299413
     61          8           0        2.122179    0.963647    1.919500
     62          1           0       -3.880486   -4.377914    5.359164
 ---------------------------------------------------------------------

 SCF Done:  E(RB3LYP) =  -1526.19042047     A.U. after    1 cycles

 Alpha  occ. eigenvalues --  -19.25721 -19.24108 -19.22028 -19.20334 -19.20201
 Alpha  occ. eigenvalues --  -19.19625 -19.18532 -14.65518 -14.44687 -14.42397
 Alpha  occ. eigenvalues --  -14.42024 -10.42295 -10.38525 -10.38466 -10.36792
 Alpha  occ. eigenvalues --  -10.35584 -10.34755 -10.31448 -10.30902 -10.30882
 Alpha  occ. eigenvalues --  -10.30607 -10.29140 -10.28840 -10.27732 -10.26859
 Alpha  occ. eigenvalues --  -10.24371 -10.23657 -10.23458 -10.23301 -10.22776
 Alpha  occ. eigenvalues --  -10.22518  -1.19350  -1.16663  -1.15692  -1.11869
 Alpha  occ. eigenvalues --   -1.10225  -1.10050  -1.07752  -1.07356  -1.00829
 Alpha  occ. eigenvalues --   -0.98990  -0.98390  -0.95782  -0.89635  -0.88678
 Alpha  occ. eigenvalues --   -0.86975  -0.84674  -0.82675  -0.80193  -0.78895
 Alpha  occ. eigenvalues --   -0.78746  -0.77961  -0.77348  -0.75061  -0.72261
 Alpha  occ. eigenvalues --   -0.71126  -0.70383  -0.67714  -0.67025  -0.66394
 Alpha  occ. eigenvalues --   -0.66318  -0.65283  -0.64054  -0.63237  -0.62803
 Alpha  occ. eigenvalues --   -0.61863  -0.59601  -0.58440  -0.57998  -0.57038
 Alpha  occ. eigenvalues --   -0.56585  -0.56489  -0.55374  -0.55201  -0.54286
 Alpha  occ. eigenvalues --   -0.54027  -0.53353  -0.53129  -0.52293  -0.51781
 Alpha  occ. eigenvalues --   -0.51331  -0.50631  -0.50464  -0.49852  -0.49509
 Alpha  occ. eigenvalues --   -0.48392  -0.47973  -0.47668  -0.47396  -0.46951
 Alpha  occ. eigenvalues --   -0.46330  -0.46077  -0.45808  -0.45009  -0.44829
 Alpha  occ. eigenvalues --   -0.44552  -0.44351  -0.43890  -0.43461  -0.43243
 Alpha  occ. eigenvalues --   -0.42388  -0.42007  -0.41425  -0.39606  -0.37984
 Alpha  occ. eigenvalues --   -0.37782  -0.37653  -0.37125  -0.35629  -0.35297
 Alpha  occ. eigenvalues --   -0.34296  -0.33847  -0.33023  -0.31706  -0.31397
 Alpha  occ. eigenvalues --   -0.29319  -0.25975
 Alpha virt. eigenvalues --   -0.15903  -0.09182  -0.09154  -0.06981  -0.06667
 Alpha virt. eigenvalues --   -0.06033  -0.05264  -0.04901  -0.04269  -0.03220
 Alpha virt. eigenvalues --   -0.02964  -0.01796  -0.01101  -0.00573   0.00273

 Mulliken charges:
               1
     1  N   -0.778532
     2  H    0.457742
     3  H    0.332661
     4  H    0.353776
     5  C   -0.072243
     6  H    0.144478
     7  C    0.646413
     8  C   -0.265746
     9  H    0.178300
    10  H    0.174263
    11  O   -0.523888
    12  C   -0.370732
    13  H    0.181909
    14  H    0.173398
    15  C    0.586253
    16  O   -0.449024
    17  O   -0.563611
    18  N   -0.637503
    19  H    0.336538
    20  C   -0.048550
    21  H    0.173880
    22  C    0.619198
    23  C   -0.348400
    24  H    0.194188
    25  H    0.145718
    26  O   -0.497038
    27  C    0.141046
    28  C   -0.184751
    29  H    0.163133
    30  C   -0.192939
    31  H    0.117634
    32  C   -0.160743
    33  H    0.141430
    34  C   -0.192012
    35  H    0.122279
    36  O   -0.639792
    37  H    0.409426
    38  C    0.351466
    39  N   -0.599957
    40  H    0.343637
    41  C   -0.056953
    42  H    0.207212
    43  C    0.600538
    44  C   -0.274556
    45  H    0.167886
    46  H    0.148104
    47  O   -0.474393
    48  C   -0.283422
    49  H    0.165788
    50  H    0.188668
    51  C   -0.292137
    52  H    0.168566
    53  H    0.167618
    54  C   -0.207730
    55  H    0.234661
    56  H    0.232964
    57  N   -0.732192
    58  H    0.432454
    59  H    0.427627
    60  H    0.428108
    61  O   -0.631907
    62  H    0.419786
 Sum of Mulliken charges =   1.00000

 Dipole moment (field-independent basis, Debye):
    X=             29.4009    Y=             19.9552    Z=              3.5153  Tot=             35.7069
 Quadrupole moment (field-independent basis, Debye-Ang):
   XX=            137.5734   YY=            -93.4574   ZZ=           -159.8434
   XY=            162.6250   XZ=            -12.2300   YZ=            -23.7652

 Normal termination of Gaussian 16 at Tue May 24 03:11:26 2022.
