 Gaussian 16, Revision C.01,
 Gaussian 16:  ES64L-G16RevC.01  3-Jul-2019

 ----------------------------------------------------------------------
 # B3LYP/6-31G* empiricaldispersion=gd3 guess=read geom=check nosymm in
 tegral(ultrafinegrid)
 ----------------------------------------------------------------------

 ------------------------------------------------------
 Candidate Structure: Conf:197 Charge calc in gas phase
 ------------------------------------------------------
 Structure from the checkpoint file:  "conf-197.chk"
 Charge =  1 Multiplicity = 1

                          Input orientation:
 ---------------------------------------------------------------------
 Center     Atomic      Atomic             Coordinates (Angstroms)
 Number     Number       Type             X           Y           Z
 ---------------------------------------------------------------------
      1          7           0       -0.854794   -3.169111    3.463373
      2          1           0        0.119187   -3.008988    3.726103
      3          1           0       -1.372007   -3.492918    4.278253
      4          1           0       -0.867833   -3.903673    2.751477
      5          6           0       -1.475253   -1.962003    2.874620
      6          1           0       -1.277555   -1.099951    3.519430
      7          6           0       -0.859848   -1.736753    1.497187
      8          6           0       -2.983463   -2.159366    2.743434
      9          1           0       -3.364788   -2.464186    3.721243
     10          1           0       -3.156607   -2.992820    2.063881
     11          8           0       -0.637933   -2.677324    0.747671
     12          6           0       -3.749081   -0.936446    2.255883
     13          1           0       -3.433479   -0.653998    1.245899
     14          1           0       -3.572739   -0.066721    2.892839
     15          6           0       -5.232161   -1.185365    2.185045
     16          8           0       -5.770408   -2.262525    2.213714
     17          8           0       -5.925147   -0.030384    2.051978
     18          7           0       -0.646514   -0.435468    1.171111
     19          1           0       -0.766718    0.258670    1.887086
     20          6           0       -0.114891    0.050362   -0.096624
     21          1           0       -0.374355    1.115807   -0.129207
     22          6           0        1.410821   -0.052360   -0.139749
     23          6           0       -0.720918   -0.615509   -1.339436
     24          1           0       -0.419354   -1.655623   -1.390694
     25          1           0       -1.805807   -0.581520   -1.236471
     26          8           0        2.008329   -1.100177   -0.354368
     27          6           0       -0.287974    0.117721   -2.557797
     28          6           0       -0.926846    1.310663   -2.939842
     29          1           0       -1.799782    1.631032   -2.377504
     30          6           0        0.853657   -0.305202   -3.265491
     31          1           0        1.364077   -1.208411   -2.934207
     32          6           0       -0.472184    2.069569   -3.983710
     33          1           0       -0.960600    2.988158   -4.282533
     34          6           0        1.354584    0.415690   -4.313240
     35          1           0        2.242457    0.110445   -4.853156
     36          8           0        1.161008    2.332320   -5.656825
     37          6           0        0.718156    1.663618   -4.724397
     38          7           0        2.061506    1.119096    0.101500
     39          1           0        1.530519    1.966909    0.014649
     40          6           0        3.506907    1.262732   -0.064887
     41          1           0        3.704339    2.299637    0.227452
     42          6           0        3.847778    1.197827   -1.541719
     43          6           0        4.331898    0.343222    0.826795
     44          1           0        3.897696    0.405754    1.826694
     45          1           0        4.239770   -0.691706    0.507613
     46          8           0        3.480732    2.020678   -2.342643
     47          6           0        5.797613    0.750887    0.883904
     48          1           0        5.866705    1.812123    1.143820
     49          1           0        6.258674    0.638398   -0.099650
     50          6           0        6.576939   -0.060513    1.905189
     51          1           0        6.131800    0.062899    2.896538
     52          1           0        6.511983   -1.123178    1.656378
     53          6           0        8.035445    0.336421    1.970423
     54          1           0        8.479032    0.225532    0.978137
     55          1           0        8.107240    1.393235    2.238151
     56          7           0        8.800827   -0.476471    2.948155
     57          1           0        9.784235   -0.207187    2.991233
     58          1           0        8.763876   -1.466209    2.706726
     59          1           0        8.414016   -0.378302    3.886222
     60          8           0        4.599878    0.136560   -1.884913
     61          1           0       -6.855868   -0.283997    1.992736
     62          1           0        4.736123    0.207520   -2.837062
 ---------------------------------------------------------------------

 SCF Done:  E(RB3LYP) =  -1526.09615388     A.U. after    3 cycles

 Alpha  occ. eigenvalues --  -19.28395 -19.26071 -19.24020 -19.23462 -19.19661
 Alpha  occ. eigenvalues --  -19.19106 -19.05018 -14.63346 -14.62675 -14.48328
 Alpha  occ. eigenvalues --  -14.44559 -10.41896 -10.41629 -10.41078 -10.40145
 Alpha  occ. eigenvalues --  -10.38078 -10.36413 -10.33999 -10.33546 -10.32547
 Alpha  occ. eigenvalues --  -10.32205 -10.31269 -10.30350 -10.28355 -10.22636
 Alpha  occ. eigenvalues --  -10.20408 -10.17910 -10.17604 -10.17524 -10.15448
 Alpha  occ. eigenvalues --  -10.15398  -1.19978  -1.19396  -1.18073  -1.17341
 Alpha  occ. eigenvalues --   -1.15536  -1.11341  -1.11068  -1.07775  -1.04465
 Alpha  occ. eigenvalues --   -1.01020  -0.95871  -0.95740  -0.95259  -0.89478
 Alpha  occ. eigenvalues --   -0.88393  -0.86098  -0.83406  -0.81744  -0.79674
 Alpha  occ. eigenvalues --   -0.77922  -0.76890  -0.76240  -0.75357  -0.75145
 Alpha  occ. eigenvalues --   -0.74471  -0.73112  -0.71588  -0.70974  -0.69435
 Alpha  occ. eigenvalues --   -0.69118  -0.67474  -0.66644  -0.65300  -0.64432
 Alpha  occ. eigenvalues --   -0.64142  -0.62389  -0.62131  -0.60138  -0.59193
 Alpha  occ. eigenvalues --   -0.58817  -0.58110  -0.57128  -0.56707  -0.56086
 Alpha  occ. eigenvalues --   -0.55755  -0.55502  -0.54620  -0.53889  -0.53666
 Alpha  occ. eigenvalues --   -0.53579  -0.52019  -0.51171  -0.51018  -0.50701
 Alpha  occ. eigenvalues --   -0.50011  -0.49156  -0.48337  -0.48260  -0.47994
 Alpha  occ. eigenvalues --   -0.47810  -0.47181  -0.46728  -0.45733  -0.45189
 Alpha  occ. eigenvalues --   -0.44822  -0.44560  -0.43873  -0.43044  -0.41011
 Alpha  occ. eigenvalues --   -0.40766  -0.40579  -0.38973  -0.38105  -0.37899
 Alpha  occ. eigenvalues --   -0.37203  -0.36635  -0.35673  -0.34953  -0.33597
 Alpha  occ. eigenvalues --   -0.32931  -0.32723  -0.31983  -0.29067  -0.24036
 Alpha  occ. eigenvalues --   -0.18428  -0.15108
 Alpha virt. eigenvalues --   -0.14123  -0.13565  -0.11284  -0.08538  -0.07910
 Alpha virt. eigenvalues --   -0.07492  -0.07267  -0.06898  -0.06489  -0.05212
 Alpha virt. eigenvalues --   -0.04776  -0.04108  -0.01786  -0.01388  -0.00761

 Mulliken charges:
               1
     1  N   -0.702465
     2  H    0.409682
     3  H    0.412841
     4  H    0.427765
     5  C   -0.149146
     6  H    0.189153
     7  C    0.630826
     8  C   -0.276903
     9  H    0.168313
    10  H    0.213841
    11  O   -0.491716
    12  C   -0.379111
    13  H    0.228986
    14  H    0.182152
    15  C    0.592628
    16  O   -0.443081
    17  O   -0.560526
    18  N   -0.609533
    19  H    0.327581
    20  C   -0.062270
    21  H    0.155675
    22  C    0.653780
    23  C   -0.364570
    24  H    0.195073
    25  H    0.125285
    26  O   -0.513431
    27  C    0.105685
    28  C   -0.185521
    29  H    0.068181
    30  C   -0.184812
    31  H    0.102159
    32  C   -0.213758
    33  H    0.101286
    34  C   -0.209299
    35  H    0.083222
    36  O   -0.592853
    37  C    0.423595
    38  N   -0.620075
    39  H    0.349997
    40  C   -0.039519
    41  H    0.168235
    42  C    0.607625
    43  C   -0.266566
    44  H    0.122568
    45  H    0.206285
    46  O   -0.421073
    47  C   -0.282297
    48  H    0.146794
    49  H    0.181637
    50  C   -0.282597
    51  H    0.150150
    52  H    0.165232
    53  C   -0.219276
    54  H    0.223734
    55  H    0.218000
    56  N   -0.639748
    57  H    0.369422
    58  H    0.361179
    59  H    0.354570
    60  O   -0.570873
    61  H    0.429782
    62  H    0.428102
 Sum of Mulliken charges =   1.00000

 Dipole moment (field-independent basis, Debye):
    X=             24.5195    Y=            -11.0861    Z=             37.8245  Tot=             46.4198
 Quadrupole moment (field-independent basis, Debye-Ang):
   XX=            114.2398   YY=           -165.3772   ZZ=           -166.5096
   XY=            -12.2636   XZ=             81.1982   YZ=            -10.5095

 Normal termination of Gaussian 16 at Wed Jun  1 23:38:08 2022.
