 Gaussian 16, Revision C.01,
 Gaussian 16:  ES64L-G16RevC.01  3-Jul-2019

 ----------------------------------------------------------------------
 # B3LYP/6-31G* empiricaldispersion=gd3 guess=read geom=check nosymm in
 tegral(ultrafinegrid)
 ----------------------------------------------------------------------

 ------------------------------------------------------
 Candidate Structure: Conf:549 Charge calc in gas phase
 ------------------------------------------------------
 Structure from the checkpoint file:  "conf-549.chk"
 Charge =  1 Multiplicity = 1

                          Input orientation:
 ---------------------------------------------------------------------
 Center     Atomic      Atomic             Coordinates (Angstroms)
 Number     Number       Type             X           Y           Z
 ---------------------------------------------------------------------
      1          7           0        0.618706   -2.642349    2.805544
      2          1           0        1.132912   -1.791139    2.474537
      3          1           0        0.788594   -2.828653    3.797699
      4          1           0        0.951898   -3.426109    2.226742
      5          6           0       -0.841921   -2.398164    2.468083
      6          1           0       -1.132905   -1.500845    3.008925
      7          6           0       -0.735330   -2.151923    0.943928
      8          6           0       -1.712687   -3.596187    2.844932
      9          1           0       -1.731455   -3.708418    3.935917
     10          1           0       -1.268251   -4.505046    2.422529
     11          8           0       -0.106482   -2.982987    0.297699
     12          6           0       -3.151797   -3.490138    2.301731
     13          1           0       -3.734855   -4.352751    2.630927
     14          1           0       -3.131139   -3.519155    1.203909
     15          6           0       -3.870149   -2.209491    2.684187
     16          8           0       -3.371266   -1.095855    2.649760
     17          8           0       -5.140538   -2.429437    3.036078
     18          7           0       -1.258508   -0.983275    0.479740
     19          1           0       -1.818870   -0.489979    1.168828
     20          6           0       -0.437872   -0.116804   -0.373379
     21          1           0       -1.030090    0.784336   -0.562525
     22          6           0        0.822781    0.292937    0.437266
     23          6           0       -0.077327   -0.751188   -1.754101
     24          1           0        0.355213   -1.736419   -1.577796
     25          1           0       -1.027331   -0.903298   -2.279199
     26          8           0        1.282667   -0.402653    1.360445
     27          6           0        0.874469    0.107431   -2.554684
     28          6           0        0.452816    1.296379   -3.172581
     29          1           0       -0.605402    1.553043   -3.179589
     30          6           0        2.240195   -0.200632   -2.599060
     31          1           0        2.593998   -1.121478   -2.139962
     32          6           0        1.362942    2.164825   -3.770847
     33          1           0        1.035640    3.086416   -4.241571
     34          6           0        3.162043    0.649623   -3.206749
     35          1           0        4.212601    0.378295   -3.245127
     36          8           0        3.575773    2.752760   -4.340314
     37          6           0        2.737941    1.861812   -3.781474
     38          7           0        1.402150    1.440400    0.062537
     39          1           0        1.045100    1.893006   -0.771328
     40          6           0        2.777996    1.764612    0.434831
     41          1           0        3.405994    0.895452    0.213735
     42          6           0        2.956553    2.034738    1.921943
     43          6           0        3.267367    2.981931   -0.387772
     44          1           0        2.680943    3.022853   -1.313220
     45          1           0        3.062593    3.912833    0.154397
     46          8           0        3.990085    1.820058    2.511473
     47          6           0        4.744209    2.879659   -0.779596
     48          1           0        4.872059    1.916576   -1.290178
     49          1           0        5.377872    2.848675    0.115436
     50          6           0        5.163340    4.024777   -1.715580
     51          1           0        4.347748    4.236623   -2.417023
     52          1           0        5.332806    4.939692   -1.134077
     53          6           0        6.416969    3.724648   -2.543556
     54          1           0        6.641532    4.592410   -3.171547
     55          1           0        7.286318    3.564729   -1.889028
     56          7           0        6.197042    2.566651   -3.452207
     57          1           0        6.870249    2.596103   -4.216735
     58          1           0        4.534024    2.574678   -4.091944
     59          1           0        6.385058    1.696402   -2.956938
     60          8           0        1.874649    2.616322    2.484909
     61          1           0       -5.558569   -1.565484    3.222441
     62          1           0        2.121837    2.821583    3.406772
 ---------------------------------------------------------------------

 SCF Done:  E(RB3LYP) =  -1526.30444683     A.U. after    1 cycles

 Alpha  occ. eigenvalues --  -19.31713 -19.28654 -19.26542 -19.25630 -19.25123
 Alpha  occ. eigenvalues --  -19.22738 -19.22498 -14.58970 -14.48090 -14.47549
 Alpha  occ. eigenvalues --  -14.42436 -10.44847 -10.42656 -10.41086 -10.41018
 Alpha  occ. eigenvalues --  -10.39255 -10.35745 -10.34306 -10.33656 -10.33109
 Alpha  occ. eigenvalues --  -10.32542 -10.29541 -10.28955 -10.28453 -10.27556
 Alpha  occ. eigenvalues --  -10.27485 -10.27441 -10.26852 -10.26739 -10.26411
 Alpha  occ. eigenvalues --  -10.25978  -1.22893  -1.19520  -1.18266  -1.15909
 Alpha  occ. eigenvalues --   -1.13834  -1.13083  -1.11204  -1.10492  -1.05291
 Alpha  occ. eigenvalues --   -1.04434  -0.97952  -0.94695  -0.93662  -0.90471
 Alpha  occ. eigenvalues --   -0.88449  -0.86435  -0.84611  -0.82814  -0.82024
 Alpha  occ. eigenvalues --   -0.79234  -0.78432  -0.75425  -0.73913  -0.73441
 Alpha  occ. eigenvalues --   -0.72604  -0.71197  -0.70116  -0.69944  -0.69190
 Alpha  occ. eigenvalues --   -0.68445  -0.66542  -0.65916  -0.65562  -0.63894
 Alpha  occ. eigenvalues --   -0.63034  -0.61616  -0.61417  -0.60799  -0.59803
 Alpha  occ. eigenvalues --   -0.59039  -0.58929  -0.58748  -0.57563  -0.56689
 Alpha  occ. eigenvalues --   -0.56161  -0.56046  -0.55587  -0.55299  -0.54556
 Alpha  occ. eigenvalues --   -0.54201  -0.53920  -0.53381  -0.52145  -0.51919
 Alpha  occ. eigenvalues --   -0.51599  -0.51392  -0.50363  -0.50256  -0.49880
 Alpha  occ. eigenvalues --   -0.49378  -0.48928  -0.48688  -0.48480  -0.48128
 Alpha  occ. eigenvalues --   -0.47651  -0.47103  -0.45754  -0.45252  -0.45153
 Alpha  occ. eigenvalues --   -0.43982  -0.43549  -0.42565  -0.41799  -0.41329
 Alpha  occ. eigenvalues --   -0.41239  -0.40599  -0.40340  -0.40054  -0.39736
 Alpha  occ. eigenvalues --   -0.38982  -0.38424  -0.37142  -0.35606  -0.34746
 Alpha  occ. eigenvalues --   -0.33547  -0.29159
 Alpha virt. eigenvalues --   -0.13610  -0.11902  -0.10312  -0.08963  -0.08773
 Alpha virt. eigenvalues --   -0.07827  -0.07267  -0.03731  -0.03020  -0.02314
 Alpha virt. eigenvalues --   -0.02226  -0.02113  -0.01297   0.00171   0.00762

 Mulliken charges:
               1
     1  N   -0.754511
     2  H    0.456518
     3  H    0.404517
     4  H    0.413699
     5  C   -0.101374
     6  H    0.223063
     7  C    0.602277
     8  C   -0.285464
     9  H    0.178381
    10  H    0.187664
    11  O   -0.503625
    12  C   -0.380030
    13  H    0.213926
    14  H    0.219094
    15  C    0.605874
    16  O   -0.486339
    17  O   -0.532843
    18  N   -0.579835
    19  H    0.372242
    20  C   -0.103311
    21  H    0.181582
    22  C    0.656187
    23  C   -0.357540
    24  H    0.203583
    25  H    0.176132
    26  O   -0.594812
    27  C    0.135513
    28  C   -0.223438
    29  H    0.135929
    30  C   -0.189719
    31  H    0.134739
    32  C   -0.168678
    33  H    0.157443
    34  C   -0.193943
    35  H    0.129490
    36  O   -0.680667
    37  C    0.365381
    38  N   -0.596870
    39  H    0.363844
    40  C    0.006076
    41  H    0.185873
    42  C    0.589355
    43  C   -0.332909
    44  H    0.169340
    45  H    0.172908
    46  O   -0.456452
    47  C   -0.274203
    48  H    0.129853
    49  H    0.168185
    50  C   -0.272435
    51  H    0.166727
    52  H    0.151848
    53  C   -0.152816
    54  H    0.168781
    55  H    0.150000
    56  N   -0.775527
    57  H    0.337325
    58  H    0.469705
    59  H    0.325263
    60  O   -0.562613
    61  H    0.432482
    62  H    0.419154
 Sum of Mulliken charges =   1.00000

 Dipole moment (field-independent basis, Debye):
    X=              2.5498    Y=             -4.3498    Z=              8.0127  Tot=              9.4671
 Quadrupole moment (field-independent basis, Debye-Ang):
   XX=           -106.2259   YY=           -136.4975   ZZ=           -139.2341
   XY=             25.4749   XZ=            -33.5333   YZ=            -35.5463

 Normal termination of Gaussian 16 at Wed Jun  1 23:44:09 2022.
