 Gaussian 16, Revision C.01,
 Gaussian 16:  ES64L-G16RevC.01  3-Jul-2019

 ----------------------------------------------------------------------
 # B3LYP/6-31G* empiricaldispersion=gd3 guess=read geom=check nosymm in
 tegral(ultrafinegrid)
 ----------------------------------------------------------------------

 -----------------------------------------------------
 Candidate Structure: Conf:34 Charge calc in gas phase
 -----------------------------------------------------
 Structure from the checkpoint file:  "conf-34.chk"
 Charge =  1 Multiplicity = 1

                          Input orientation:
 ---------------------------------------------------------------------
 Center     Atomic      Atomic             Coordinates (Angstroms)
 Number     Number       Type             X           Y           Z
 ---------------------------------------------------------------------
      1          7           0       -2.611678   -0.208510    3.167433
      2          1           0       -4.204938   -1.252884    2.453052
      3          1           0       -2.666040   -0.456659    4.153641
      4          1           0       -2.611748    0.810951    3.112279
      5          6           0       -1.351242   -0.698947    2.586352
      6          1           0       -1.483097   -1.763479    2.355447
      7          6           0       -1.075996    0.101055    1.307986
      8          6           0       -0.070538   -0.503274    3.437195
      9          1           0        0.103854    0.570243    3.565010
     10          1           0        0.776590   -0.886740    2.857001
     11          8           0       -1.157156    1.329063    1.311339
     12          6           0       -0.075669   -1.197069    4.796433
     13          1           0       -0.251747   -2.277713    4.700672
     14          1           0       -0.864414   -0.820563    5.458070
     15          6           0        1.242421   -1.023016    5.524188
     16          8           0        2.281266   -0.596539    5.046560
     17          8           0        1.155462   -1.414224    6.802415
     18          7           0       -0.588568   -0.595725    0.242961
     19          1           0       -0.760263   -1.593574    0.223707
     20          6           0       -0.418533    0.071701   -1.056753
     21          1           0       -0.887528    1.054865   -0.936893
     22          6           0        1.090637    0.297253   -1.237549
     23          6           0       -1.154518   -0.686508   -2.201018
     24          1           0       -1.286061    0.005304   -3.041166
     25          1           0       -0.539595   -1.520411   -2.555016
     26          8           0        1.733084   -0.187163   -2.186185
     27          6           0       -2.456538   -1.165309   -1.588413
     28          6           0       -2.552024   -2.480846   -1.109820
     29          1           0       -1.910566   -3.252587   -1.532325
     30          6           0       -3.339044   -0.208513   -1.065010
     31          1           0       -3.315255    0.811611   -1.442870
     32          6           0       -3.347684   -2.788495   -0.003584
     33          1           0       -3.357344   -3.785477    0.426067
     34          6           0       -4.122261   -0.498115    0.046115
     35          1           0       -4.733725    0.269391    0.510537
     36          8           0       -4.557922   -1.985058    1.891642
     37          6           0       -4.038494   -1.761852    0.651178
     38          7           0        1.621357    1.028279   -0.219375
     39          1           0        0.948689    1.444574    0.425478
     40          6           0        2.965489    0.857684    0.365552
     41          1           0        3.311818   -0.149353    0.114550
     42          6           0        2.750474    0.937307    1.882135
     43          6           0        3.998130    1.879491   -0.172934
     44          1           0        3.743424    2.890587    0.160878
     45          1           0        4.989444    1.625310    0.220122
     46          8           0        2.116887    1.835459    2.395824
     47          6           0        3.910311    1.721113   -1.688293
     48          1           0        2.913188    2.081783   -1.967471
     49          1           0        3.892758    0.639418   -1.840850
     50          6           0        4.896914    2.282917   -2.706324
     51          1           0        5.071633    3.358409   -2.590557
     52          1           0        5.873813    1.788219   -2.644933
     53          6           0        4.265676    2.073534   -4.094871
     54          1           0        3.445744    2.776762   -4.260514
     55          1           0        4.979935    2.160644   -4.916550
     56          7           0        3.622558    0.684293   -4.224149
     57          1           0        3.179277    0.573077   -5.141867
     58          1           0        2.895145    0.484897   -3.487754
     59          1           0        4.326586   -0.056934   -4.136598
     60          8           0        3.273658   -0.110425    2.516472
     61          1           0        2.034199   -1.295160    7.212342
     62          1           0        2.983151   -0.105549    3.466561
 ---------------------------------------------------------------------

 SCF Done:  E(RB3LYP) =  -1526.27585262     A.U. after    3 cycles

 Alpha  occ. eigenvalues --  -19.29238 -19.27953 -19.25159 -19.24648 -19.23152
 Alpha  occ. eigenvalues --  -19.21586 -19.21578 -14.61023 -14.47205 -14.45883
 Alpha  occ. eigenvalues --  -14.42112 -10.42560 -10.41480 -10.41275 -10.40411
 Alpha  occ. eigenvalues --  -10.38376 -10.34890 -10.33652 -10.33647 -10.32215
 Alpha  occ. eigenvalues --  -10.31316 -10.31240 -10.30622 -10.29918 -10.28958
 Alpha  occ. eigenvalues --  -10.28252 -10.26903 -10.26714 -10.26362 -10.25912
 Alpha  occ. eigenvalues --  -10.25751  -1.20623  -1.19353  -1.15892  -1.15031
 Alpha  occ. eigenvalues --   -1.13544  -1.11585  -1.10692  -1.10215  -1.04400
 Alpha  occ. eigenvalues --   -1.02232  -0.98710  -0.94798  -0.92858  -0.90426
 Alpha  occ. eigenvalues --   -0.88964  -0.87388  -0.84356  -0.82101  -0.82053
 Alpha  occ. eigenvalues --   -0.80280  -0.78375  -0.74964  -0.74391  -0.73727
 Alpha  occ. eigenvalues --   -0.73460  -0.71093  -0.69717  -0.69261  -0.68724
 Alpha  occ. eigenvalues --   -0.68147  -0.67269  -0.65693  -0.64691  -0.63343
 Alpha  occ. eigenvalues --   -0.62109  -0.61628  -0.60473  -0.59855  -0.59355
 Alpha  occ. eigenvalues --   -0.59116  -0.58466  -0.58133  -0.57713  -0.56753
 Alpha  occ. eigenvalues --   -0.56433  -0.55915  -0.55039  -0.54825  -0.54604
 Alpha  occ. eigenvalues --   -0.53953  -0.53552  -0.52890  -0.52473  -0.52133
 Alpha  occ. eigenvalues --   -0.51480  -0.50518  -0.50181  -0.49952  -0.49472
 Alpha  occ. eigenvalues --   -0.49234  -0.48579  -0.48172  -0.47711  -0.47450
 Alpha  occ. eigenvalues --   -0.46878  -0.46692  -0.46161  -0.45791  -0.45599
 Alpha  occ. eigenvalues --   -0.45345  -0.44228  -0.44124  -0.42251  -0.41761
 Alpha  occ. eigenvalues --   -0.40659  -0.40136  -0.39066  -0.38331  -0.38003
 Alpha  occ. eigenvalues --   -0.36665  -0.36316  -0.35773  -0.35344  -0.34321
 Alpha  occ. eigenvalues --   -0.32532  -0.28886
 Alpha virt. eigenvalues --   -0.12416  -0.11679  -0.09196  -0.08269  -0.07948
 Alpha virt. eigenvalues --   -0.07606  -0.07327  -0.06163  -0.04399  -0.02749
 Alpha virt. eigenvalues --   -0.01564  -0.01169  -0.00926  -0.00555   0.00144

 Mulliken charges:
               1
     1  N   -0.758477
     2  H    0.440229
     3  H    0.324340
     4  H    0.340841
     5  C   -0.049300
     6  H    0.151771
     7  C    0.625859
     8  C   -0.298370
     9  H    0.199487
    10  H    0.150666
    11  O   -0.537698
    12  C   -0.372211
    13  H    0.198173
    14  H    0.186247
    15  C    0.613490
    16  O   -0.489924
    17  O   -0.543683
    18  N   -0.600252
    19  H    0.349287
    20  C   -0.079679
    21  H    0.209786
    22  C    0.628804
    23  C   -0.367133
    24  H    0.157305
    25  H    0.162373
    26  O   -0.577896
    27  C    0.147272
    28  C   -0.230072
    29  H    0.134329
    30  C   -0.180119
    31  H    0.136206
    32  C   -0.160860
    33  H    0.151821
    34  C   -0.169043
    35  H    0.150123
    36  O   -0.678277
    37  C    0.347136
    38  N   -0.613072
    39  H    0.392736
    40  C   -0.029669
    41  H    0.185812
    42  C    0.562466
    43  C   -0.271377
    44  H    0.183360
    45  H    0.170974
    46  O   -0.454541
    47  C   -0.294381
    48  H    0.161341
    49  H    0.139654
    50  C   -0.280429
    51  H    0.198987
    52  H    0.175640
    53  C   -0.197681
    54  H    0.221800
    55  H    0.216506
    56  N   -0.774804
    57  H    0.416445
    58  H    0.458260
    59  H    0.412457
    60  O   -0.589376
    61  H    0.428597
    62  H    0.467745
 Sum of Mulliken charges =   1.00000

 Dipole moment (field-independent basis, Debye):
    X=             15.1983    Y=              1.8558    Z=             -8.8460  Tot=             17.6829
 Quadrupole moment (field-independent basis, Debye-Ang):
   XX=           -124.1947   YY=           -171.1720   ZZ=            -69.9657
   XY=              9.0949   XZ=            -55.5756   YZ=            -26.8066

 Normal termination of Gaussian 16 at Wed Jun  1 23:38:13 2022.
