 Gaussian 16, Revision C.01,
 Gaussian 16:  ES64L-G16RevC.01  3-Jul-2019

 ----------------------------------------------------------------------
 # B3LYP/6-31G* empiricaldispersion=gd3 guess=read geom=check nosymm in
 tegral(ultrafinegrid)
 ----------------------------------------------------------------------

 ------------------------------------------------------
 Candidate Structure: Conf:234 Charge calc in gas phase
 ------------------------------------------------------
 Structure from the checkpoint file:  "conf-234.chk"
 Charge =  1 Multiplicity = 1

                          Input orientation:
 ---------------------------------------------------------------------
 Center     Atomic      Atomic             Coordinates (Angstroms)
 Number     Number       Type             X           Y           Z
 ---------------------------------------------------------------------
      1          7           0        0.018343   -3.433895    2.425580
      2          1           0        0.697154   -2.637159    2.444288
      3          1           0        0.092105   -4.017066    3.263704
      4          1           0        0.235243   -3.981081    1.580541
      5          6           0       -1.349576   -2.802338    2.236192
      6          1           0       -1.500263   -2.143045    3.087588
      7          6           0       -1.111885   -2.015804    0.925967
      8          6           0       -2.447587   -3.860474    2.136226
      9          1           0       -2.545844   -4.380295    3.097146
     10          1           0       -2.159109   -4.602351    1.382271
     11          8           0       -0.597627   -2.631987   -0.001764
     12          6           0       -3.810156   -3.275718    1.712806
     13          1           0       -4.560850   -4.068413    1.691717
     14          1           0       -3.736059   -2.878273    0.691566
     15          6           0       -4.295585   -2.132432    2.584649
     16          8           0       -3.598309   -1.207268    2.969356
     17          8           0       -5.599019   -2.229169    2.863885
     18          7           0       -1.394464   -0.685778    0.957842
     19          1           0       -1.875386   -0.390511    1.801932
     20          6           0       -0.404340    0.260984    0.437689
     21          1           0       -0.776860    1.258379    0.693080
     22          6           0        0.915106    0.056275    1.263368
     23          6           0       -0.261460    0.197072   -1.113827
     24          1           0       -0.094456   -0.841466   -1.401017
     25          1           0       -1.239233    0.490625   -1.515141
     26          8           0        1.120347   -0.960947    1.946874
     27          6           0        0.853541    1.068859   -1.643553
     28          6           0        0.848355    2.462613   -1.471995
     29          1           0       -0.044031    2.958266   -1.091071
     30          6           0        1.995833    0.483054   -2.205981
     31          1           0        2.016666   -0.591937   -2.369431
     32          6           0        1.982299    3.228742   -1.750421
     33          1           0        1.976078    4.303313   -1.592725
     34          6           0        3.121095    1.238558   -2.518364
     35          1           0        4.015448    0.776232   -2.924072
     36          8           0        4.310906    3.282368   -2.405952
     37          6           0        3.151633    2.611846   -2.233394
     38          7           0        1.760926    1.095178    1.229953
     39          1           0        1.554881    1.850516    0.582277
     40          6           0        3.071821    1.162164    1.882862
     41          1           0        3.277248    0.193368    2.338478
     42          6           0        2.987272    2.180649    3.019368
     43          6           0        4.123312    1.568565    0.836692
     44          1           0        4.207806    0.757487    0.106336
     45          1           0        3.712941    2.414206    0.283487
     46          8           0        3.116877    1.941703    4.193079
     47          6           0        5.511052    1.940500    1.377819
     48          1           0        6.028761    1.030799    1.704215
     49          1           0        5.424166    2.572441    2.273346
     50          6           0        6.358572    2.681242    0.318378
     51          1           0        7.420319    2.480701    0.503731
     52          1           0        6.131128    2.293860   -0.682403
     53          6           0        6.197071    4.207984    0.307768
     54          1           0        6.487882    4.610195    1.291037
     55          1           0        6.891290    4.625892   -0.428812
     56          7           0        4.837124    4.661601   -0.081092
     57          1           0        4.835919    5.678167   -0.162954
     58          1           0        4.170881    4.441705    0.660202
     59          1           0        4.432790    3.930892   -1.647139
     60          8           0        2.737758    3.431340    2.533779
     61          1           0       -5.857550   -1.443596    3.385348
     62          1           0        2.674728    4.024808    3.306790
 ---------------------------------------------------------------------

 SCF Done:  E(RB3LYP) =  -1526.30067737     A.U. after    1 cycles

 Alpha  occ. eigenvalues --  -19.31744 -19.30027 -19.26568 -19.25620 -19.24967
 Alpha  occ. eigenvalues --  -19.24154 -19.21777 -14.59077 -14.48156 -14.47847
 Alpha  occ. eigenvalues --  -14.42347 -10.44874 -10.42656 -10.41983 -10.41508
 Alpha  occ. eigenvalues --  -10.39294 -10.35870 -10.34354 -10.34052 -10.33147
 Alpha  occ. eigenvalues --  -10.32099 -10.29552 -10.28986 -10.27912 -10.27729
 Alpha  occ. eigenvalues --  -10.27668 -10.27187 -10.27166 -10.26845 -10.26218
 Alpha  occ. eigenvalues --  -10.26164  -1.22921  -1.20538  -1.18317  -1.15814
 Alpha  occ. eigenvalues --   -1.13862  -1.13171  -1.11763  -1.10575  -1.05358
 Alpha  occ. eigenvalues --   -1.04647  -0.97931  -0.94753  -0.93687  -0.90609
 Alpha  occ. eigenvalues --   -0.88445  -0.86440  -0.84856  -0.82809  -0.82014
 Alpha  occ. eigenvalues --   -0.79242  -0.78526  -0.75372  -0.73989  -0.73303
 Alpha  occ. eigenvalues --   -0.72747  -0.71570  -0.70852  -0.69894  -0.69481
 Alpha  occ. eigenvalues --   -0.68848  -0.66454  -0.65971  -0.65673  -0.63951
 Alpha  occ. eigenvalues --   -0.63012  -0.61507  -0.61149  -0.60224  -0.59960
 Alpha  occ. eigenvalues --   -0.59823  -0.58851  -0.58089  -0.57950  -0.57671
 Alpha  occ. eigenvalues --   -0.56278  -0.55879  -0.55714  -0.55014  -0.54733
 Alpha  occ. eigenvalues --   -0.54424  -0.54118  -0.53245  -0.52200  -0.51961
 Alpha  occ. eigenvalues --   -0.51755  -0.51292  -0.50572  -0.50424  -0.50212
 Alpha  occ. eigenvalues --   -0.49989  -0.49514  -0.49104  -0.48877  -0.48446
 Alpha  occ. eigenvalues --   -0.48019  -0.46993  -0.46046  -0.45795  -0.44760
 Alpha  occ. eigenvalues --   -0.43992  -0.43491  -0.42515  -0.42299  -0.42098
 Alpha  occ. eigenvalues --   -0.41166  -0.40839  -0.40266  -0.40022  -0.39472
 Alpha  occ. eigenvalues --   -0.38986  -0.38076  -0.37231  -0.35768  -0.34715
 Alpha  occ. eigenvalues --   -0.33496  -0.29364
 Alpha virt. eigenvalues --   -0.13505  -0.11940  -0.10613  -0.09140  -0.08838
 Alpha virt. eigenvalues --   -0.08744  -0.07481  -0.03778  -0.03476  -0.03029
 Alpha virt. eigenvalues --   -0.02333  -0.02249  -0.00310   0.00432   0.00757

 Mulliken charges:
               1
     1  N   -0.753418
     2  H    0.455734
     3  H    0.405119
     4  H    0.413898
     5  C   -0.101658
     6  H    0.224875
     7  C    0.604213
     8  C   -0.286610
     9  H    0.178835
    10  H    0.187833
    11  O   -0.507002
    12  C   -0.379522
    13  H    0.214033
    14  H    0.218428
    15  C    0.605778
    16  O   -0.486243
    17  O   -0.532848
    18  N   -0.578413
    19  H    0.371979
    20  C   -0.105668
    21  H    0.181576
    22  C    0.650660
    23  C   -0.351357
    24  H    0.203252
    25  H    0.174240
    26  O   -0.588299
    27  C    0.156229
    28  C   -0.252798
    29  H    0.134086
    30  C   -0.190960
    31  H    0.140206
    32  C   -0.187038
    33  H    0.141850
    34  C   -0.159209
    35  H    0.153374
    36  O   -0.687053
    37  C    0.365431
    38  N   -0.597256
    39  H    0.374044
    40  C   -0.051901
    41  H    0.195609
    42  C    0.591375
    43  C   -0.293126
    44  H    0.172278
    45  H    0.164074
    46  O   -0.434481
    47  C   -0.284286
    48  H    0.156056
    49  H    0.143950
    50  C   -0.276512
    51  H    0.156253
    52  H    0.171055
    53  C   -0.146674
    54  H    0.143701
    55  H    0.169689
    56  N   -0.786149
    57  H    0.330573
    58  H    0.329782
    59  H    0.462612
    60  O   -0.581460
    61  H    0.432356
    62  H    0.424910
 Sum of Mulliken charges =   1.00000

 Dipole moment (field-independent basis, Debye):
    X=             -0.4189    Y=             -4.1574    Z=             10.9911  Tot=             11.7586
 Quadrupole moment (field-independent basis, Debye-Ang):
   XX=           -119.6840   YY=            -96.5440   ZZ=           -167.2210
   XY=             36.5651   XZ=             -9.4140   YZ=            -19.1588

 Normal termination of Gaussian 16 at Wed Jun  1 23:44:17 2022.
