 Gaussian 16, Revision C.01,
 Gaussian 16:  ES64L-G16RevC.01  3-Jul-2019

 ----------------------------------------------------------------------
 # B3LYP/6-31G* empiricaldispersion=gd3 guess=read geom=check nosymm in
 tegral(ultrafinegrid)
 ----------------------------------------------------------------------

 ------------------------------------------------------
 Candidate Structure: Conf:720 Charge calc in gas phase
 ------------------------------------------------------
 Structure from the checkpoint file:  "conf-720.chk"
 Charge =  1 Multiplicity = 1

                          Input orientation:
 ---------------------------------------------------------------------
 Center     Atomic      Atomic             Coordinates (Angstroms)
 Number     Number       Type             X           Y           Z
 ---------------------------------------------------------------------
      1          7           0        0.789338   -3.749314    0.444776
      2          1           0        1.274526   -4.505787    0.919441
      3          1           0       -0.634481   -4.391641   -0.295930
      4          1           0        1.424237   -3.348767   -0.235407
      5          6           0        0.407212   -2.705494    1.404165
      6          1           0        1.095489   -2.674737    2.258710
      7          6           0        0.515856   -1.326264    0.720418
      8          6           0       -1.044306   -2.893513    1.938623
      9          1           0       -1.717050   -2.180971    1.439767
     10          1           0       -1.038060   -2.631082    3.002959
     11          8           0        1.020757   -1.205014   -0.410843
     12          6           0       -1.709805   -4.281245    1.809230
     13          1           0       -2.475983   -4.387958    2.579299
     14          1           0       -0.985441   -5.091115    1.962369
     15          6           0       -2.386900   -4.477775    0.458646
     16          8           0       -1.573349   -4.551332   -0.601024
     17          8           0       -3.588953   -4.550059    0.334351
     18          7           0        0.024644   -0.288361    1.412148
     19          1           0       -0.275076   -0.420664    2.363548
     20          6           0       -0.047909    1.065085    0.899068
     21          1           0       -0.515086    1.673034    1.681626
     22          6           0        1.422442    1.597058    0.760530
     23          6           0       -0.921660    1.251588   -0.405532
     24          1           0       -1.326273    2.267174   -0.368000
     25          1           0       -0.266596    1.223745   -1.286302
     26          8           0        2.357801    1.042479    1.325018
     27          6           0       -2.095497    0.301079   -0.551335
     28          6           0       -1.955344   -0.952877   -1.171784
     29          1           0       -0.988073   -1.303464   -1.506999
     30          6           0       -3.372705    0.648312   -0.086154
     31          1           0       -3.530550    1.622500    0.371958
     32          6           0       -3.029505   -1.831112   -1.304356
     33          1           0       -2.879821   -2.800521   -1.768040
     34          6           0       -4.456752   -0.225827   -0.194713
     35          1           0       -5.437464    0.045859    0.181586
     36          8           0       -5.329280   -2.336476   -0.866936
     37          6           0       -4.289216   -1.485273   -0.789735
     38          7           0        1.574206    2.692182   -0.011574
     39          1           0        0.791960    3.199131   -0.398511
     40          6           0        2.865209    3.341681   -0.134306
     41          1           0        3.323891    3.448690    0.854554
     42          6           0        2.608867    4.721039   -0.719374
     43          6           0        3.872729    2.557671   -1.026957
     44          1           0        4.737775    3.209224   -1.174936
     45          1           0        4.208113    1.692359   -0.446713
     46          8           0        1.564235    5.069737   -1.228260
     47          6           0        3.336697    2.096325   -2.397586
     48          1           0        4.162729    2.049218   -3.114141
     49          1           0        2.642587    2.864096   -2.779188
     50          6           0        2.607646    0.742331   -2.347372
     51          1           0        3.326621   -0.043893   -2.082640
     52          1           0        1.884458    0.753261   -1.542507
     53          6           0        1.892395    0.346568   -3.631487
     54          1           0        1.315668    1.178369   -4.047117
     55          1           0        2.572349   -0.018677   -4.404201
     56          7           0        0.905263   -0.765973   -3.301994
     57          1           0        0.664438   -1.353559   -4.103147
     58          1           0        0.042894   -0.369142   -2.885347
     59          1           0        1.241523   -1.346551   -2.522929
     60          8           0        3.703261    5.493586   -0.637913
     61          1           0       -4.921333   -3.297098   -0.925030
     62          1           0        3.490629    6.350957   -1.052978
 ---------------------------------------------------------------------

 SCF Done:  E(RB3LYP) =  -1526.28446432     A.U. after    1 cycles

 Alpha  occ. eigenvalues --  -19.30560 -19.25728 -19.25412 -19.25278 -19.24789
 Alpha  occ. eigenvalues --  -19.22281 -19.20895 -14.61613 -14.49058 -14.47094
 Alpha  occ. eigenvalues --  -14.45753 -10.43221 -10.42200 -10.40073 -10.39743
 Alpha  occ. eigenvalues --  -10.39335 -10.36026 -10.35327 -10.34809 -10.33153
 Alpha  occ. eigenvalues --  -10.32228 -10.31751 -10.30975 -10.30416 -10.29891
 Alpha  occ. eigenvalues --  -10.29208 -10.29198 -10.28834 -10.28356 -10.27341
 Alpha  occ. eigenvalues --  -10.27187  -1.21761  -1.17117  -1.16904  -1.15953
 Alpha  occ. eigenvalues --   -1.14463  -1.12940  -1.12190  -1.08724  -1.05693
 Alpha  occ. eigenvalues --   -1.03965  -1.02360  -0.94636  -0.94002  -0.90967
 Alpha  occ. eigenvalues --   -0.89471  -0.88203  -0.84607  -0.83907  -0.83704
 Alpha  occ. eigenvalues --   -0.80972  -0.78431  -0.76669  -0.75177  -0.74190
 Alpha  occ. eigenvalues --   -0.73619  -0.72231  -0.71417  -0.70804  -0.70427
 Alpha  occ. eigenvalues --   -0.68316  -0.67648  -0.67534  -0.65890  -0.65020
 Alpha  occ. eigenvalues --   -0.64035  -0.62223  -0.61820  -0.61403  -0.60985
 Alpha  occ. eigenvalues --   -0.60066  -0.59251  -0.58657  -0.58295  -0.57942
 Alpha  occ. eigenvalues --   -0.57214  -0.56593  -0.56309  -0.55369  -0.54826
 Alpha  occ. eigenvalues --   -0.54399  -0.53917  -0.53670  -0.53383  -0.52417
 Alpha  occ. eigenvalues --   -0.51825  -0.51759  -0.51448  -0.50684  -0.50350
 Alpha  occ. eigenvalues --   -0.50129  -0.49481  -0.48954  -0.48739  -0.48577
 Alpha  occ. eigenvalues --   -0.48130  -0.46980  -0.46526  -0.45937  -0.45617
 Alpha  occ. eigenvalues --   -0.45584  -0.44778  -0.44475  -0.44119  -0.42829
 Alpha  occ. eigenvalues --   -0.42490  -0.40258  -0.39606  -0.39226  -0.38849
 Alpha  occ. eigenvalues --   -0.38504  -0.38021  -0.36594  -0.35953  -0.34442
 Alpha  occ. eigenvalues --   -0.34234  -0.30323
 Alpha virt. eigenvalues --   -0.12859  -0.10732  -0.10395  -0.09684  -0.09023
 Alpha virt. eigenvalues --   -0.08255  -0.06897  -0.06619  -0.05733  -0.04826
 Alpha virt. eigenvalues --   -0.03879  -0.02664  -0.02424  -0.01195  -0.01163

 Mulliken charges:
               1
     1  N   -0.789203
     2  H    0.344388
     3  H    0.457033
     4  H    0.334819
     5  C   -0.050072
     6  H    0.189640
     7  C    0.666261
     8  C   -0.331849
     9  H    0.196702
    10  H    0.162200
    11  O   -0.605609
    12  C   -0.369841
    13  H    0.199482
    14  H    0.162180
    15  C    0.607264
    16  O   -0.607803
    17  O   -0.477404
    18  N   -0.557675
    19  H    0.357945
    20  C   -0.059142
    21  H    0.192923
    22  C    0.619598
    23  C   -0.399233
    24  H    0.176994
    25  H    0.117091
    26  O   -0.514224
    27  C    0.174340
    28  C   -0.237364
    29  H    0.085280
    30  C   -0.198480
    31  H    0.138136
    32  C   -0.208147
    33  H    0.167055
    34  C   -0.156967
    35  H    0.164361
    36  O   -0.645746
    37  C    0.387975
    38  N   -0.632122
    39  H    0.361208
    40  C   -0.013861
    41  H    0.209751
    42  C    0.581668
    43  C   -0.296336
    44  H    0.185498
    45  H    0.190478
    46  O   -0.467854
    47  C   -0.283297
    48  H    0.166117
    49  H    0.151562
    50  C   -0.314007
    51  H    0.173439
    52  H    0.211203
    53  C   -0.192863
    54  H    0.215657
    55  H    0.218339
    56  N   -0.761298
    57  H    0.419895
    58  H    0.429017
    59  H    0.439810
    60  O   -0.554265
    61  H    0.436971
    62  H    0.432381
 Sum of Mulliken charges =   1.00000

 Dipole moment (field-independent basis, Debye):
    X=              8.5352    Y=              0.7071    Z=             -7.2087  Tot=             11.1945
 Quadrupole moment (field-independent basis, Debye-Ang):
   XX=           -178.3868   YY=           -140.1085   ZZ=           -126.0007
   XY=             -4.3009   XZ=            -25.9912   YZ=             -6.1217

 Normal termination of Gaussian 16 at Wed Jun  1 23:44:10 2022.
