 Gaussian 16, Revision C.01,
 Gaussian 16:  ES64L-G16RevC.01  3-Jul-2019

 ----------------------------------------------------------------------
 # B3LYP/6-31G* empiricaldispersion=gd3 guess=read geom=check nosymm in
 tegral(ultrafinegrid)
 ----------------------------------------------------------------------

 ------------------------------------------------------
 Candidate Structure: Conf:746 Charge calc in gas phase
 ------------------------------------------------------
 Structure from the checkpoint file:  "conf-746.chk"
 Charge =  1 Multiplicity = 1

                          Input orientation:
 ---------------------------------------------------------------------
 Center     Atomic      Atomic             Coordinates (Angstroms)
 Number     Number       Type             X           Y           Z
 ---------------------------------------------------------------------
      1          7           0       -0.467099   -3.793360    2.978217
      2          1           0        0.459804   -3.717464    3.404883
      3          1           0       -1.066138   -4.375338    3.570199
      4          1           0       -0.328481   -4.244366    2.062132
      5          6           0       -1.076747   -2.445629    2.722438
      6          1           0       -1.050093   -1.863821    3.650614
      7          6           0       -0.179110   -1.803918    1.645913
      8          6           0       -2.529293   -2.570909    2.254258
      9          1           0       -2.585922   -3.176356    1.349779
     10          1           0       -2.856555   -1.581814    1.935328
     11          8           0        0.615600   -2.513108    1.035084
     12          6           0       -3.501197   -3.107512    3.314803
     13          1           0       -3.452085   -2.524624    4.238351
     14          1           0       -3.296487   -4.159585    3.561818
     15          6           0       -4.927208   -2.992740    2.795895
     16          8           0       -5.779940   -2.317188    3.314049
     17          8           0       -5.095219   -3.717644    1.674062
     18          7           0       -0.369206   -0.483050    1.457407
     19          1           0       -1.166509   -0.073678    1.924147
     20          6           0        0.021181    0.208593    0.216386
     21          1           0       -0.558090    1.136948    0.267325
     22          6           0        1.500495    0.597053    0.168060
     23          6           0       -0.410599   -0.549625   -1.072482
     24          1           0       -0.272787    0.171073   -1.886327
     25          1           0        0.272267   -1.379198   -1.258557
     26          8           0        2.090425    0.767882   -0.894051
     27          6           0       -1.803415   -1.082069   -0.930753
     28          6           0       -2.027950   -2.469689   -0.904873
     29          1           0       -1.170936   -3.133012   -1.040786
     30          6           0       -2.920978   -0.241255   -0.724410
     31          1           0       -2.775226    0.841238   -0.748381
     32          6           0       -3.279115   -3.010631   -0.676043
     33          1           0       -3.428100   -4.085871   -0.643960
     34          6           0       -4.180359   -0.748597   -0.473669
     35          1           0       -5.026764   -0.089765   -0.300965
     36          8           0       -5.559454   -2.665429   -0.121861
     37          6           0       -4.439015   -2.184877   -0.404037
     38          7           0        2.117966    0.800215    1.366124
     39          1           0        1.657390    0.587610    2.239957
     40          6           0        3.513286    1.182419    1.384405
     41          1           0        4.018404    0.648994    0.573614
     42          6           0        4.114902    0.770284    2.711780
     43          6           0        3.660522    2.705692    1.147343
     44          1           0        3.104871    2.917880    0.228388
     45          1           0        3.154598    3.233061    1.963215
     46          8           0        3.497408    0.640125    3.743167
     47          6           0        5.095508    3.223973    0.996780
     48          1           0        5.668447    3.082421    1.919928
     49          1           0        5.044964    4.306611    0.823685
     50          6           0        5.832597    2.565806   -0.176905
     51          1           0        5.963438    1.494310    0.012303
     52          1           0        5.226298    2.662682   -1.087420
     53          6           0        7.196107    3.201659   -0.403029
     54          1           0        7.106609    4.271891   -0.607017
     55          1           0        7.838884    3.076896    0.472355
     56          7           0        7.903650    2.573049   -1.583945
     57          1           0        8.842047    2.969317   -1.734616
     58          1           0        7.365007    2.709980   -2.450762
     59          1           0        8.010873    1.557859   -1.450741
     60          8           0        5.455410    0.595275    2.622696
     61          1           0       -5.973063   -3.492900    1.311515
     62          1           0        5.766423    0.372119    3.519517
 ---------------------------------------------------------------------

 SCF Done:  E(RB3LYP) =  -1526.14293251     A.U. after    1 cycles

 Alpha  occ. eigenvalues --  -19.32130 -19.26164 -19.23431 -19.20403 -19.19297
 Alpha  occ. eigenvalues --  -19.15764 -19.06291 -14.66273 -14.59483 -14.46822
 Alpha  occ. eigenvalues --  -14.45536 -10.44049 -10.42984 -10.40573 -10.37671
 Alpha  occ. eigenvalues --  -10.37465 -10.35501 -10.35029 -10.34168 -10.32749
 Alpha  occ. eigenvalues --  -10.31681 -10.30946 -10.27591 -10.26927 -10.23405
 Alpha  occ. eigenvalues --  -10.22298 -10.19820 -10.19497 -10.19035 -10.17343
 Alpha  occ. eigenvalues --  -10.16715  -1.22841  -1.20279  -1.16476  -1.13956
 Alpha  occ. eigenvalues --   -1.13002  -1.12508  -1.11720  -1.03749  -1.03408
 Alpha  occ. eigenvalues --   -1.02215  -0.97025  -0.96764  -0.91264  -0.90634
 Alpha  occ. eigenvalues --   -0.86709  -0.85386  -0.83347  -0.81772  -0.80810
 Alpha  occ. eigenvalues --   -0.78694  -0.77678  -0.75669  -0.74623  -0.74185
 Alpha  occ. eigenvalues --   -0.73638  -0.72879  -0.71471  -0.70557  -0.69679
 Alpha  occ. eigenvalues --   -0.68609  -0.67897  -0.66084  -0.64599  -0.64132
 Alpha  occ. eigenvalues --   -0.63355  -0.61712  -0.61192  -0.60666  -0.59996
 Alpha  occ. eigenvalues --   -0.59490  -0.58549  -0.57943  -0.56746  -0.56286
 Alpha  occ. eigenvalues --   -0.55511  -0.54970  -0.54410  -0.53991  -0.53333
 Alpha  occ. eigenvalues --   -0.52586  -0.52096  -0.51137  -0.50488  -0.50095
 Alpha  occ. eigenvalues --   -0.49438  -0.49294  -0.48705  -0.47939  -0.47731
 Alpha  occ. eigenvalues --   -0.47311  -0.47069  -0.46304  -0.45595  -0.45224
 Alpha  occ. eigenvalues --   -0.44011  -0.43942  -0.43850  -0.43200  -0.41995
 Alpha  occ. eigenvalues --   -0.41511  -0.40660  -0.39836  -0.38688  -0.37632
 Alpha  occ. eigenvalues --   -0.37254  -0.36710  -0.35661  -0.35106  -0.34132
 Alpha  occ. eigenvalues --   -0.33896  -0.33128  -0.29796  -0.28824  -0.25530
 Alpha  occ. eigenvalues --   -0.20494  -0.17402
 Alpha virt. eigenvalues --   -0.16509  -0.11264  -0.09918  -0.09896  -0.09812
 Alpha virt. eigenvalues --   -0.09347  -0.07334  -0.06898  -0.04372  -0.04178
 Alpha virt. eigenvalues --   -0.03559  -0.02865  -0.02559  -0.02097  -0.01077

 Mulliken charges:
               1
     1  N   -0.715640
     2  H    0.413656
     3  H    0.417864
     4  H    0.430489
     5  C   -0.161631
     6  H    0.195665
     7  C    0.666954
     8  C   -0.294207
     9  H    0.216901
    10  H    0.206648
    11  O   -0.534501
    12  C   -0.358263
    13  H    0.162102
    14  H    0.136256
    15  C    0.573097
    16  O   -0.459479
    17  O   -0.530203
    18  N   -0.621526
    19  H    0.356154
    20  C   -0.078206
    21  H    0.185161
    22  C    0.657073
    23  C   -0.352503
    24  H    0.161579
    25  H    0.165444
    26  O   -0.539454
    27  C    0.130991
    28  C   -0.206012
    29  H    0.086742
    30  C   -0.213607
    31  H    0.082997
    32  C   -0.254612
    33  H    0.093655
    34  C   -0.223407
    35  H    0.108977
    36  O   -0.672212
    37  C    0.457218
    38  N   -0.627600
    39  H    0.346415
    40  C   -0.011770
    41  H    0.184816
    42  C    0.577376
    43  C   -0.282853
    44  H    0.192555
    45  H    0.173968
    46  O   -0.453534
    47  C   -0.280021
    48  H    0.165589
    49  H    0.164561
    50  C   -0.294812
    51  H    0.178794
    52  H    0.183652
    53  C   -0.214954
    54  H    0.229585
    55  H    0.228756
    56  N   -0.718246
    57  H    0.427244
    58  H    0.426296
    59  H    0.423352
    60  O   -0.581116
    61  H    0.447179
    62  H    0.424612
 Sum of Mulliken charges =   1.00000

 Dipole moment (field-independent basis, Debye):
    X=             45.3403    Y=              8.0229    Z=              6.9478  Tot=             46.5659
 Quadrupole moment (field-independent basis, Debye-Ang):
   XX=             24.3862   YY=           -108.8424   ZZ=           -142.4215
   XY=             68.6119   XZ=            -35.7484   YZ=            -52.7451

 Normal termination of Gaussian 16 at Wed Jun  1 23:44:08 2022.
