 Gaussian 16, Revision C.01,
 Gaussian 16:  ES64L-G16RevC.01  3-Jul-2019

 ----------------------------------------------------------------------
 # B3LYP/6-31G* empiricaldispersion=gd3 guess=read geom=check nosymm in
 tegral(ultrafinegrid)
 ----------------------------------------------------------------------

 ------------------------------------------------------
 Candidate Structure: Conf:472 Charge calc in gas phase
 ------------------------------------------------------
 Structure from the checkpoint file:  "conf-472.chk"
 Charge =  1 Multiplicity = 1

                          Input orientation:
 ---------------------------------------------------------------------
 Center     Atomic      Atomic             Coordinates (Angstroms)
 Number     Number       Type             X           Y           Z
 ---------------------------------------------------------------------
      1          7           0       -0.445269   -1.650603    2.895848
      2          1           0        0.246482   -0.957538    2.487623
      3          1           0       -0.439800   -1.637209    3.919174
      4          1           0       -0.149920   -2.577549    2.564398
      5          6           0       -1.812051   -1.338183    2.288955
      6          1           0       -2.134587   -0.399974    2.750148
      7          6           0       -1.407045   -1.182035    0.806140
      8          6           0       -2.809402   -2.463040    2.533170
      9          1           0       -2.451603   -3.370504    2.035963
     10          1           0       -3.738579   -2.175558    2.026547
     11          8           0       -0.960350   -2.168155    0.237511
     12          6           0       -3.098057   -2.729527    4.021310
     13          1           0       -3.461495   -1.830689    4.526644
     14          1           0       -2.194890   -3.081880    4.538333
     15          6           0       -4.161158   -3.804099    4.195231
     16          8           0       -5.228354   -3.643072    4.731453
     17          8           0       -3.747470   -4.972166    3.650203
     18          7           0       -1.409868    0.083903    0.310133
     19          1           0       -1.705062    0.806757    0.954232
     20          6           0       -0.336633    0.493397   -0.602648
     21          1           0       -0.466649    1.570521   -0.753337
     22          6           0        1.015803    0.315129    0.153148
     23          6           0       -0.429964   -0.190059   -1.996446
     24          1           0       -0.144844   -1.239391   -1.900521
     25          1           0       -1.491902   -0.172943   -2.267651
     26          8           0        1.058961   -0.005357    1.358972
     27          6           0        0.399512    0.512493   -3.049594
     28          6           0        0.073795    1.813393   -3.469900
     29          1           0       -0.828974    2.289973   -3.091464
     30          6           0        1.547579   -0.083629   -3.590889
     31          1           0        1.806563   -1.101380   -3.306781
     32          6           0        0.886170    2.514345   -4.352220
     33          1           0        0.642747    3.525259   -4.662733
     34          6           0        2.371884    0.607897   -4.478281
     35          1           0        3.248914    0.129547   -4.902484
     36          8           0        2.855881    2.661198   -5.655011
     37          6           0        2.066181    1.929711   -4.843309
     38          7           0        2.128464    0.567568   -0.541043
     39          1           0        2.044414    0.848971   -1.512720
     40          6           0        3.456935    0.472461    0.051577
     41          1           0        3.438729   -0.354058    0.766423
     42          6           0        3.850754    1.705703    0.865605
     43          6           0        4.528690    0.180055   -1.018752
     44          1           0        5.437668   -0.119849   -0.487180
     45          1           0        4.189938   -0.690112   -1.594950
     46          8           0        4.804972    1.718795    1.605551
     47          6           0        4.863650    1.341926   -1.967316
     48          1           0        5.340269    2.149514   -1.394162
     49          1           0        3.948208    1.758144   -2.407789
     50          6           0        5.801482    0.873616   -3.090392
     51          1           0        6.636496    0.311176   -2.651462
     52          1           0        5.259427    0.176381   -3.741038
     53          6           0        6.397756    1.997235   -3.940933
     54          1           0        7.061930    2.614338   -3.315023
     55          1           0        7.019165    1.555230   -4.726675
     56          7           0        5.359156    2.814038   -4.604838
     57          1           0        5.804667    3.456728   -5.260169
     58          1           0        4.901861    3.412371   -3.916438
     59          1           0        3.812961    2.438299   -5.475960
     60          8           0        3.056907    2.774644    0.634128
     61          1           0       -4.463789   -5.623652    3.778795
     62          1           0        3.414400    3.505934    1.174235
 ---------------------------------------------------------------------

 SCF Done:  E(RB3LYP) =  -1526.29023339     A.U. after    1 cycles

 Alpha  occ. eigenvalues --  -19.29771 -19.29732 -19.26501 -19.25841 -19.24106
 Alpha  occ. eigenvalues --  -19.23562 -19.22501 -14.59765 -14.50124 -14.48401
 Alpha  occ. eigenvalues --  -14.42347 -10.43708 -10.42614 -10.42265 -10.41861
 Alpha  occ. eigenvalues --  -10.40979 -10.36680 -10.34666 -10.33957 -10.33067
 Alpha  occ. eigenvalues --  -10.32675 -10.29942 -10.29813 -10.29388 -10.28320
 Alpha  occ. eigenvalues --  -10.28088 -10.28081 -10.27936 -10.27225 -10.27045
 Alpha  occ. eigenvalues --  -10.26741  -1.20582  -1.20460  -1.19294  -1.16719
 Alpha  occ. eigenvalues --   -1.14032  -1.11837  -1.11457  -1.11375  -1.06780
 Alpha  occ. eigenvalues --   -1.05231  -0.98183  -0.95038  -0.94285  -0.91369
 Alpha  occ. eigenvalues --   -0.89452  -0.87140  -0.85575  -0.83333  -0.82483
 Alpha  occ. eigenvalues --   -0.79328  -0.78329  -0.76064  -0.74819  -0.74084
 Alpha  occ. eigenvalues --   -0.73200  -0.72075  -0.71381  -0.70560  -0.70114
 Alpha  occ. eigenvalues --   -0.69492  -0.67159  -0.66893  -0.66339  -0.63949
 Alpha  occ. eigenvalues --   -0.63788  -0.61966  -0.61720  -0.60584  -0.59471
 Alpha  occ. eigenvalues --   -0.59240  -0.58444  -0.58210  -0.57483  -0.57324
 Alpha  occ. eigenvalues --   -0.57065  -0.56332  -0.55668  -0.55368  -0.55092
 Alpha  occ. eigenvalues --   -0.54722  -0.54431  -0.53678  -0.53445  -0.53079
 Alpha  occ. eigenvalues --   -0.52511  -0.51330  -0.50943  -0.50561  -0.49856
 Alpha  occ. eigenvalues --   -0.49675  -0.49572  -0.49100  -0.48718  -0.48692
 Alpha  occ. eigenvalues --   -0.48338  -0.47333  -0.47010  -0.46281  -0.45411
 Alpha  occ. eigenvalues --   -0.43849  -0.43303  -0.42856  -0.42276  -0.42012
 Alpha  occ. eigenvalues --   -0.41928  -0.41251  -0.40859  -0.40451  -0.39861
 Alpha  occ. eigenvalues --   -0.39384  -0.38617  -0.37530  -0.36162  -0.34873
 Alpha  occ. eigenvalues --   -0.33838  -0.29919
 Alpha virt. eigenvalues --   -0.14384  -0.11314  -0.10774  -0.09030  -0.08862
 Alpha virt. eigenvalues --   -0.08612  -0.08105  -0.06551  -0.04530  -0.02359
 Alpha virt. eigenvalues --   -0.02271  -0.02104  -0.01729  -0.00712  -0.00506

 Mulliken charges:
               1
     1  N   -0.762554
     2  H    0.460031
     3  H    0.408667
     4  H    0.416103
     5  C   -0.111438
     6  H    0.195840
     7  C    0.610403
     8  C   -0.289277
     9  H    0.213344
    10  H    0.205012
    11  O   -0.491962
    12  C   -0.365574
    13  H    0.193788
    14  H    0.160472
    15  C    0.576495
    16  O   -0.420111
    17  O   -0.560335
    18  N   -0.564016
    19  H    0.345804
    20  C   -0.107273
    21  H    0.198887
    22  C    0.660361
    23  C   -0.348238
    24  H    0.194128
    25  H    0.183479
    26  O   -0.604812
    27  C    0.109226
    28  C   -0.185591
    29  H    0.132682
    30  C   -0.224431
    31  H    0.139723
    32  C   -0.157097
    33  H    0.156237
    34  C   -0.185522
    35  H    0.152087
    36  O   -0.672859
    37  C    0.353820
    38  N   -0.599697
    39  H    0.387048
    40  C   -0.045405
    41  H    0.197127
    42  C    0.600548
    43  C   -0.297632
    44  H    0.186271
    45  H    0.161221
    46  O   -0.446982
    47  C   -0.299412
    48  H    0.153506
    49  H    0.149647
    50  C   -0.256443
    51  H    0.152665
    52  H    0.148084
    53  C   -0.150077
    54  H    0.144389
    55  H    0.167459
    56  N   -0.760815
    57  H    0.336228
    58  H    0.326682
    59  H    0.444100
    60  O   -0.569456
    61  H    0.431895
    62  H    0.423548
 Sum of Mulliken charges =   1.00000

 Dipole moment (field-independent basis, Debye):
    X=              3.4327    Y=             -1.0092    Z=              5.1565  Tot=              6.2762
 Quadrupole moment (field-independent basis, Debye-Ang):
   XX=           -134.6257   YY=           -140.0288   ZZ=           -147.3833
   XY=             24.1324   XZ=            -37.2194   YZ=            -27.5414

 Normal termination of Gaussian 16 at Wed Jun  1 23:37:51 2022.
