 Gaussian 16, Revision C.01,
 Gaussian 16:  ES64L-G16RevC.01  3-Jul-2019

 ----------------------------------------------------------------------
 # B3LYP/6-31G* empiricaldispersion=gd3 guess=read geom=check nosymm in
 tegral(ultrafinegrid)
 ----------------------------------------------------------------------

 -----------------------------------------------------
 Candidate Structure: Conf:21 Charge calc in gas phase
 -----------------------------------------------------
 Structure from the checkpoint file:  "conf-21.chk"
 Charge =  1 Multiplicity = 1

                          Input orientation:
 ---------------------------------------------------------------------
 Center     Atomic      Atomic             Coordinates (Angstroms)
 Number     Number       Type             X           Y           Z
 ---------------------------------------------------------------------
      1          7           0       -2.160104   -0.814389    4.493653
      2          1           0       -3.176116   -0.760207    4.374172
      3          1           0       -1.957829   -1.249894    5.397855
      4          1           0       -1.764211    0.169621    4.437015
      5          6           0       -1.463481   -1.486753    3.323398
      6          1           0       -2.162043   -2.160088    2.827822
      7          6           0       -1.075548   -0.273511    2.441421
      8          6           0       -0.231903   -2.242419    3.866439
      9          1           0       -0.591886   -3.036154    4.534626
     10          1           0        0.361265   -1.541502    4.466962
     11          8           0       -0.984710    0.828345    3.001745
     12          6           0        0.717508   -2.846610    2.811249
     13          1           0        1.505493   -3.397901    3.328492
     14          1           0        1.194711   -2.036908    2.240258
     15          6           0        0.025039   -3.748931    1.819018
     16          8           0       -0.934844   -3.406554    1.136987
     17          8           0        0.572569   -4.961405    1.732813
     18          7           0       -0.848814   -0.522036    1.155153
     19          1           0       -0.904611   -1.497687    0.858783
     20          6           0       -0.136279    0.431705    0.308962
     21          1           0       -0.688574    1.376906    0.314061
     22          6           0        1.282615    0.662276    0.876690
     23          6           0       -0.056058   -0.139338   -1.142606
     24          1           0        0.084217   -1.224553   -1.064513
     25          1           0       -1.025101    0.026067   -1.626935
     26          8           0        1.915091   -0.239035    1.425000
     27          6           0        1.085953    0.441817   -1.943789
     28          6           0        1.017857    1.712824   -2.528257
     29          1           0        0.073958    2.256384   -2.530596
     30          6           0        2.310387   -0.241224   -1.993292
     31          1           0        2.391046   -1.226784   -1.541259
     32          6           0        2.145364    2.308197   -3.097747
     33          1           0        2.077963    3.294753   -3.548049
     34          6           0        3.437013    0.331430   -2.568846
     35          1           0        4.386404   -0.193646   -2.594680
     36          8           0        4.518257    2.149887   -3.594171
     37          6           0        3.378390    1.629287   -3.102774
     38          7           0        1.778295    1.896391    0.652615
     39          1           0        1.213436    2.527220    0.100666
     40          6           0        3.213899    2.164143    0.640564
     41          1           0        3.706986    1.418827    0.008111
     42          6           0        3.865104    2.054451    2.011690
     43          6           0        3.455902    3.576892    0.061676
     44          1           0        2.725485    3.733158   -0.743059
     45          1           0        3.248726    4.328082    0.835150
     46          8           0        5.033530    1.782921    2.166409
     47          6           0        4.852175    3.771141   -0.537160
     48          1           0        4.981240    3.050581   -1.350721
     49          1           0        5.616500    3.532469    0.210428
     50          6           0        5.051300    5.207691   -1.070532
     51          1           0        4.076238    5.700209   -1.208495
     52          1           0        5.582711    5.813863   -0.327686
     53          6           0        5.810831    5.284588   -2.399366
     54          1           0        6.185150    6.307076   -2.553181
     55          1           0        6.681155    4.619156   -2.376140
     56          7           0        4.951900    4.852263   -3.531322
     57          1           0        5.478360    4.929228   -4.402450
     58          1           0        4.169632    5.501172   -3.624610
     59          1           0        4.515131    3.155799   -3.597016
     60          8           0        3.033093    2.380835    3.026042
     61          1           0        0.099480   -5.462402    1.038694
     62          1           0        3.573434    2.333550    3.837484
 ---------------------------------------------------------------------

 SCF Done:  E(RB3LYP) =  -1526.29966451     A.U. after    1 cycles

 Alpha  occ. eigenvalues --  -19.32054 -19.26878 -19.26863 -19.26835 -19.21630
 Alpha  occ. eigenvalues --  -19.21407 -19.20881 -14.60769 -14.49055 -14.45277
 Alpha  occ. eigenvalues --  -14.41911 -10.45025 -10.43331 -10.40969 -10.39142
 Alpha  occ. eigenvalues --  -10.38392 -10.35292 -10.34569 -10.32024 -10.31648
 Alpha  occ. eigenvalues --  -10.31531 -10.29568 -10.28942 -10.27281 -10.26916
 Alpha  occ. eigenvalues --  -10.26861 -10.26365 -10.25987 -10.25887 -10.25220
 Alpha  occ. eigenvalues --  -10.25114  -1.23244  -1.19425  -1.17695  -1.14475
 Alpha  occ. eigenvalues --   -1.14087  -1.13245  -1.10157  -1.08611  -1.06125
 Alpha  occ. eigenvalues --   -1.02180  -0.97448  -0.95203  -0.92993  -0.89541
 Alpha  occ. eigenvalues --   -0.88003  -0.86719  -0.83506  -0.81959  -0.81623
 Alpha  occ. eigenvalues --   -0.79655  -0.77365  -0.74912  -0.74337  -0.74148
 Alpha  occ. eigenvalues --   -0.72456  -0.71354  -0.70738  -0.69047  -0.68408
 Alpha  occ. eigenvalues --   -0.67277  -0.66315  -0.65831  -0.64861  -0.64102
 Alpha  occ. eigenvalues --   -0.62434  -0.61608  -0.60718  -0.60167  -0.59828
 Alpha  occ. eigenvalues --   -0.59560  -0.58296  -0.57858  -0.56969  -0.56184
 Alpha  occ. eigenvalues --   -0.55416  -0.54804  -0.54465  -0.54130  -0.53851
 Alpha  occ. eigenvalues --   -0.53387  -0.52829  -0.52239  -0.52037  -0.51466
 Alpha  occ. eigenvalues --   -0.51042  -0.50552  -0.50478  -0.50003  -0.49836
 Alpha  occ. eigenvalues --   -0.49303  -0.48278  -0.47713  -0.47119  -0.46725
 Alpha  occ. eigenvalues --   -0.46601  -0.45728  -0.44741  -0.44323  -0.44208
 Alpha  occ. eigenvalues --   -0.43428  -0.42873  -0.41540  -0.41237  -0.41017
 Alpha  occ. eigenvalues --   -0.40690  -0.40549  -0.40066  -0.39566  -0.38671
 Alpha  occ. eigenvalues --   -0.38331  -0.36259  -0.35263  -0.34106  -0.33759
 Alpha  occ. eigenvalues --   -0.32268  -0.28377
 Alpha virt. eigenvalues --   -0.12973  -0.12219  -0.10924  -0.08191  -0.07467
 Alpha virt. eigenvalues --   -0.06767  -0.06696  -0.06069  -0.03960  -0.02799
 Alpha virt. eigenvalues --   -0.01913  -0.01279  -0.00808   0.00140   0.00324

 Mulliken charges:
               1
     1  N   -0.753394
     2  H    0.418890
     3  H    0.413224
     4  H    0.431414
     5  C   -0.121069
     6  H    0.232123
     7  C    0.649463
     8  C   -0.305280
     9  H    0.180512
    10  H    0.194484
    11  O   -0.540378
    12  C   -0.405802
    13  H    0.207693
    14  H    0.269907
    15  C    0.603868
    16  O   -0.495890
    17  O   -0.527961
    18  N   -0.616483
    19  H    0.400717
    20  C   -0.052905
    21  H    0.177494
    22  C    0.648873
    23  C   -0.385357
    24  H    0.160355
    25  H    0.177267
    26  O   -0.541702
    27  C    0.149603
    28  C   -0.216220
    29  H    0.126805
    30  C   -0.176361
    31  H    0.133628
    32  C   -0.193542
    33  H    0.130199
    34  C   -0.170172
    35  H    0.155365
    36  O   -0.690972
    37  C    0.372469
    38  N   -0.592520
    39  H    0.340400
    40  C   -0.001957
    41  H    0.202038
    42  C    0.602389
    43  C   -0.331615
    44  H    0.146891
    45  H    0.163433
    46  O   -0.457729
    47  C   -0.289898
    48  H    0.172480
    49  H    0.174472
    50  C   -0.267474
    51  H    0.129848
    52  H    0.158863
    53  C   -0.148785
    54  H    0.147744
    55  H    0.171751
    56  N   -0.771362
    57  H    0.336586
    58  H    0.320115
    59  H    0.469763
    60  O   -0.562963
    61  H    0.433153
    62  H    0.413512
 Sum of Mulliken charges =   1.00000

 Dipole moment (field-independent basis, Debye):
    X=             -3.9969    Y=              0.4230    Z=             11.5226  Tot=             12.2035
 Quadrupole moment (field-independent basis, Debye-Ang):
   XX=           -149.9086   YY=           -108.2949   ZZ=            -96.3954
   XY=             41.2190   XZ=            -46.2243   YZ=            -44.5478

 Normal termination of Gaussian 16 at Wed Jun  1 23:37:55 2022.
