 Gaussian 16, Revision C.01,
 Gaussian 16:  ES64L-G16RevC.01  3-Jul-2019

 ----------------------------------------------------------------------
 # B3LYP/6-31G* empiricaldispersion=gd3 guess=read geom=check nosymm in
 tegral(ultrafinegrid)
 ----------------------------------------------------------------------

 ------------------------------------------------------
 Candidate Structure: Conf:217 Charge calc in gas phase
 ------------------------------------------------------
 Structure from the checkpoint file:  "conf-217.chk"
 Charge =  1 Multiplicity = 1

                          Input orientation:
 ---------------------------------------------------------------------
 Center     Atomic      Atomic             Coordinates (Angstroms)
 Number     Number       Type             X           Y           Z
 ---------------------------------------------------------------------
      1          7           0       -0.145907   -2.093960    2.932470
      2          1           0        0.438946   -1.289783    2.568322
      3          1           0        0.042941   -2.292239    3.919271
      4          1           0        0.108638   -2.912461    2.364931
      5          6           0       -1.606224   -1.757832    2.652565
      6          1           0       -1.861179   -0.934108    3.325873
      7          6           0       -1.501324   -1.322264    1.172272
      8          6           0       -2.499121   -2.971527    2.874324
      9          1           0       -2.377541   -3.335693    3.902261
     10          1           0       -2.188867   -3.770071    2.193127
     11          8           0       -1.131713   -2.166288    0.368394
     12          6           0       -3.972536   -2.621427    2.611694
     13          1           0       -4.096723   -2.315684    1.564140
     14          1           0       -4.314256   -1.796375    3.242864
     15          6           0       -4.920992   -3.784072    2.856634
     16          8           0       -5.992817   -3.690874    3.401039
     17          8           0       -4.419448   -4.941174    2.363126
     18          7           0       -1.670013    0.003752    0.915352
     19          1           0       -1.875318    0.575199    1.725402
     20          6           0       -0.793870    0.659474   -0.063571
     21          1           0       -1.008170    1.731029    0.016352
     22          6           0        0.675375    0.491941    0.436145
     23          6           0       -1.099389    0.224530   -1.523393
     24          1           0       -0.926890   -0.849340   -1.608418
     25          1           0       -2.176089    0.385489   -1.659253
     26          8           0        0.952221   -0.064944    1.517550
     27          6           0       -0.303127    0.966977   -2.576926
     28          6           0        0.573859    0.267995   -3.422738
     29          1           0        0.644156   -0.813952   -3.339240
     30          6           0       -0.370704    2.362456   -2.717511
     31          1           0       -1.058351    2.937467   -2.099332
     32          6           0        1.367672    0.928257   -4.352777
     33          1           0        2.047642    0.383683   -4.999922
     34          6           0        0.429433    3.040867   -3.638003
     35          1           0        0.353931    4.119459   -3.739328
     36          8           0        2.140351    2.915133   -5.353130
     37          6           0        1.320132    2.329139   -4.463757
     38          7           0        1.615691    1.071558   -0.309914
     39          1           0        1.333707    1.497517   -1.186036
     40          6           0        3.014523    1.167463    0.093909
     41          1           0        3.413020    0.162770    0.261115
     42          6           0        3.202039    1.908806    1.417455
     43          6           0        3.820283    1.862600   -1.025680
     44          1           0        4.880930    1.807703   -0.760727
     45          1           0        3.683965    1.266651   -1.937690
     46          8           0        4.163119    1.747215    2.129401
     47          6           0        3.398581    3.318387   -1.290318
     48          1           0        3.736911    3.962370   -0.468952
     49          1           0        2.303452    3.390344   -1.296210
     50          6           0        3.908808    3.843597   -2.638106
     51          1           0        5.003655    3.924399   -2.628189
     52          1           0        3.659705    3.116122   -3.417101
     53          6           0        3.276871    5.193628   -3.018809
     54          1           0        2.259018    5.247653   -2.615702
     55          1           0        3.841811    6.024376   -2.570850
     56          7           0        3.152436    5.316803   -4.488885
     57          1           0        2.754155    6.222250   -4.735987
     58          1           0        2.329365    3.874746   -5.117217
     59          1           0        4.076943    5.288373   -4.920640
     60          8           0        2.223230    2.811039    1.667197
     61          1           0       -5.086697   -5.635537    2.526236
     62          1           0        2.475358    3.262852    2.495368
 ---------------------------------------------------------------------

 SCF Done:  E(RB3LYP) =  -1526.29410112     A.U. after    1 cycles

 Alpha  occ. eigenvalues --  -19.29544 -19.29225 -19.26563 -19.25793 -19.23457
 Alpha  occ. eigenvalues --  -19.23381 -19.22660 -14.59697 -14.50153 -14.48138
 Alpha  occ. eigenvalues --  -14.42665 -10.43731 -10.42088 -10.41972 -10.41735
 Alpha  occ. eigenvalues --  -10.40803 -10.36750 -10.34542 -10.33704 -10.32893
 Alpha  occ. eigenvalues --  -10.32125 -10.30243 -10.29779 -10.29208 -10.28363
 Alpha  occ. eigenvalues --  -10.28282 -10.27874 -10.27787 -10.27313 -10.26966
 Alpha  occ. eigenvalues --  -10.26598  -1.20313  -1.19994  -1.19292  -1.16646
 Alpha  occ. eigenvalues --   -1.13958  -1.11448  -1.11297  -1.11157  -1.06809
 Alpha  occ. eigenvalues --   -1.05164  -0.98346  -0.94946  -0.94214  -0.91258
 Alpha  occ. eigenvalues --   -0.89140  -0.86481  -0.85538  -0.83297  -0.82626
 Alpha  occ. eigenvalues --   -0.78998  -0.78408  -0.76032  -0.74451  -0.74080
 Alpha  occ. eigenvalues --   -0.72658  -0.71967  -0.70835  -0.70426  -0.69862
 Alpha  occ. eigenvalues --   -0.69453  -0.67712  -0.67072  -0.66677  -0.63868
 Alpha  occ. eigenvalues --   -0.63443  -0.62020  -0.61420  -0.60793  -0.59047
 Alpha  occ. eigenvalues --   -0.58746  -0.58172  -0.57751  -0.57403  -0.57109
 Alpha  occ. eigenvalues --   -0.56666  -0.56198  -0.55762  -0.55463  -0.55224
 Alpha  occ. eigenvalues --   -0.54467  -0.54152  -0.53600  -0.53306  -0.53065
 Alpha  occ. eigenvalues --   -0.52357  -0.51195  -0.50867  -0.50491  -0.50246
 Alpha  occ. eigenvalues --   -0.49706  -0.49436  -0.49133  -0.48587  -0.47978
 Alpha  occ. eigenvalues --   -0.47848  -0.47511  -0.46262  -0.45801  -0.45129
 Alpha  occ. eigenvalues --   -0.44212  -0.43330  -0.42754  -0.42489  -0.41690
 Alpha  occ. eigenvalues --   -0.41342  -0.41293  -0.40912  -0.40094  -0.39668
 Alpha  occ. eigenvalues --   -0.39468  -0.38745  -0.36947  -0.36291  -0.34998
 Alpha  occ. eigenvalues --   -0.33961  -0.29765
 Alpha virt. eigenvalues --   -0.14446  -0.11286  -0.09990  -0.09239  -0.08693
 Alpha virt. eigenvalues --   -0.08446  -0.07801  -0.06695  -0.04377  -0.02543
 Alpha virt. eigenvalues --   -0.02186  -0.01560  -0.01129  -0.00429   0.00101

 Mulliken charges:
               1
     1  N   -0.760348
     2  H    0.459573
     3  H    0.408784
     4  H    0.417024
     5  C   -0.109442
     6  H    0.193861
     7  C    0.606788
     8  C   -0.280388
     9  H    0.171495
    10  H    0.210148
    11  O   -0.489730
    12  C   -0.368090
    13  H    0.205259
    14  H    0.188070
    15  C    0.581467
    16  O   -0.428517
    17  O   -0.562165
    18  N   -0.561330
    19  H    0.345380
    20  C   -0.118318
    21  H    0.194786
    22  C    0.671704
    23  C   -0.342945
    24  H    0.200843
    25  H    0.179675
    26  O   -0.607246
    27  C    0.095903
    28  C   -0.187139
    29  H    0.143054
    30  C   -0.210079
    31  H    0.131318
    32  C   -0.164653
    33  H    0.158016
    34  C   -0.190347
    35  H    0.143684
    36  O   -0.680321
    37  C    0.369722
    38  N   -0.613758
    39  H    0.390467
    40  C   -0.015564
    41  H    0.195680
    42  C    0.600375
    43  C   -0.320866
    44  H    0.186832
    45  H    0.171595
    46  O   -0.451182
    47  C   -0.287095
    48  H    0.156700
    49  H    0.142754
    50  C   -0.289207
    51  H    0.153659
    52  H    0.171617
    53  C   -0.140160
    54  H    0.148915
    55  H    0.152843
    56  N   -0.772764
    57  H    0.331554
    58  H    0.461764
    59  H    0.333661
    60  O   -0.573727
    61  H    0.429657
    62  H    0.420755
 Sum of Mulliken charges =   1.00000

 Dipole moment (field-independent basis, Debye):
    X=              1.1917    Y=              2.0050    Z=              6.1982  Tot=              6.6225
 Quadrupole moment (field-independent basis, Debye-Ang):
   XX=           -167.9152   YY=           -102.5658   ZZ=           -141.3863
   XY=             29.9785   XZ=            -22.7953   YZ=            -43.9089

 Normal termination of Gaussian 16 at Wed Jun  1 23:37:53 2022.
