 Gaussian 16, Revision C.01,
 Gaussian 16:  ES64L-G16RevC.01  3-Jul-2019

 ----------------------------------------------------------------------
 # B3LYP/6-31G* empiricaldispersion=gd3 guess=read geom=check nosymm in
 tegral(ultrafinegrid)
 ----------------------------------------------------------------------

 ------------------------------------------------------
 Candidate Structure: Conf:981 Charge calc in gas phase
 ------------------------------------------------------
 Structure from the checkpoint file:  "conf-981.chk"
 Charge =  1 Multiplicity = 1

                          Input orientation:
 ---------------------------------------------------------------------
 Center     Atomic      Atomic             Coordinates (Angstroms)
 Number     Number       Type             X           Y           Z
 ---------------------------------------------------------------------
      1          7           0       -0.373032   -2.017673    3.004467
      2          1           0        0.195624   -1.222249    2.602081
      3          1           0       -0.454564   -1.966902    4.030537
      4          1           0        0.103090   -2.881128    2.720820
      5          6           0       -1.753945   -1.974193    2.366657
      6          1           0       -2.251655   -1.116226    2.826193
      7          6           0       -1.379692   -1.741253    0.882813
      8          6           0       -2.534401   -3.267928    2.595068
      9          1           0       -2.122313   -4.037945    1.934467
     10          1           0       -3.562517   -3.080019    2.267075
     11          8           0       -0.816738   -2.652805    0.297529
     12          6           0       -2.546661   -3.801568    4.046747
     13          1           0       -1.562996   -4.197184    4.323098
     14          1           0       -3.264403   -4.621726    4.111505
     15          6           0       -2.958910   -2.749535    5.055119
     16          8           0       -4.063913   -2.545274    5.477788
     17          8           0       -1.875465   -1.974195    5.419956
     18          7           0       -1.583202   -0.474661    0.417963
     19          1           0       -2.051388    0.144780    1.069210
     20          6           0       -0.586508    0.222543   -0.404209
     21          1           0       -1.046686    1.169911   -0.702026
     22          6           0        0.632855    0.539642    0.502504
     23          6           0       -0.180618   -0.528907   -1.708033
     24          1           0        0.219723   -1.509181   -1.448828
     25          1           0       -1.102643   -0.692258   -2.277531
     26          8           0        0.921533   -0.160071    1.491805
     27          6           0        0.830036    0.288683   -2.475581
     28          6           0        0.451002    1.481906   -3.111717
     29          1           0       -0.605274    1.728553   -3.206346
     30          6           0        2.195801   -0.010659   -2.398483
     31          1           0        2.513859   -0.932787   -1.916694
     32          6           0        1.400822    2.375063   -3.597765
     33          1           0        1.110893    3.305968   -4.074420
     34          6           0        3.160322    0.868356   -2.886173
     35          1           0        4.216588    0.625231   -2.812877
     36          8           0        3.650965    3.017057   -3.883651
     37          6           0        2.771880    2.091139   -3.462474
     38          7           0        1.372111    1.600534    0.157688
     39          1           0        1.171885    2.072459   -0.716940
     40          6           0        2.635264    1.894923    0.822347
     41          1           0        3.232141    0.975591    0.846082
     42          6           0        2.361036    2.299819    2.272811
     43          6           0        3.426371    3.001579    0.075554
     44          1           0        3.127080    2.992030   -0.977491
     45          1           0        3.150351    3.986120    0.473692
     46          8           0        1.290776    2.627761    2.726120
     47          6           0        4.943618    2.783049    0.173659
     48          1           0        5.201433    1.891494   -0.414625
     49          1           0        5.205786    2.556848    1.212569
     50          6           0        5.789587    3.984128   -0.275809
     51          1           0        5.526651    4.855998    0.337707
     52          1           0        6.844389    3.767055   -0.055259
     53          6           0        5.677350    4.397758   -1.746505
     54          1           0        4.650557    4.695529   -1.989665
     55          1           0        6.310944    5.280940   -1.900080
     56          7           0        6.051626    3.302092   -2.679703
     57          1           0        6.515471    3.693294   -3.498968
     58          1           0        4.559073    2.865244   -3.482912
     59          1           0        6.733401    2.680536   -2.246494
     60          8           0        3.505307    2.272049    2.991727
     61          1           0       -2.191676   -1.316384    6.070118
     62          1           0        3.289843    2.595131    3.887391
 ---------------------------------------------------------------------

 SCF Done:  E(RB3LYP) =  -1526.29953518     A.U. after    3 cycles

 Alpha  occ. eigenvalues --  -19.33138 -19.29561 -19.26731 -19.25709 -19.25303
 Alpha  occ. eigenvalues --  -19.23726 -19.22743 -14.57946 -14.49493 -14.48028
 Alpha  occ. eigenvalues --  -14.42557 -10.44839 -10.43051 -10.41912 -10.41474
 Alpha  occ. eigenvalues --  -10.39988 -10.36119 -10.34511 -10.33946 -10.33501
 Alpha  occ. eigenvalues --  -10.32700 -10.29835 -10.29253 -10.29174 -10.27694
 Alpha  occ. eigenvalues --  -10.27643 -10.27587 -10.27576 -10.27431 -10.26836
 Alpha  occ. eigenvalues --  -10.26636  -1.23100  -1.20421  -1.18292  -1.16280
 Alpha  occ. eigenvalues --   -1.14560  -1.12651  -1.11581  -1.11459  -1.06107
 Alpha  occ. eigenvalues --   -1.04719  -0.98227  -0.94671  -0.94021  -0.91041
 Alpha  occ. eigenvalues --   -0.89227  -0.86973  -0.85262  -0.83048  -0.82234
 Alpha  occ. eigenvalues --   -0.79036  -0.78601  -0.76091  -0.74522  -0.73914
 Alpha  occ. eigenvalues --   -0.72742  -0.72214  -0.70913  -0.70231  -0.69587
 Alpha  occ. eigenvalues --   -0.68900  -0.67082  -0.66067  -0.65401  -0.63847
 Alpha  occ. eigenvalues --   -0.62987  -0.62023  -0.61180  -0.60995  -0.60631
 Alpha  occ. eigenvalues --   -0.59971  -0.59149  -0.58661  -0.57779  -0.57441
 Alpha  occ. eigenvalues --   -0.56635  -0.56226  -0.55872  -0.55397  -0.54739
 Alpha  occ. eigenvalues --   -0.54495  -0.54043  -0.53612  -0.53394  -0.53202
 Alpha  occ. eigenvalues --   -0.52417  -0.52265  -0.51477  -0.50368  -0.50073
 Alpha  occ. eigenvalues --   -0.50021  -0.49844  -0.49053  -0.48886  -0.48369
 Alpha  occ. eigenvalues --   -0.47938  -0.47714  -0.46419  -0.45925  -0.45342
 Alpha  occ. eigenvalues --   -0.44974  -0.43678  -0.43198  -0.42547  -0.42108
 Alpha  occ. eigenvalues --   -0.41370  -0.41292  -0.40696  -0.40227  -0.39978
 Alpha  occ. eigenvalues --   -0.39002  -0.38418  -0.37780  -0.36919  -0.34715
 Alpha  occ. eigenvalues --   -0.33741  -0.29433
 Alpha virt. eigenvalues --   -0.13713  -0.12125  -0.10449  -0.09012  -0.08629
 Alpha virt. eigenvalues --   -0.08043  -0.07609  -0.06012  -0.04760  -0.02412
 Alpha virt. eigenvalues --   -0.01561  -0.01023  -0.00686   0.00285   0.00493

 Mulliken charges:
               1
     1  N   -0.779658
     2  H    0.454481
     3  H    0.426195
     4  H    0.407666
     5  C   -0.108061
     6  H    0.195022
     7  C    0.607886
     8  C   -0.297638
     9  H    0.211744
    10  H    0.207710
    11  O   -0.483137
    12  C   -0.369214
    13  H    0.173724
    14  H    0.226489
    15  C    0.580044
    16  O   -0.401345
    17  O   -0.607499
    18  N   -0.571503
    19  H    0.344458
    20  C   -0.094654
    21  H    0.183798
    22  C    0.659237
    23  C   -0.354272
    24  H    0.201255
    25  H    0.179512
    26  O   -0.593868
    27  C    0.128866
    28  C   -0.217786
    29  H    0.137717
    30  C   -0.182201
    31  H    0.135683
    32  C   -0.170677
    33  H    0.157435
    34  C   -0.201377
    35  H    0.141020
    36  O   -0.686928
    37  C    0.361889
    38  N   -0.591355
    39  H    0.367346
    40  C   -0.009278
    41  H    0.191735
    42  C    0.596921
    43  C   -0.325776
    44  H    0.182254
    45  H    0.166236
    46  O   -0.462431
    47  C   -0.274928
    48  H    0.141700
    49  H    0.173265
    50  C   -0.294960
    51  H    0.156809
    52  H    0.148883
    53  C   -0.131090
    54  H    0.164600
    55  H    0.157250
    56  N   -0.784572
    57  H    0.340023
    58  H    0.464745
    59  H    0.324744
    60  O   -0.562915
    61  H    0.436543
    62  H    0.422235
 Sum of Mulliken charges =   1.00000

 Dipole moment (field-independent basis, Debye):
    X=              5.3067    Y=             -0.3741    Z=              9.5415  Tot=             10.9243
 Quadrupole moment (field-independent basis, Debye-Ang):
   XX=           -115.6510   YY=           -140.9574   ZZ=           -135.4050
   XY=             36.6938   XZ=            -12.8095   YZ=            -28.1087

 Normal termination of Gaussian 16 at Wed Jun  1 23:44:25 2022.
