 Gaussian 16, Revision C.01,
 Gaussian 16:  ES64L-G16RevC.01  3-Jul-2019

 ----------------------------------------------------------------------
 # B3LYP/6-31G* empiricaldispersion=gd3 guess=read geom=check nosymm in
 tegral(ultrafinegrid)
 ----------------------------------------------------------------------

 ------------------------------------------------------
 Candidate Structure: Conf:696 Charge calc in gas phase
 ------------------------------------------------------
 Structure from the checkpoint file:  "conf-696.chk"
 Charge =  1 Multiplicity = 1

                          Input orientation:
 ---------------------------------------------------------------------
 Center     Atomic      Atomic             Coordinates (Angstroms)
 Number     Number       Type             X           Y           Z
 ---------------------------------------------------------------------
      1          7           0       -0.407535   -1.973398    3.088518
      2          1           0        0.155990   -1.193604    2.642746
      3          1           0       -0.184527   -2.091519    4.080197
      4          1           0       -0.164345   -2.830391    2.575888
      5          6           0       -1.881769   -1.667134    2.827344
      6          1           0       -2.116591   -0.798756    3.450374
      7          6           0       -1.808485   -1.334110    1.319211
      8          6           0       -2.775638   -2.854984    3.148165
      9          1           0       -2.531019   -3.677613    2.467223
     10          1           0       -3.805263   -2.568524    2.909297
     11          8           0       -1.453446   -2.230110    0.566991
     12          6           0       -2.712762   -3.312233    4.608175
     13          1           0       -2.853446   -2.470351    5.300521
     14          1           0       -1.752048   -3.773253    4.870688
     15          6           0       -3.808648   -4.326717    4.905800
     16          8           0       -4.732356   -4.574106    4.167264
     17          8           0       -3.617240   -4.897872    6.109977
     18          7           0       -1.982633   -0.026748    0.982990
     19          1           0       -2.184116    0.593470    1.757653
     20          6           0       -1.134544    0.582391   -0.046949
     21          1           0       -1.404306    1.643608   -0.062815
     22          6           0        0.340830    0.527773    0.459666
     23          6           0       -1.397004    0.011350   -1.469642
     24          1           0       -1.159498   -1.053087   -1.473282
     25          1           0       -2.478089    0.099848   -1.632423
     26          8           0        0.664188   -0.047936    1.517174
     27          6           0       -0.614217    0.737491   -2.540656
     28          6           0       -0.801066    2.108531   -2.774206
     29          1           0       -1.605030    2.639763   -2.267228
     30          6           0        0.403604    0.084450   -3.252109
     31          1           0        0.563499   -0.979699   -3.095767
     32          6           0        0.032755    2.816608   -3.638796
     33          1           0       -0.134374    3.874256   -3.818190
     34          6           0        1.238335    0.775130   -4.124451
     35          1           0        2.035128    0.269583   -4.660671
     36          8           0        1.957015    2.803870   -5.103695
     37          6           0        1.085466    2.160069   -4.305290
     38          7           0        1.237279    1.193028   -0.274537
     39          1           0        0.918391    1.666071   -1.111878
     40          6           0        2.609675    1.400041    0.158176
     41          1           0        2.996450    0.451002    0.542580
     42          6           0        2.629615    2.398508    1.320830
     43          6           0        3.493736    1.867997   -1.015997
     44          1           0        4.535112    1.821563   -0.681924
     45          1           0        3.378276    1.139092   -1.827404
     46          8           0        1.677588    3.022958    1.726405
     47          6           0        3.187776    3.279165   -1.542271
     48          1           0        3.340247    4.015618   -0.740538
     49          1           0        2.132726    3.346670   -1.838063
     50          6           0        4.077414    3.628147   -2.744461
     51          1           0        5.131010    3.554346   -2.443798
     52          1           0        3.916207    2.893970   -3.541712
     53          6           0        3.849360    5.031144   -3.316605
     54          1           0        4.074547    5.791415   -2.552732
     55          1           0        4.546131    5.190618   -4.145639
     56          7           0        2.479063    5.193724   -3.862840
     57          1           0        2.425493    6.053348   -4.407864
     58          1           0        1.812804    5.306327   -3.099810
     59          1           0        2.050924    3.757478   -4.797317
     60          8           0        3.875180    2.499952    1.828398
     61          1           0       -4.355991   -5.518848    6.261225
     62          1           0        3.844170    3.160217    2.546787
 ---------------------------------------------------------------------

 SCF Done:  E(RB3LYP) =  -1526.30164947     A.U. after    3 cycles

 Alpha  occ. eigenvalues --  -19.29578 -19.29491 -19.25932 -19.25399 -19.24175
 Alpha  occ. eigenvalues --  -19.23878 -19.22390 -14.59184 -14.49583 -14.47732
 Alpha  occ. eigenvalues --  -14.42789 -10.43184 -10.42657 -10.41869 -10.41723
 Alpha  occ. eigenvalues --  -10.40343 -10.36215 -10.34396 -10.32980 -10.32932
 Alpha  occ. eigenvalues --  -10.32633 -10.29982 -10.29320 -10.28942 -10.28016
 Alpha  occ. eigenvalues --  -10.27906 -10.27822 -10.27519 -10.27120 -10.26621
 Alpha  occ. eigenvalues --  -10.26435  -1.20600  -1.20426  -1.18705  -1.16273
 Alpha  occ. eigenvalues --   -1.13451  -1.11859  -1.11553  -1.11253  -1.06266
 Alpha  occ. eigenvalues --   -1.04729  -0.98408  -0.94497  -0.93959  -0.91029
 Alpha  occ. eigenvalues --   -0.89083  -0.86787  -0.85288  -0.83102  -0.82290
 Alpha  occ. eigenvalues --   -0.79065  -0.78279  -0.75907  -0.74251  -0.74055
 Alpha  occ. eigenvalues --   -0.72345  -0.71891  -0.70276  -0.70092  -0.69687
 Alpha  occ. eigenvalues --   -0.69142  -0.66855  -0.66627  -0.65815  -0.63560
 Alpha  occ. eigenvalues --   -0.62682  -0.61511  -0.61087  -0.60552  -0.59930
 Alpha  occ. eigenvalues --   -0.58984  -0.58621  -0.58394  -0.57825  -0.57425
 Alpha  occ. eigenvalues --   -0.57108  -0.56030  -0.55625  -0.55019  -0.54993
 Alpha  occ. eigenvalues --   -0.54361  -0.53716  -0.53586  -0.52853  -0.52270
 Alpha  occ. eigenvalues --   -0.52075  -0.51115  -0.50944  -0.50413  -0.49861
 Alpha  occ. eigenvalues --   -0.49671  -0.49221  -0.48586  -0.48366  -0.48105
 Alpha  occ. eigenvalues --   -0.47508  -0.47267  -0.46783  -0.46263  -0.45101
 Alpha  occ. eigenvalues --   -0.43890  -0.43134  -0.42642  -0.41865  -0.41847
 Alpha  occ. eigenvalues --   -0.41578  -0.41504  -0.40533  -0.39658  -0.39162
 Alpha  occ. eigenvalues --   -0.38507  -0.38191  -0.37820  -0.36954  -0.35066
 Alpha  occ. eigenvalues --   -0.33724  -0.29560
 Alpha virt. eigenvalues --   -0.13815  -0.10768  -0.09738  -0.09118  -0.09053
 Alpha virt. eigenvalues --   -0.08794  -0.07676  -0.06040  -0.04092  -0.02084
 Alpha virt. eigenvalues --   -0.01875  -0.01643  -0.01412  -0.00460   0.00430

 Mulliken charges:
               1
     1  N   -0.761003
     2  H    0.459172
     3  H    0.406218
     4  H    0.414393
     5  C   -0.118542
     6  H    0.191940
     7  C    0.613856
     8  C   -0.273033
     9  H    0.202692
    10  H    0.217446
    11  O   -0.490695
    12  C   -0.390841
    13  H    0.193906
    14  H    0.170525
    15  C    0.598837
    16  O   -0.434427
    17  O   -0.558929
    18  N   -0.565610
    19  H    0.346421
    20  C   -0.115682
    21  H    0.194275
    22  C    0.670834
    23  C   -0.344239
    24  H    0.200925
    25  H    0.179892
    26  O   -0.602697
    27  C    0.111984
    28  C   -0.215528
    29  H    0.133674
    30  C   -0.184208
    31  H    0.141579
    32  C   -0.198485
    33  H    0.138595
    34  C   -0.168155
    35  H    0.156329
    36  O   -0.677081
    37  C    0.369048
    38  N   -0.596216
    39  H    0.387085
    40  C   -0.045256
    41  H    0.196337
    42  C    0.600910
    43  C   -0.299859
    44  H    0.180255
    45  H    0.173943
    46  O   -0.465096
    47  C   -0.298052
    48  H    0.147932
    49  H    0.140064
    50  C   -0.270941
    51  H    0.149668
    52  H    0.175472
    53  C   -0.149056
    54  H    0.145394
    55  H    0.171139
    56  N   -0.775795
    57  H    0.336631
    58  H    0.324060
    59  H    0.463701
    60  O   -0.561733
    61  H    0.431641
    62  H    0.424386
 Sum of Mulliken charges =   1.00000

 Dipole moment (field-independent basis, Debye):
    X=              1.3286    Y=              1.9845    Z=             10.2697  Tot=             10.5437
 Quadrupole moment (field-independent basis, Debye-Ang):
   XX=           -150.7177   YY=           -115.3744   ZZ=           -121.6923
   XY=             26.1747   XZ=            -25.3624   YZ=            -52.2263

 Normal termination of Gaussian 16 at Wed Jun  1 23:44:32 2022.
