 Gaussian 16, Revision C.01,
 Gaussian 16:  ES64L-G16RevC.01  3-Jul-2019

 ----------------------------------------------------------------------
 # B3LYP/6-31G* empiricaldispersion=gd3 guess=read geom=check nosymm in
 tegral(ultrafinegrid)
 ----------------------------------------------------------------------

 ------------------------------------------------------
 Candidate Structure: Conf:306 Charge calc in gas phase
 ------------------------------------------------------
 Structure from the checkpoint file:  "conf-306.chk"
 Charge =  1 Multiplicity = 1

                          Input orientation:
 ---------------------------------------------------------------------
 Center     Atomic      Atomic             Coordinates (Angstroms)
 Number     Number       Type             X           Y           Z
 ---------------------------------------------------------------------
      1          7           0       -0.024753   -1.323148    2.883749
      2          1           0        0.555251   -0.592207    2.395310
      3          1           0        0.194471   -1.389508    3.881796
      4          1           0        0.195116   -2.215246    2.421141
      5          6           0       -1.488687   -1.001378    2.606115
      6          1           0       -1.698856   -0.067941    3.136787
      7          6           0       -1.433253   -0.831817    1.068374
      8          6           0       -2.393779   -2.136219    3.068287
      9          1           0       -2.233432   -2.339531    4.132440
     10          1           0       -2.128829   -3.039573    2.506302
     11          8           0       -1.049390   -1.802637    0.430068
     12          6           0       -3.871424   -1.788506    2.826934
     13          1           0       -4.070361   -1.593937    1.769539
     14          1           0       -4.141320   -0.884482    3.390059
     15          6           0       -4.828960   -2.888337    3.258600
     16          8           0       -5.805269   -3.228557    2.639644
     17          8           0       -4.460890   -3.423132    4.448546
     18          7           0       -1.684368    0.415100    0.578861
     19          1           0       -1.951020    1.097833    1.278231
     20          6           0       -0.837781    0.973737   -0.483519
     21          1           0       -1.210376    1.986463   -0.664507
     22          6           0        0.601315    1.120353    0.105455
     23          6           0       -0.911671    0.167743   -1.842363
     24          1           0       -1.357298   -0.802002   -1.625667
     25          1           0       -1.596659    0.703096   -2.506347
     26          8           0        0.976029    0.487283    1.107575
     27          6           0        0.442871   -0.009475   -2.484170
     28          6           0        0.895450    0.840063   -3.502220
     29          1           0        0.200091    1.532080   -3.974539
     30          6           0        1.350977   -0.921851   -1.926195
     31          1           0        1.006581   -1.606076   -1.155375
     32          6           0        2.235083    0.845492   -3.894072
     33          1           0        2.595076    1.521044   -4.663768
     34          6           0        2.688045   -0.926434   -2.307449
     35          1           0        3.390389   -1.624092   -1.861013
     36          8           0        4.467956    0.098825   -3.563473
     37          6           0        3.156028   -0.004025   -3.261393
     38          7           0        1.393871    2.012046   -0.508862
     39          1           0        1.075883    2.358242   -1.407407
     40          6           0        2.853228    2.036305   -0.343212
     41          1           0        3.266674    1.141662   -0.813177
     42          6           0        3.285531    2.001606    1.111845
     43          6           0        3.409503    3.311693   -1.012798
     44          1           0        3.084430    3.301867   -2.061727
     45          1           0        2.924470    4.166373   -0.526977
     46          8           0        4.226397    1.342735    1.504866
     47          6           0        4.940854    3.490655   -0.963756
     48          1           0        5.314234    3.276640    0.046063
     49          1           0        5.121071    4.560105   -1.115637
     50          6           0        5.765551    2.705126   -2.018889
     51          1           0        5.118605    2.334625   -2.821704
     52          1           0        6.463174    3.406121   -2.491607
     53          6           0        6.616735    1.537595   -1.502390
     54          1           0        7.311960    1.243804   -2.296145
     55          1           0        7.224805    1.871619   -0.647534
     56          7           0        5.815782    0.333973   -1.171534
     57          1           0        4.988926   -0.012187   -2.708953
     58          1           0        5.282075    0.501900   -0.315873
     59          1           0        6.449058   -0.433727   -0.947394
     60          8           0        2.608683    2.867406    1.889392
     61          1           0       -5.127551   -4.099733    4.676331
     62          1           0        3.031182    2.845750    2.769157
 ---------------------------------------------------------------------

 SCF Done:  E(RB3LYP) =  -1526.28392401     A.U. after    2 cycles

 Alpha  occ. eigenvalues --  -19.30427 -19.29631 -19.27046 -19.26612 -19.24888
 Alpha  occ. eigenvalues --  -19.23736 -19.22180 -14.60340 -14.50691 -14.48996
 Alpha  occ. eigenvalues --  -14.41690 -10.44337 -10.43029 -10.42785 -10.42337
 Alpha  occ. eigenvalues --  -10.41287 -10.37296 -10.34590 -10.34139 -10.32568
 Alpha  occ. eigenvalues --  -10.32429 -10.29994 -10.29379 -10.29205 -10.27954
 Alpha  occ. eigenvalues --  -10.27783 -10.27449 -10.27441 -10.26869 -10.26731
 Alpha  occ. eigenvalues --  -10.26051  -1.21501  -1.20356  -1.19813  -1.17430
 Alpha  occ. eigenvalues --   -1.14520  -1.12406  -1.11534  -1.11028  -1.07301
 Alpha  occ. eigenvalues --   -1.05729  -0.97421  -0.95344  -0.94091  -0.91304
 Alpha  occ. eigenvalues --   -0.89115  -0.86774  -0.84892  -0.83092  -0.82688
 Alpha  occ. eigenvalues --   -0.79197  -0.78679  -0.76351  -0.75145  -0.74903
 Alpha  occ. eigenvalues --   -0.72554  -0.72178  -0.71193  -0.70519  -0.70083
 Alpha  occ. eigenvalues --   -0.69433  -0.67438  -0.66812  -0.65729  -0.64542
 Alpha  occ. eigenvalues --   -0.64054  -0.61974  -0.61378  -0.60241  -0.59906
 Alpha  occ. eigenvalues --   -0.59330  -0.58922  -0.58181  -0.57800  -0.57348
 Alpha  occ. eigenvalues --   -0.56784  -0.56508  -0.56017  -0.55641  -0.55624
 Alpha  occ. eigenvalues --   -0.55104  -0.54989  -0.54035  -0.52736  -0.52506
 Alpha  occ. eigenvalues --   -0.51796  -0.51705  -0.51041  -0.50418  -0.50220
 Alpha  occ. eigenvalues --   -0.49795  -0.49339  -0.49088  -0.48571  -0.48304
 Alpha  occ. eigenvalues --   -0.48226  -0.47771  -0.46766  -0.46336  -0.45313
 Alpha  occ. eigenvalues --   -0.43713  -0.43120  -0.42443  -0.42155  -0.41835
 Alpha  occ. eigenvalues --   -0.41673  -0.41449  -0.41041  -0.40158  -0.39349
 Alpha  occ. eigenvalues --   -0.38968  -0.38391  -0.37803  -0.37292  -0.34527
 Alpha  occ. eigenvalues --   -0.33724  -0.29672
 Alpha virt. eigenvalues --   -0.15121  -0.11916  -0.10366  -0.09918  -0.09160
 Alpha virt. eigenvalues --   -0.08982  -0.08144  -0.07212  -0.04800  -0.03141
 Alpha virt. eigenvalues --   -0.02914  -0.02355  -0.01654  -0.00766  -0.00647

 Mulliken charges:
               1
     1  N   -0.756907
     2  H    0.457039
     3  H    0.408389
     4  H    0.418798
     5  C   -0.111184
     6  H    0.191642
     7  C    0.619146
     8  C   -0.281511
     9  H    0.188393
    10  H    0.196561
    11  O   -0.490834
    12  C   -0.370390
    13  H    0.204739
    14  H    0.188352
    15  C    0.584614
    16  O   -0.424187
    17  O   -0.566490
    18  N   -0.565081
    19  H    0.344464
    20  C   -0.092790
    21  H    0.187863
    22  C    0.665247
    23  C   -0.358698
    24  H    0.213200
    25  H    0.171527
    26  O   -0.601016
    27  C    0.123740
    28  C   -0.227511
    29  H    0.137793
    30  C   -0.183883
    31  H    0.145568
    32  C   -0.168108
    33  H    0.156045
    34  C   -0.190937
    35  H    0.140873
    36  O   -0.680444
    37  C    0.360494
    38  N   -0.590327
    39  H    0.354312
    40  C   -0.019681
    41  H    0.205615
    42  C    0.614951
    43  C   -0.321094
    44  H    0.165374
    45  H    0.170785
    46  O   -0.474695
    47  C   -0.290184
    48  H    0.155757
    49  H    0.164092
    50  C   -0.286003
    51  H    0.173316
    52  H    0.158694
    53  C   -0.150904
    54  H    0.165791
    55  H    0.148141
    56  N   -0.802628
    57  H    0.460287
    58  H    0.345577
    59  H    0.327435
    60  O   -0.559935
    61  H    0.430577
    62  H    0.420232
 Sum of Mulliken charges =   1.00000

 Dipole moment (field-independent basis, Debye):
    X=              2.3132    Y=              2.1443    Z=             11.3643  Tot=             11.7939
 Quadrupole moment (field-independent basis, Debye-Ang):
   XX=           -143.4301   YY=           -151.1151   ZZ=           -134.3033
   XY=             11.7442   XZ=            -13.7897   YZ=            -27.2736

 Normal termination of Gaussian 16 at Wed Jun  1 23:38:03 2022.
