 Gaussian 16, Revision C.01,
 Gaussian 16:  ES64L-G16RevC.01  3-Jul-2019

 ----------------------------------------------------------------------
 # B3LYP/6-31G* empiricaldispersion=gd3 guess=read geom=check nosymm in
 tegral(ultrafinegrid)
 ----------------------------------------------------------------------

 ------------------------------------------------------
 Candidate Structure: Conf:123 Charge calc in gas phase
 ------------------------------------------------------
 Structure from the checkpoint file:  "conf-123.chk"
 Charge =  1 Multiplicity = 1

                          Input orientation:
 ---------------------------------------------------------------------
 Center     Atomic      Atomic             Coordinates (Angstroms)
 Number     Number       Type             X           Y           Z
 ---------------------------------------------------------------------
      1          7           0       -2.815452   -0.904977    2.116239
      2          1           0       -2.756142   -1.413676    1.163491
      3          1           0       -3.432826   -1.448163    2.725553
      4          1           0       -3.284289   -0.016079    1.902366
      5          6           0       -1.426436   -0.723100    2.651960
      6          1           0       -0.942422   -1.698740    2.541945
      7          6           0       -0.764020    0.323221    1.732296
      8          6           0       -1.412592   -0.319873    4.132555
      9          1           0       -0.371981   -0.158161    4.432420
     10          1           0       -1.759507   -1.176226    4.724406
     11          8           0       -1.259940    1.433582    1.620143
     12          6           0       -2.239762    0.919773    4.489179
     13          1           0       -3.316026    0.755260    4.361257
     14          1           0       -1.982737    1.766047    3.843447
     15          6           0       -1.987248    1.334033    5.926390
     16          8           0       -1.067745    0.943014    6.610674
     17          8           0       -2.911877    2.221367    6.345607
     18          7           0        0.390109   -0.073498    1.095091
     19          1           0        0.508905   -1.079991    1.035852
     20          6           0        0.806288    0.636733   -0.118130
     21          1           0        0.218387    1.559632   -0.147599
     22          6           0        2.266760    1.049610   -0.089733
     23          6           0        0.451781   -0.193450   -1.404414
     24          1           0        0.722704    0.430144   -2.263211
     25          1           0        1.097790   -1.081561   -1.436690
     26          8           0        2.774687    1.594878   -1.098208
     27          6           0       -1.000188   -0.572164   -1.370725
     28          6           0       -1.418097   -1.818947   -0.901741
     29          1           0       -0.687821   -2.625561   -0.804836
     30          6           0       -1.999007    0.418758   -1.564196
     31          1           0       -1.700606    1.386261   -1.971304
     32          6           0       -2.747359   -2.053521   -0.518078
     33          1           0       -3.078826   -3.047973   -0.223729
     34          6           0       -3.314761    0.220177   -1.215372
     35          1           0       -4.055845    1.003705   -1.347222
     36          8           0       -4.821347   -1.068395    0.112423
     37          6           0       -3.749200   -0.993806   -0.547867
     38          7           0        2.959992    0.803759    1.024937
     39          1           0        2.479833    0.382997    1.817141
     40          6           0        4.376068    1.093037    1.203279
     41          1           0        4.959995    0.446637    0.534113
     42          6           0        4.725492    0.660736    2.626451
     43          6           0        4.755988    2.576199    0.908656
     44          1           0        3.823202    3.141004    0.808817
     45          1           0        5.279849    3.007375    1.766971
     46          8           0        3.932458    0.188172    3.409976
     47          6           0        5.642709    2.714917   -0.342400
     48          1           0        5.296572    2.011442   -1.108477
     49          1           0        6.659279    2.406862   -0.076876
     50          6           0        5.674271    4.140705   -0.934900
     51          1           0        5.470602    4.893289   -0.160409
     52          1           0        6.675190    4.372634   -1.315487
     53          6           0        4.732978    4.346798   -2.120808
     54          1           0        4.800544    5.362543   -2.518853
     55          1           0        4.950437    3.639163   -2.925092
     56          7           0        3.281011    4.110911   -1.752889
     57          1           0        2.663380    4.294165   -2.550440
     58          1           0        2.988711    4.732916   -0.992770
     59          1           0        3.099047    3.101228   -1.446010
     60          8           0        6.027344    0.859426    2.879893
     61          1           0       -2.683946    2.463078    7.263749
     62          1           0        6.206921    0.556128    3.791100
 ---------------------------------------------------------------------

 SCF Done:  E(RB3LYP) =  -1526.23516181     A.U. after    1 cycles

 Alpha  occ. eigenvalues --  -19.32283 -19.27732 -19.26972 -19.25985 -19.24766
 Alpha  occ. eigenvalues --  -19.22280 -19.11678 -14.59574 -14.53788 -14.49779
 Alpha  occ. eigenvalues --  -14.48693 -10.45046 -10.42665 -10.41856 -10.40651
 Alpha  occ. eigenvalues --  -10.39765 -10.37503 -10.37470 -10.34771 -10.33835
 Alpha  occ. eigenvalues --  -10.32823 -10.31959 -10.31083 -10.29809 -10.28696
 Alpha  occ. eigenvalues --  -10.27716 -10.25180 -10.24432 -10.23929 -10.22076
 Alpha  occ. eigenvalues --  -10.22057  -1.23407  -1.18724  -1.17535  -1.16783
 Alpha  occ. eigenvalues --   -1.14699  -1.14197  -1.09870  -1.09132  -1.06799
 Alpha  occ. eigenvalues --   -1.04761  -1.01455  -0.94954  -0.92132  -0.91330
 Alpha  occ. eigenvalues --   -0.90210  -0.87348  -0.85325  -0.84092  -0.79828
 Alpha  occ. eigenvalues --   -0.79389  -0.78897  -0.76306  -0.74747  -0.74660
 Alpha  occ. eigenvalues --   -0.73106  -0.71807  -0.71546  -0.71050  -0.70601
 Alpha  occ. eigenvalues --   -0.69541  -0.67289  -0.66648  -0.66107  -0.64653
 Alpha  occ. eigenvalues --   -0.64468  -0.63044  -0.62154  -0.61644  -0.60597
 Alpha  occ. eigenvalues --   -0.60281  -0.59698  -0.59050  -0.58711  -0.58240
 Alpha  occ. eigenvalues --   -0.57892  -0.57234  -0.56643  -0.55987  -0.55869
 Alpha  occ. eigenvalues --   -0.55305  -0.54421  -0.53380  -0.52868  -0.52585
 Alpha  occ. eigenvalues --   -0.52524  -0.51962  -0.51000  -0.50734  -0.50387
 Alpha  occ. eigenvalues --   -0.50023  -0.49160  -0.48579  -0.47792  -0.47655
 Alpha  occ. eigenvalues --   -0.47449  -0.46838  -0.46705  -0.46475  -0.46095
 Alpha  occ. eigenvalues --   -0.45471  -0.44429  -0.43988  -0.42033  -0.41213
 Alpha  occ. eigenvalues --   -0.40468  -0.40019  -0.39958  -0.39637  -0.39282
 Alpha  occ. eigenvalues --   -0.38561  -0.37634  -0.35935  -0.35453  -0.30611
 Alpha  occ. eigenvalues --   -0.25457  -0.23033
 Alpha virt. eigenvalues --   -0.12667  -0.11737  -0.11519  -0.11182  -0.07276
 Alpha virt. eigenvalues --   -0.06538  -0.06127  -0.05456  -0.04168  -0.03822
 Alpha virt. eigenvalues --   -0.03550  -0.02962  -0.01739  -0.01073  -0.00824

 Mulliken charges:
               1
     1  N   -0.745574
     2  H    0.397274
     3  H    0.402925
     4  H    0.424952
     5  C   -0.100123
     6  H    0.181911
     7  C    0.636598
     8  C   -0.287835
     9  H    0.201059
    10  H    0.178818
    11  O   -0.487625
    12  C   -0.383004
    13  H    0.177599
    14  H    0.225917
    15  C    0.588282
    16  O   -0.452662
    17  O   -0.558132
    18  N   -0.626259
    19  H    0.344994
    20  C   -0.067896
    21  H    0.211558
    22  C    0.650001
    23  C   -0.371265
    24  H    0.164204
    25  H    0.146570
    26  O   -0.616264
    27  C    0.143090
    28  C   -0.181756
    29  H    0.105989
    30  C   -0.167335
    31  H    0.098313
    32  C   -0.352483
    33  H    0.134756
    34  C   -0.199139
    35  H    0.128396
    36  O   -0.638744
    37  C    0.378269
    38  N   -0.620655
    39  H    0.379984
    40  C   -0.000294
    41  H    0.212419
    42  C    0.572605
    43  C   -0.283742
    44  H    0.127077
    45  H    0.193031
    46  O   -0.448905
    47  C   -0.300929
    48  H    0.173464
    49  H    0.186682
    50  C   -0.294025
    51  H    0.168047
    52  H    0.201303
    53  C   -0.199213
    54  H    0.212460
    55  H    0.221739
    56  N   -0.773912
    57  H    0.411844
    58  H    0.398665
    59  H    0.470818
    60  O   -0.557039
    61  H    0.423385
    62  H    0.439812
 Sum of Mulliken charges =   1.00000

 Dipole moment (field-independent basis, Debye):
    X=             19.7092    Y=             14.1466    Z=              3.9980  Tot=             24.5879
 Quadrupole moment (field-independent basis, Debye-Ang):
   XX=           -116.0765   YY=           -106.0288   ZZ=           -140.6677
   XY=             53.9513   XZ=            -31.8639   YZ=            -27.6671

 Normal termination of Gaussian 16 at Wed Jun  1 23:37:52 2022.
