 Gaussian 16, Revision C.01,
 Gaussian 16:  ES64L-G16RevC.01  3-Jul-2019

 ----------------------------------------------------------------------
 # B3LYP/6-31G* empiricaldispersion=gd3 guess=read geom=check nosymm in
 tegral(ultrafinegrid)
 ----------------------------------------------------------------------

 ------------------------------------------------------
 Candidate Structure: Conf:474 Charge calc in gas phase
 ------------------------------------------------------
 Structure from the checkpoint file:  "conf-474.chk"
 Charge =  1 Multiplicity = 1

                          Input orientation:
 ---------------------------------------------------------------------
 Center     Atomic      Atomic             Coordinates (Angstroms)
 Number     Number       Type             X           Y           Z
 ---------------------------------------------------------------------
      1          7           0       -0.176539   -2.350880    2.882845
      2          1           0        0.354806   -1.614119    2.350760
      3          1           0        0.092417   -2.385479    3.877196
      4          1           0        0.020863   -3.244600    2.418297
      5          6           0       -1.657446   -2.032454    2.745301
      6          1           0       -1.812425   -1.134514    3.349258
      7          6           0       -1.759945   -1.774965    1.221801
      8          6           0       -2.542013   -3.189012    3.212923
      9          1           0       -2.519147   -3.969451    2.445202
     10          1           0       -3.567800   -2.806790    3.253072
     11          8           0       -1.529622   -2.724229    0.488626
     12          6           0       -2.172924   -3.817143    4.577221
     13          1           0       -1.246113   -4.396140    4.499479
     14          1           0       -2.969333   -4.503579    4.871546
     15          6           0       -2.023805   -2.787796    5.677687
     16          8           0       -2.869051   -2.423004    6.448400
     17          8           0       -0.752793   -2.247102    5.667992
     18          7           0       -1.964164   -0.479843    0.840924
     19          1           0       -2.102855    0.164293    1.610887
     20          6           0       -1.202432    0.121087   -0.264439
     21          1           0       -1.595811    1.135098   -0.388383
     22          6           0        0.272640    0.252066    0.217979
     23          6           0       -1.373725   -0.616117   -1.621849
     24          1           0       -1.129580   -1.669485   -1.489440
     25          1           0       -2.438910   -0.558694   -1.875181
     26          8           0        0.732704   -0.477407    1.115684
     27          6           0       -0.498836    0.000584   -2.684783
     28          6           0       -0.747504    1.289050   -3.178071
     29          1           0       -1.665683    1.805811   -2.902031
     30          6           0        0.670499   -0.652054   -3.100724
     31          1           0        0.877829   -1.656202   -2.737732
     32          6           0        0.166576    1.928973   -4.015311
     33          1           0       -0.034834    2.927918   -4.391292
     34          6           0        1.586983   -0.031349   -3.940562
     35          1           0        2.502187   -0.528805   -4.245120
     36          8           0        2.322654    1.883104   -5.106226
     37          6           0        1.364075    1.283469   -4.378770
     38          7           0        1.004561    1.238061   -0.319738
     39          1           0        0.649684    1.708862   -1.145512
     40          6           0        2.402827    1.455734    0.057402
     41          1           0        3.020526    0.637486   -0.327056
     42          6           0        2.584248    1.453025    1.575414
     43          6           0        2.929583    2.811285   -0.461859
     44          1           0        2.313112    3.609530   -0.029008
     45          1           0        3.936469    2.929037   -0.042525
     46          8           0        3.533095    0.968751    2.141811
     47          6           0        3.001452    2.962550   -1.987643
     48          1           0        1.997267    2.932699   -2.421222
     49          1           0        3.547871    2.118387   -2.426580
     50          6           0        3.681874    4.284260   -2.376458
     51          1           0        3.097590    5.127861   -1.977608
     52          1           0        4.663702    4.342614   -1.888348
     53          6           0        3.907707    4.494565   -3.876618
     54          1           0        4.493435    5.414644   -4.013533
     55          1           0        4.498877    3.665698   -4.282675
     56          7           0        2.638276    4.539083   -4.642916
     57          1           0        2.816487    4.922352   -5.571394
     58          1           0        1.983456    5.182065   -4.197327
     59          1           0        2.255051    2.881193   -5.009732
     60          8           0        1.620663    2.170209    2.207556
     61          1           0       -0.702630   -1.603332    6.401669
     62          1           0        1.889208    2.211858    3.144702
 ---------------------------------------------------------------------

 SCF Done:  E(RB3LYP) =  -1526.29920462     A.U. after    2 cycles

 Alpha  occ. eigenvalues --  -19.33366 -19.29343 -19.26957 -19.26041 -19.25710
 Alpha  occ. eigenvalues --  -19.23384 -19.22323 -14.58234 -14.49750 -14.48407
 Alpha  occ. eigenvalues --  -14.42885 -10.45061 -10.43381 -10.41924 -10.41769
 Alpha  occ. eigenvalues --  -10.40298 -10.36427 -10.34435 -10.34223 -10.33686
 Alpha  occ. eigenvalues --  -10.32406 -10.30102 -10.29238 -10.29233 -10.27815
 Alpha  occ. eigenvalues --  -10.27666 -10.27646 -10.27606 -10.27303 -10.26910
 Alpha  occ. eigenvalues --  -10.26207  -1.23332  -1.20226  -1.18658  -1.16634
 Alpha  occ. eigenvalues --   -1.14787  -1.12921  -1.11242  -1.11186  -1.06353
 Alpha  occ. eigenvalues --   -1.04882  -0.98551  -0.94895  -0.93969  -0.91092
 Alpha  occ. eigenvalues --   -0.89348  -0.87142  -0.85615  -0.82941  -0.82298
 Alpha  occ. eigenvalues --   -0.79343  -0.78833  -0.76065  -0.74154  -0.73625
 Alpha  occ. eigenvalues --   -0.72968  -0.72140  -0.71005  -0.70188  -0.69655
 Alpha  occ. eigenvalues --   -0.69087  -0.67517  -0.66782  -0.65862  -0.64111
 Alpha  occ. eigenvalues --   -0.63436  -0.61940  -0.61404  -0.61046  -0.60666
 Alpha  occ. eigenvalues --   -0.59499  -0.59227  -0.58481  -0.57608  -0.57552
 Alpha  occ. eigenvalues --   -0.56797  -0.56528  -0.55929  -0.55476  -0.55125
 Alpha  occ. eigenvalues --   -0.54927  -0.54171  -0.53980  -0.53739  -0.53377
 Alpha  occ. eigenvalues --   -0.52705  -0.51882  -0.50960  -0.50433  -0.50320
 Alpha  occ. eigenvalues --   -0.50097  -0.50064  -0.49243  -0.49119  -0.48417
 Alpha  occ. eigenvalues --   -0.47808  -0.47569  -0.47159  -0.45598  -0.45206
 Alpha  occ. eigenvalues --   -0.44796  -0.43836  -0.43286  -0.42819  -0.42491
 Alpha  occ. eigenvalues --   -0.41466  -0.41266  -0.40980  -0.40203  -0.39770
 Alpha  occ. eigenvalues --   -0.39306  -0.38636  -0.38143  -0.36555  -0.34939
 Alpha  occ. eigenvalues --   -0.33632  -0.29295
 Alpha virt. eigenvalues --   -0.14103  -0.12347  -0.10816  -0.09085  -0.08400
 Alpha virt. eigenvalues --   -0.08159  -0.07510  -0.06282  -0.04962  -0.02414
 Alpha virt. eigenvalues --   -0.01928  -0.01361  -0.00792  -0.00085   0.00458

 Mulliken charges:
               1
     1  N   -0.776848
     2  H    0.455615
     3  H    0.427375
     4  H    0.410398
     5  C   -0.107162
     6  H    0.191678
     7  C    0.611665
     8  C   -0.297402
     9  H    0.212600
    10  H    0.207166
    11  O   -0.483959
    12  C   -0.370039
    13  H    0.176474
    14  H    0.227318
    15  C    0.579693
    16  O   -0.401551
    17  O   -0.607269
    18  N   -0.568328
    19  H    0.341234
    20  C   -0.098327
    21  H    0.181930
    22  C    0.665170
    23  C   -0.357081
    24  H    0.206798
    25  H    0.177762
    26  O   -0.590741
    27  C    0.138814
    28  C   -0.229510
    29  H    0.132766
    30  C   -0.188534
    31  H    0.138732
    32  C   -0.203859
    33  H    0.139431
    34  C   -0.165441
    35  H    0.153654
    36  O   -0.689881
    37  C    0.372853
    38  N   -0.612834
    39  H    0.374023
    40  C    0.007685
    41  H    0.195288
    42  C    0.586828
    43  C   -0.318855
    44  H    0.163893
    45  H    0.178704
    46  O   -0.454398
    47  C   -0.280777
    48  H    0.148262
    49  H    0.165315
    50  C   -0.277013
    51  H    0.137689
    52  H    0.159011
    53  C   -0.138235
    54  H    0.154335
    55  H    0.172740
    56  N   -0.781263
    57  H    0.338987
    58  H    0.320834
    59  H    0.472731
    60  O   -0.576741
    61  H    0.435781
    62  H    0.414819
 Sum of Mulliken charges =   1.00000

 Dipole moment (field-independent basis, Debye):
    X=             -0.2306    Y=              2.0625    Z=              7.1282  Tot=              7.4242
 Quadrupole moment (field-independent basis, Debye-Ang):
   XX=           -167.7471   YY=           -113.5714   ZZ=           -124.8609
   XY=             24.2148   XZ=            -18.2415   YZ=            -53.1859

 Normal termination of Gaussian 16 at Wed Jun  1 23:44:21 2022.
