 Gaussian 16, Revision C.01,
 Gaussian 16:  ES64L-G16RevC.01  3-Jul-2019

 ----------------------------------------------------------------------
 # B3LYP/6-31G* empiricaldispersion=gd3 guess=read geom=check nosymm in
 tegral(ultrafinegrid)
 ----------------------------------------------------------------------

 ------------------------------------------------------
 Candidate Structure: Conf:962 Charge calc in gas phase
 ------------------------------------------------------
 Structure from the checkpoint file:  "conf-962.chk"
 Charge =  1 Multiplicity = 1

                          Input orientation:
 ---------------------------------------------------------------------
 Center     Atomic      Atomic             Coordinates (Angstroms)
 Number     Number       Type             X           Y           Z
 ---------------------------------------------------------------------
      1          7           0       -0.253873   -2.476831    3.018854
      2          1           0        0.335801   -1.618635    2.812382
      3          1           0       -0.135989   -2.806920    3.980938
      4          1           0        0.067455   -3.204413    2.367615
      5          6           0       -1.698253   -2.132703    2.672317
      6          1           0       -2.031774   -1.425093    3.437377
      7          6           0       -1.487758   -1.476263    1.287539
      8          6           0       -2.566683   -3.382562    2.638553
      9          1           0       -2.506433   -3.911282    3.595715
     10          1           0       -2.182076   -4.047976    1.856735
     11          8           0       -1.064606   -2.189027    0.388848
     12          6           0       -4.030511   -3.023095    2.338183
     13          1           0       -4.127458   -2.513208    1.376042
     14          1           0       -4.419344   -2.350146    3.114770
     15          6           0       -4.951342   -4.231845    2.289782
     16          8           0       -5.828207   -4.394732    1.479078
     17          8           0       -4.681358   -5.098953    3.296609
     18          7           0       -1.630067   -0.124522    1.236971
     19          1           0       -1.893895    0.314898    2.110123
     20          6           0       -0.696395    0.675047    0.436510
     21          1           0       -0.938454    1.720277    0.657246
     22          6           0        0.734013    0.454484    1.016583
     23          6           0       -0.872082    0.459881   -1.091284
     24          1           0       -0.632055   -0.577533   -1.328574
     25          1           0       -1.943395    0.590943   -1.287741
     26          8           0        0.957162   -0.295723    1.986361
     27          6           0       -0.045927    1.400326   -1.944805
     28          6           0       -0.193168    2.794667   -1.872404
     29          1           0       -0.965602    3.226626   -1.238160
     30          6           0        0.941316    0.892329   -2.804853
     31          1           0        1.075514   -0.183871   -2.883883
     32          6           0        0.632442    3.652235   -2.600745
     33          1           0        0.493336    4.727641   -2.541368
     34          6           0        1.763896    1.733389   -3.544687
     35          1           0        2.529322    1.335510   -4.203140
     36          8           0        2.485685    3.892935   -4.147649
     37          6           0        1.633677    3.129273   -3.440707
     38          7           0        1.699711    1.195727    0.467731
     39          1           0        1.455540    1.780393   -0.323607
     40          6           0        3.012705    1.370755    1.069442
     41          1           0        3.490265    0.394426    1.196702
     42          6           0        2.860044    2.006146    2.455129
     43          6           0        3.878092    2.264375    0.153016
     44          1           0        4.906367    2.247941    0.526144
     45          1           0        3.885578    1.797147   -0.840146
     46          8           0        1.857797    2.530776    2.881038
     47          6           0        3.362257    3.710388    0.047116
     48          1           0        3.576325    4.251383    0.978081
     49          1           0        2.269106    3.708146   -0.053770
     50          6           0        3.939645    4.459755   -1.159409
     51          1           0        5.023353    4.594618   -1.044664
     52          1           0        3.797121    3.847703   -2.055489
     53          6           0        3.253610    5.817576   -1.385833
     54          1           0        2.201909    5.749708   -1.084990
     55          1           0        3.715869    6.592235   -0.756191
     56          7           0        3.256193    6.172801   -2.822587
     57          1           0        2.811844    7.079388   -2.964012
     58          1           0        2.588343    4.811286   -3.749888
     59          1           0        4.215450    6.273142   -3.156452
     60          8           0        4.026691    1.939250    3.127306
     61          1           0       -5.321563   -5.832541    3.219991
     62          1           0        3.899300    2.398638    3.979183
 ---------------------------------------------------------------------

 SCF Done:  E(RB3LYP) =  -1526.29714581     A.U. after    1 cycles

 Alpha  occ. eigenvalues --  -19.29568 -19.29122 -19.26157 -19.25492 -19.23919
 Alpha  occ. eigenvalues --  -19.23225 -19.22410 -14.59394 -14.49791 -14.47712
 Alpha  occ. eigenvalues --  -14.42525 -10.43339 -10.41953 -10.41806 -10.41787
 Alpha  occ. eigenvalues --  -10.40496 -10.36274 -10.34536 -10.33400 -10.32595
 Alpha  occ. eigenvalues --  -10.31912 -10.30125 -10.29412 -10.29192 -10.28026
 Alpha  occ. eigenvalues --  -10.27942 -10.27885 -10.27470 -10.27014 -10.26915
 Alpha  occ. eigenvalues --  -10.26302  -1.20511  -1.19844  -1.18893  -1.16376
 Alpha  occ. eigenvalues --   -1.13657  -1.11615  -1.11174  -1.11008  -1.06461
 Alpha  occ. eigenvalues --   -1.04859  -0.98224  -0.94655  -0.93909  -0.91166
 Alpha  occ. eigenvalues --   -0.88944  -0.86247  -0.85482  -0.82987  -0.82347
 Alpha  occ. eigenvalues --   -0.78924  -0.78150  -0.75903  -0.74253  -0.74122
 Alpha  occ. eigenvalues --   -0.72077  -0.71767  -0.70601  -0.70179  -0.69846
 Alpha  occ. eigenvalues --   -0.68909  -0.67832  -0.66806  -0.66277  -0.63672
 Alpha  occ. eigenvalues --   -0.62938  -0.61627  -0.60778  -0.60100  -0.59373
 Alpha  occ. eigenvalues --   -0.58596  -0.58334  -0.57627  -0.57594  -0.56889
 Alpha  occ. eigenvalues --   -0.56732  -0.56096  -0.55688  -0.55214  -0.54950
 Alpha  occ. eigenvalues --   -0.54765  -0.53734  -0.53582  -0.53366  -0.52132
 Alpha  occ. eigenvalues --   -0.51849  -0.51172  -0.50837  -0.50262  -0.50131
 Alpha  occ. eigenvalues --   -0.49540  -0.49166  -0.48828  -0.48512  -0.47773
 Alpha  occ. eigenvalues --   -0.47622  -0.47173  -0.46507  -0.45680  -0.44900
 Alpha  occ. eigenvalues --   -0.43943  -0.43087  -0.42654  -0.42437  -0.41731
 Alpha  occ. eigenvalues --   -0.41402  -0.41171  -0.40685  -0.39744  -0.39357
 Alpha  occ. eigenvalues --   -0.38716  -0.38316  -0.36982  -0.36773  -0.34841
 Alpha  occ. eigenvalues --   -0.33651  -0.29470
 Alpha virt. eigenvalues --   -0.14027  -0.10931  -0.09596  -0.08989  -0.08742
 Alpha virt. eigenvalues --   -0.08617  -0.07582  -0.06327  -0.04118  -0.02295
 Alpha virt. eigenvalues --   -0.01939  -0.01415  -0.00883  -0.00285   0.00273

 Mulliken charges:
               1
     1  N   -0.761568
     2  H    0.458673
     3  H    0.407335
     4  H    0.415782
     5  C   -0.111070
     6  H    0.192834
     7  C    0.607477
     8  C   -0.281167
     9  H    0.186329
    10  H    0.195432
    11  O   -0.488955
    12  C   -0.368618
    13  H    0.205286
    14  H    0.188211
    15  C    0.583341
    16  O   -0.426061
    17  O   -0.566574
    18  N   -0.563403
    19  H    0.347408
    20  C   -0.118417
    21  H    0.198275
    22  C    0.676539
    23  C   -0.343420
    24  H    0.199816
    25  H    0.180744
    26  O   -0.604357
    27  C    0.099697
    28  C   -0.210713
    29  H    0.132838
    30  C   -0.186394
    31  H    0.141996
    32  C   -0.191412
    33  H    0.142825
    34  C   -0.165254
    35  H    0.156539
    36  O   -0.681370
    37  C    0.369018
    38  N   -0.605577
    39  H    0.388960
    40  C   -0.032871
    41  H    0.194913
    42  C    0.607806
    43  C   -0.309082
    44  H    0.183534
    45  H    0.173638
    46  O   -0.470037
    47  C   -0.293919
    48  H    0.157156
    49  H    0.145463
    50  C   -0.288098
    51  H    0.151320
    52  H    0.172964
    53  C   -0.140594
    54  H    0.150774
    55  H    0.152060
    56  N   -0.772147
    57  H    0.331563
    58  H    0.461259
    59  H    0.332943
    60  O   -0.563230
    61  H    0.429255
    62  H    0.424304
 Sum of Mulliken charges =   1.00000

 Dipole moment (field-independent basis, Debye):
    X=              2.9662    Y=              0.9737    Z=             11.5305  Tot=             11.9457
 Quadrupole moment (field-independent basis, Debye-Ang):
   XX=           -147.5160   YY=            -94.4926   ZZ=           -138.6529
   XY=             37.3497   XZ=            -18.7038   YZ=            -43.6786

 Normal termination of Gaussian 16 at Wed Jun  1 23:44:02 2022.
