 Gaussian 16, Revision C.01,
 Gaussian 16:  ES64L-G16RevC.01  3-Jul-2019

 ----------------------------------------------------------------------
 # B3LYP/6-31G* empiricaldispersion=gd3 guess=read geom=check nosymm in
 tegral(ultrafinegrid)
 ----------------------------------------------------------------------

 ------------------------------------------------------
 Candidate Structure: Conf:879 Charge calc in gas phase
 ------------------------------------------------------
 Structure from the checkpoint file:  "conf-879.chk"
 Charge =  1 Multiplicity = 1

                          Input orientation:
 ---------------------------------------------------------------------
 Center     Atomic      Atomic             Coordinates (Angstroms)
 Number     Number       Type             X           Y           Z
 ---------------------------------------------------------------------
      1          7           0       -0.849682   -2.608558    2.351805
      2          1           0        0.051333   -2.556208    1.876265
      3          1           0       -0.674033   -2.951715    3.295605
      4          1           0       -1.914258   -3.998073    1.406663
      5          6           0       -1.346115   -1.222272    2.492715
      6          1           0       -0.859004   -0.739526    3.353398
      7          6           0       -0.843804   -0.408447    1.280517
      8          6           0       -2.869412   -1.178385    2.730226
      9          1           0       -3.389615   -1.302945    1.776641
     10          1           0       -3.134866   -0.192471    3.135607
     11          8           0        0.285127   -0.620804    0.844993
     12          6           0       -3.423949   -2.272405    3.660957
     13          1           0       -3.264994   -3.247725    3.185869
     14          1           0       -4.503782   -2.148628    3.774892
     15          6           0       -2.780317   -2.318466    5.028477
     16          8           0       -1.583541   -2.252687    5.248060
     17          8           0       -3.685462   -2.467914    6.015431
     18          7           0       -1.640044    0.605075    0.803372
     19          1           0       -2.607667    0.589073    1.095381
     20          6           0       -1.409105    1.293410   -0.483332
     21          1           0       -1.792507    2.313540   -0.346092
     22          6           0        0.107216    1.451910   -0.719679
     23          6           0       -2.149377    0.652344   -1.710416
     24          1           0       -3.101748    1.176341   -1.847049
     25          1           0       -1.533774    0.843827   -2.594157
     26          8           0        0.666680    1.101303   -1.747398
     27          6           0       -2.392030   -0.818524   -1.487816
     28          6           0       -1.308366   -1.704733   -1.465154
     29          1           0       -0.345586   -1.375335   -1.843880
     30          6           0       -3.632855   -1.269832   -1.018169
     31          1           0       -4.500814   -0.615290   -1.078747
     32          6           0       -1.414216   -2.926973   -0.810224
     33          1           0       -0.548583   -3.572540   -0.697522
     34          6           0       -3.751915   -2.501195   -0.371612
     35          1           0       -4.688986   -2.816151    0.077915
     36          8           0       -2.619829   -4.279905    0.769263
     37          6           0       -2.605329   -3.273186   -0.160606
     38          7           0        0.765925    2.119693    0.293883
     39          1           0        0.233450    2.191843    1.153544
     40          6           0        2.176640    1.800859    0.500607
     41          1           0        2.369656    0.830350    0.023812
     42          6           0        2.521779    1.596182    1.975336
     43          6           0        3.141885    2.841297   -0.099515
     44          1           0        2.936179    3.810753    0.376280
     45          1           0        4.157984    2.546799    0.188553
     46          8           0        3.656979    1.496056    2.379934
     47          6           0        3.030973    2.945205   -1.625310
     48          1           0        2.059577    3.364172   -1.909137
     49          1           0        3.049358    1.944472   -2.064329
     50          6           0        4.166615    3.764285   -2.266441
     51          1           0        5.134512    3.305748   -2.018145
     52          1           0        4.057699    3.734400   -3.359545
     53          6           0        4.161594    5.213858   -1.800132
     54          1           0        3.228222    5.727494   -2.044506
     55          1           0        4.358280    5.317449   -0.731365
     56          7           0        5.274301    5.999702   -2.505702
     57          1           0        5.303564    6.985559   -2.217925
     58          1           0        5.149395    5.973335   -3.525424
     59          1           0        6.193578    5.586649   -2.304343
     60          8           0        1.440084    1.537101    2.785667
     61          1           0       -3.186758   -2.533465    6.852788
     62          1           0        1.771146    1.371233    3.688955
 ---------------------------------------------------------------------

 SCF Done:  E(RB3LYP) =  -1526.25441095     A.U. after    1 cycles

 Alpha  occ. eigenvalues --  -19.29236 -19.26254 -19.22959 -19.20721 -19.20356
 Alpha  occ. eigenvalues --  -19.19574 -19.19232 -14.65571 -14.44506 -14.43743
 Alpha  occ. eigenvalues --  -14.38845 -10.42315 -10.41390 -10.38892 -10.37354
 Alpha  occ. eigenvalues --  -10.36785 -10.34671 -10.32974 -10.32018 -10.30275
 Alpha  occ. eigenvalues --  -10.29685 -10.29602 -10.28561 -10.26474 -10.26362
 Alpha  occ. eigenvalues --  -10.25726 -10.24210 -10.24156 -10.23431 -10.23364
 Alpha  occ. eigenvalues --  -10.23053  -1.19907  -1.19409  -1.17187  -1.12573
 Alpha  occ. eigenvalues --   -1.11247  -1.10821  -1.08049  -1.07683  -1.01377
 Alpha  occ. eigenvalues --   -1.00141  -0.95833  -0.95736  -0.90252  -0.89049
 Alpha  occ. eigenvalues --   -0.86178  -0.84979  -0.83762  -0.79962  -0.79467
 Alpha  occ. eigenvalues --   -0.79140  -0.78005  -0.77424  -0.76443  -0.72220
 Alpha  occ. eigenvalues --   -0.71385  -0.71151  -0.68713  -0.67505  -0.67088
 Alpha  occ. eigenvalues --   -0.66097  -0.65284  -0.64279  -0.63209  -0.62663
 Alpha  occ. eigenvalues --   -0.61172  -0.60167  -0.58058  -0.57663  -0.57377
 Alpha  occ. eigenvalues --   -0.57130  -0.56696  -0.56115  -0.55849  -0.55668
 Alpha  occ. eigenvalues --   -0.54420  -0.53999  -0.53478  -0.52428  -0.52137
 Alpha  occ. eigenvalues --   -0.51711  -0.51621  -0.50920  -0.50444  -0.49798
 Alpha  occ. eigenvalues --   -0.49419  -0.49049  -0.48381  -0.47841  -0.47400
 Alpha  occ. eigenvalues --   -0.47078  -0.46739  -0.46228  -0.45796  -0.45419
 Alpha  occ. eigenvalues --   -0.45158  -0.44723  -0.44310  -0.43787  -0.43304
 Alpha  occ. eigenvalues --   -0.42806  -0.41870  -0.41452  -0.40876  -0.39569
 Alpha  occ. eigenvalues --   -0.38382  -0.37704  -0.37199  -0.34702  -0.34501
 Alpha  occ. eigenvalues --   -0.34198  -0.33859  -0.33516  -0.33335  -0.31552
 Alpha  occ. eigenvalues --   -0.29669  -0.26783
 Alpha virt. eigenvalues --   -0.15930  -0.09305  -0.09204  -0.08346  -0.07156
 Alpha virt. eigenvalues --   -0.06644  -0.06010  -0.05923  -0.05302  -0.04669
 Alpha virt. eigenvalues --   -0.03209  -0.02140  -0.01712  -0.00281   0.01193

 Mulliken charges:
               1
     1  N   -0.784822
     2  H    0.337069
     3  H    0.340006
     4  H    0.439553
     5  C   -0.031846
     6  H    0.170862
     7  C    0.650931
     8  C   -0.318382
     9  H    0.176304
    10  H    0.140318
    11  O   -0.548582
    12  C   -0.364815
    13  H    0.210947
    14  H    0.182688
    15  C    0.586989
    16  O   -0.478355
    17  O   -0.549970
    18  N   -0.635274
    19  H    0.346692
    20  C   -0.043726
    21  H    0.164527
    22  C    0.617764
    23  C   -0.365106
    24  H    0.142788
    25  H    0.184216
    26  O   -0.516773
    27  C    0.153530
    28  C   -0.184502
    29  H    0.155903
    30  C   -0.211567
    31  H    0.123302
    32  C   -0.173099
    33  H    0.135442
    34  C   -0.173590
    35  H    0.141567
    36  O   -0.688696
    37  C    0.351941
    38  N   -0.605786
    39  H    0.357365
    40  C   -0.052326
    41  H    0.224605
    42  C    0.601279
    43  C   -0.275111
    44  H    0.130639
    45  H    0.170257
    46  O   -0.456417
    47  C   -0.267455
    48  H    0.170440
    49  H    0.203260
    50  C   -0.300772
    51  H    0.169054
    52  H    0.169305
    53  C   -0.205121
    54  H    0.228122
    55  H    0.232670
    56  N   -0.731504
    57  H    0.431303
    58  H    0.427506
    59  H    0.428400
    60  O   -0.579322
    61  H    0.416525
    62  H    0.428850
 Sum of Mulliken charges =   1.00000

 Dipole moment (field-independent basis, Debye):
    X=             17.7367    Y=             27.4305    Z=             -4.6890  Tot=             33.0001
 Quadrupole moment (field-independent basis, Debye-Ang):
   XX=            -59.3475   YY=            -31.6345   ZZ=           -128.9273
   XY=            121.3725   XZ=            -69.7276   YZ=            -69.4760

 Normal termination of Gaussian 16 at Wed Jun  1 23:44:03 2022.
