 Gaussian 16, Revision C.01,
 Gaussian 16:  ES64L-G16RevC.01  3-Jul-2019

 ----------------------------------------------------------------------
 # B3LYP/6-31G* empiricaldispersion=gd3 guess=read geom=check nosymm in
 tegral(ultrafinegrid)
 ----------------------------------------------------------------------

 ------------------------------------------------------
 Candidate Structure: Conf:102 Charge calc in gas phase
 ------------------------------------------------------
 Structure from the checkpoint file:  "conf-102.chk"
 Charge =  1 Multiplicity = 1

                          Input orientation:
 ---------------------------------------------------------------------
 Center     Atomic      Atomic             Coordinates (Angstroms)
 Number     Number       Type             X           Y           Z
 ---------------------------------------------------------------------
      1          7           0        0.504416   -2.308429    2.587126
      2          1           0        1.155273   -1.529832    2.327045
      3          1           0        0.700703   -2.671411    3.523996
      4          1           0        0.632863   -3.043757    1.878042
      5          6           0       -0.896392   -1.742602    2.430100
      6          1           0       -0.963696   -0.902620    3.116840
      7          6           0       -0.845989   -1.283778    0.955888
      8          6           0       -1.964536   -2.796823    2.718210
      9          1           0       -1.934874   -3.068768    3.780398
     10          1           0       -1.741537   -3.698521    2.135653
     11          8           0       -0.429210   -2.094029    0.133533
     12          6           0       -3.384047   -2.336226    2.332222
     13          1           0       -4.107472   -3.112262    2.591223
     14          1           0       -3.441604   -2.199350    1.243802
     15          6           0       -3.804908   -1.016948    2.953144
     16          8           0       -3.086098   -0.036599    3.059912
     17          8           0       -5.083475   -1.031551    3.343648
     18          7           0       -1.146628    0.017260    0.712849
     19          1           0       -1.493782    0.523176    1.520654
     20          6           0       -0.267389    0.773464   -0.182718
     21          1           0       -0.550906    1.824363   -0.062308
     22          6           0        1.186005    0.653776    0.379436
     23          6           0       -0.460389    0.392340   -1.674618
     24          1           0       -0.188659   -0.657163   -1.802944
     25          1           0       -1.539624    0.465113   -1.859390
     26          8           0        1.449798   -0.028713    1.387409
     27          6           0        0.315172    1.263614   -2.638473
     28          6           0        1.239097    0.699536   -3.526136
     29          1           0        1.360788   -0.380891   -3.554476
     30          6           0        0.167779    2.662505   -2.652313
     31          1           0       -0.566468    3.137357   -2.003561
     32          6           0        2.010466    1.490656   -4.375701
     33          1           0        2.702674    1.029337   -5.072718
     34          6           0        0.955103    3.467824   -3.469629
     35          1           0        0.855010    4.548449   -3.460103
     36          8           0        2.679311    3.714780   -5.062533
     37          6           0        1.906678    2.891684   -4.330930
     38          7           0        2.127072    1.388445   -0.224253
     39          1           0        1.863036    1.970767   -1.012278
     40          6           0        3.470422    1.522043    0.334345
     41          1           0        3.900421    0.526667    0.476444
     42          6           0        3.460106    2.169260    1.719768
     43          6           0        4.353538    2.349277   -0.619147
     44          1           0        3.829945    3.288997   -0.844581
     45          1           0        5.271392    2.621247   -0.087264
     46          8           0        4.299837    1.953813    2.559807
     47          6           0        4.690508    1.599432   -1.915771
     48          1           0        3.797158    1.080786   -2.283840
     49          1           0        5.438193    0.823738   -1.701253
     50          6           0        5.185165    2.536553   -3.024081
     51          1           0        4.403327    3.276074   -3.230160
     52          1           0        6.064996    3.099122   -2.684386
     53          6           0        5.505713    1.787996   -4.329455
     54          1           0        6.551968    1.448490   -4.329227
     55          1           0        4.883115    0.889602   -4.400332
     56          7           0        5.180762    2.625580   -5.506252
     57          1           0        5.411105    2.130461   -6.367408
     58          1           0        5.759011    3.466758   -5.502745
     59          1           0        3.509858    3.244843   -5.377554
     60          8           0        2.453599    3.062108    1.868611
     61          1           0       -5.306357   -0.143716    3.686917
     62          1           0        2.571841    3.466785    2.749182
 ---------------------------------------------------------------------

 SCF Done:  E(RB3LYP) =  -1526.30746699     A.U. after    2 cycles

 Alpha  occ. eigenvalues --  -19.31564 -19.28846 -19.26391 -19.25489 -19.24789
 Alpha  occ. eigenvalues --  -19.22820 -19.22192 -14.58979 -14.48051 -14.47476
 Alpha  occ. eigenvalues --  -14.42271 -10.44708 -10.42476 -10.41134 -10.41054
 Alpha  occ. eigenvalues --  -10.39191 -10.35627 -10.34234 -10.33837 -10.33040
 Alpha  occ. eigenvalues --  -10.32259 -10.29792 -10.28914 -10.28720 -10.27570
 Alpha  occ. eigenvalues --  -10.27470 -10.27272 -10.27202 -10.26577 -10.26405
 Alpha  occ. eigenvalues --  -10.26289  -1.22743  -1.19621  -1.18240  -1.15681
 Alpha  occ. eigenvalues --   -1.13694  -1.13075  -1.10952  -1.10639  -1.05255
 Alpha  occ. eigenvalues --   -1.04210  -0.97937  -0.94653  -0.93590  -0.90536
 Alpha  occ. eigenvalues --   -0.88484  -0.86367  -0.85002  -0.82714  -0.81925
 Alpha  occ. eigenvalues --   -0.79098  -0.78426  -0.75347  -0.73852  -0.72848
 Alpha  occ. eigenvalues --   -0.72530  -0.71450  -0.70236  -0.69801  -0.69308
 Alpha  occ. eigenvalues --   -0.68606  -0.67507  -0.66592  -0.65486  -0.63850
 Alpha  occ. eigenvalues --   -0.62849  -0.61431  -0.61380  -0.60513  -0.59835
 Alpha  occ. eigenvalues --   -0.58712  -0.58492  -0.57980  -0.57596  -0.56903
 Alpha  occ. eigenvalues --   -0.56234  -0.55964  -0.55485  -0.55197  -0.54401
 Alpha  occ. eigenvalues --   -0.54210  -0.53760  -0.53031  -0.52321  -0.51901
 Alpha  occ. eigenvalues --   -0.51845  -0.51238  -0.51177  -0.50309  -0.49923
 Alpha  occ. eigenvalues --   -0.49663  -0.49058  -0.48709  -0.48587  -0.48455
 Alpha  occ. eigenvalues --   -0.47495  -0.46595  -0.45773  -0.45511  -0.44706
 Alpha  occ. eigenvalues --   -0.43853  -0.43276  -0.42662  -0.42335  -0.42151
 Alpha  occ. eigenvalues --   -0.41129  -0.40576  -0.40016  -0.39557  -0.39265
 Alpha  occ. eigenvalues --   -0.39170  -0.38828  -0.37413  -0.35490  -0.34539
 Alpha  occ. eigenvalues --   -0.33327  -0.29063
 Alpha virt. eigenvalues --   -0.13161  -0.11745  -0.10429  -0.08746  -0.08605
 Alpha virt. eigenvalues --   -0.07968  -0.07032  -0.03681  -0.02958  -0.02438
 Alpha virt. eigenvalues --   -0.02123  -0.01289  -0.01039   0.00497   0.00652

 Mulliken charges:
               1
     1  N   -0.753698
     2  H    0.455827
     3  H    0.405315
     4  H    0.412968
     5  C   -0.100576
     6  H    0.226139
     7  C    0.601652
     8  C   -0.285926
     9  H    0.178820
    10  H    0.186242
    11  O   -0.511086
    12  C   -0.380343
    13  H    0.213762
    14  H    0.218464
    15  C    0.605825
    16  O   -0.486093
    17  O   -0.533877
    18  N   -0.572679
    19  H    0.371004
    20  C   -0.114257
    21  H    0.192301
    22  C    0.668059
    23  C   -0.341256
    24  H    0.193349
    25  H    0.176895
    26  O   -0.601671
    27  C    0.122971
    28  C   -0.190403
    29  H    0.137555
    30  C   -0.222254
    31  H    0.132730
    32  C   -0.194726
    33  H    0.141633
    34  C   -0.164024
    35  H    0.156033
    36  O   -0.682175
    37  C    0.367973
    38  N   -0.605930
    39  H    0.376657
    40  C   -0.009076
    41  H    0.189042
    42  C    0.586110
    43  C   -0.318498
    44  H    0.162572
    45  H    0.184989
    46  O   -0.450902
    47  C   -0.284023
    48  H    0.157663
    49  H    0.150312
    50  C   -0.284618
    51  H    0.167287
    52  H    0.150383
    53  C   -0.141581
    54  H    0.151818
    55  H    0.151492
    56  N   -0.772386
    57  H    0.330854
    58  H    0.332246
    59  H    0.463113
    60  O   -0.572253
    61  H    0.432171
    62  H    0.422082
 Sum of Mulliken charges =   1.00000

 Dipole moment (field-independent basis, Debye):
    X=              2.7763    Y=             -3.1594    Z=              5.1339  Tot=              6.6368
 Quadrupole moment (field-independent basis, Debye-Ang):
   XX=           -117.5165   YY=           -146.3612   ZZ=           -123.6381
   XY=             16.8131   XZ=            -54.0400   YZ=            -26.5206

 Normal termination of Gaussian 16 at Wed Jun  1 23:38:03 2022.
