 Gaussian 16, Revision C.01,
 Gaussian 16:  ES64L-G16RevC.01  3-Jul-2019

 ----------------------------------------------------------------------
 # B3LYP/6-31G* empiricaldispersion=gd3 guess=read geom=check nosymm in
 tegral(ultrafinegrid)
 ----------------------------------------------------------------------

 ------------------------------------------------------
 Candidate Structure: Conf:669 Charge calc in gas phase
 ------------------------------------------------------
 Structure from the checkpoint file:  "conf-669.chk"
 Charge =  1 Multiplicity = 1

                          Input orientation:
 ---------------------------------------------------------------------
 Center     Atomic      Atomic             Coordinates (Angstroms)
 Number     Number       Type             X           Y           Z
 ---------------------------------------------------------------------
      1          7           0        0.502422   -3.064229    2.638690
      2          1           0        1.048640   -2.207345    2.396197
      3          1           0        0.787121   -3.451957    3.542361
      4          1           0        0.672211   -3.740416    1.879918
      5          6           0       -0.958901   -2.656095    2.575599
      6          1           0       -1.079126   -1.843418    3.287764
      7          6           0       -1.049401   -2.165505    1.110565
      8          6           0       -1.881993   -3.832502    2.891946
      9          1           0       -1.752515   -4.131496    3.939446
     10          1           0       -1.599426   -4.685021    2.263135
     11          8           0       -0.584956   -2.908780    0.252785
     12          6           0       -3.366980   -3.524233    2.612465
     13          1           0       -3.979194   -4.388118    2.879153
     14          1           0       -3.507897   -3.351335    1.537007
     15          6           0       -3.888654   -2.287364    3.320015
     16          8           0       -3.295444   -1.222242    3.383991
     17          8           0       -5.101145   -2.480140    3.847857
     18          7           0       -1.550781   -0.914662    0.917198
     19          1           0       -1.947840   -0.505278    1.758061
     20          6           0       -0.803383    0.027508    0.075209
     21          1           0       -1.341676    0.979003    0.123981
     22          6           0        0.591373    0.225547    0.737022
     23          6           0       -0.719866   -0.399363   -1.415830
     24          1           0       -0.210084   -1.361615   -1.481734
     25          1           0       -1.752430   -0.558153   -1.748086
     26          8           0        1.072050   -0.619337    1.514029
     27          6           0       -0.021368    0.643677   -2.253724
     28          6           0       -0.638851    1.874526   -2.528073
     29          1           0       -1.672444    2.036556   -2.226185
     30          6           0        1.299243    0.458741   -2.680975
     31          1           0        1.795594   -0.489920   -2.488242
     32          6           0        0.046849    2.898571   -3.174377
     33          1           0       -0.424054    3.855212   -3.377013
     34          6           0        1.996029    1.471087   -3.336130
     35          1           0        3.020444    1.314711   -3.662369
     36          8           0        2.028421    3.753455   -4.133349
     37          6           0        1.383625    2.714445   -3.564947
     38          7           0        1.235457    1.370855    0.471971
     39          1           0        0.857519    1.996757   -0.229960
     40          6           0        2.554415    1.647126    1.039878
     41          1           0        3.280247    0.938891    0.626629
     42          6           0        2.575055    1.430367    2.554107
     43          6           0        3.024407    3.089155    0.768227
     44          1           0        2.354813    3.786528    1.287199
     45          1           0        4.004400    3.177656    1.253411
     46          8           0        3.512387    0.960903    3.152984
     47          6           0        3.151695    3.482685   -0.711271
     48          1           0        2.161965    3.653703   -1.151612
     49          1           0        3.596415    2.659079   -1.282019
     50          6           0        4.005988    4.750363   -0.866681
     51          1           0        3.617602    5.536990   -0.206105
     52          1           0        5.026092    4.536333   -0.513392
     53          6           0        4.075746    5.328302   -2.282163
     54          1           0        3.079698    5.652071   -2.604229
     55          1           0        4.721457    6.217672   -2.261567
     56          7           0        4.545195    4.327822   -3.272047
     57          1           0        3.009185    3.709442   -3.935378
     58          1           0        5.338461    3.805879   -2.900350
     59          1           0        4.892235    4.808586   -4.101960
     60          8           0        1.470331    1.929842    3.157957
     61          1           0       -5.397701   -1.637451    4.245202
     62          1           0        1.618205    1.838674    4.118203
 ---------------------------------------------------------------------

 SCF Done:  E(RB3LYP) =  -1526.30408521     A.U. after    1 cycles

 Alpha  occ. eigenvalues --  -19.31737 -19.28964 -19.26545 -19.25542 -19.25086
 Alpha  occ. eigenvalues --  -19.23048 -19.22093 -14.59039 -14.48029 -14.47937
 Alpha  occ. eigenvalues --  -14.42091 -10.44852 -10.42571 -10.41398 -10.41277
 Alpha  occ. eigenvalues --  -10.39225 -10.35614 -10.34317 -10.34127 -10.33108
 Alpha  occ. eigenvalues --  -10.31974 -10.29419 -10.28972 -10.28746 -10.27488
 Alpha  occ. eigenvalues --  -10.27271 -10.27252 -10.27194 -10.27100 -10.26215
 Alpha  occ. eigenvalues --  -10.26078  -1.22907  -1.19863  -1.18248  -1.16003
 Alpha  occ. eigenvalues --   -1.13839  -1.13115  -1.10854  -1.10839  -1.05194
 Alpha  occ. eigenvalues --   -1.04439  -0.97811  -0.94703  -0.93476  -0.90668
 Alpha  occ. eigenvalues --   -0.88551  -0.86426  -0.85184  -0.82504  -0.81828
 Alpha  occ. eigenvalues --   -0.79223  -0.78624  -0.75361  -0.73913  -0.73126
 Alpha  occ. eigenvalues --   -0.72617  -0.71857  -0.70202  -0.69584  -0.69131
 Alpha  occ. eigenvalues --   -0.68695  -0.67100  -0.66435  -0.65436  -0.63875
 Alpha  occ. eigenvalues --   -0.63104  -0.61515  -0.61408  -0.60861  -0.59816
 Alpha  occ. eigenvalues --   -0.58870  -0.58567  -0.58415  -0.57894  -0.56564
 Alpha  occ. eigenvalues --   -0.56169  -0.55898  -0.55591  -0.55079  -0.54438
 Alpha  occ. eigenvalues --   -0.54044  -0.53808  -0.53445  -0.53166  -0.52026
 Alpha  occ. eigenvalues --   -0.51727  -0.51202  -0.50417  -0.50278  -0.50046
 Alpha  occ. eigenvalues --   -0.49786  -0.49298  -0.48807  -0.48537  -0.48103
 Alpha  occ. eigenvalues --   -0.47634  -0.47092  -0.46416  -0.45120  -0.44695
 Alpha  occ. eigenvalues --   -0.43958  -0.43245  -0.43085  -0.42266  -0.41951
 Alpha  occ. eigenvalues --   -0.41299  -0.40927  -0.40162  -0.39983  -0.39214
 Alpha  occ. eigenvalues --   -0.38847  -0.38382  -0.37206  -0.36073  -0.34301
 Alpha  occ. eigenvalues --   -0.33134  -0.29041
 Alpha virt. eigenvalues --   -0.13535  -0.11922  -0.10178  -0.08747  -0.08493
 Alpha virt. eigenvalues --   -0.08076  -0.07042  -0.03660  -0.02918  -0.02511
 Alpha virt. eigenvalues --   -0.02214  -0.01679  -0.01219  -0.00170   0.00734

 Mulliken charges:
               1
     1  N   -0.752242
     2  H    0.456178
     3  H    0.405221
     4  H    0.414597
     5  C   -0.100574
     6  H    0.222838
     7  C    0.605678
     8  C   -0.287195
     9  H    0.178153
    10  H    0.188383
    11  O   -0.505168
    12  C   -0.379779
    13  H    0.213850
    14  H    0.218976
    15  C    0.605691
    16  O   -0.486175
    17  O   -0.532683
    18  N   -0.579519
    19  H    0.371144
    20  C   -0.103709
    21  H    0.183284
    22  C    0.671395
    23  C   -0.353321
    24  H    0.196826
    25  H    0.176894
    26  O   -0.596277
    27  C    0.131774
    28  C   -0.214560
    29  H    0.133148
    30  C   -0.190028
    31  H    0.133442
    32  C   -0.168912
    33  H    0.152873
    34  C   -0.191270
    35  H    0.140225
    36  O   -0.687270
    37  C    0.365786
    38  N   -0.609142
    39  H    0.371227
    40  C    0.006497
    41  H    0.187930
    42  C    0.585643
    43  C   -0.321916
    44  H    0.169328
    45  H    0.177639
    46  O   -0.458105
    47  C   -0.275189
    48  H    0.154663
    49  H    0.151461
    50  C   -0.284188
    51  H    0.156472
    52  H    0.143584
    53  C   -0.138135
    54  H    0.172074
    55  H    0.152211
    56  N   -0.776587
    57  H    0.460259
    58  H    0.320671
    59  H    0.336605
    60  O   -0.570550
    61  H    0.432263
    62  H    0.417614
 Sum of Mulliken charges =   1.00000

 Dipole moment (field-independent basis, Debye):
    X=              1.0731    Y=             -3.2828    Z=              9.5152  Tot=             10.1226
 Quadrupole moment (field-independent basis, Debye-Ang):
   XX=           -126.2407   YY=           -113.2223   ZZ=           -139.8900
   XY=             34.1710   XZ=            -34.7019   YZ=            -41.0210

 Normal termination of Gaussian 16 at Wed Jun  1 23:44:10 2022.
