 Gaussian 16, Revision C.01,
 Gaussian 16:  ES64L-G16RevC.01  3-Jul-2019

 ----------------------------------------------------------------------
 # B3LYP/6-31G* empiricaldispersion=gd3 guess=read geom=check nosymm in
 tegral(ultrafinegrid)
 ----------------------------------------------------------------------

 ------------------------------------------------------
 Candidate Structure: Conf:876 Charge calc in gas phase
 ------------------------------------------------------
 Structure from the checkpoint file:  "conf-876.chk"
 Charge =  1 Multiplicity = 1

                          Input orientation:
 ---------------------------------------------------------------------
 Center     Atomic      Atomic             Coordinates (Angstroms)
 Number     Number       Type             X           Y           Z
 ---------------------------------------------------------------------
      1          7           0       -0.660204   -1.869733    3.193623
      2          1           0       -0.067006   -1.026260    2.926338
      3          1           0       -0.632818   -2.047966    4.201079
      4          1           0       -0.248867   -2.670052    2.697346
      5          6           0       -2.073632   -1.643241    2.655371
      6          1           0       -2.518063   -0.878197    3.299025
      7          6           0       -1.730834   -1.123595    1.242656
      8          6           0       -2.890095   -2.928250    2.653901
      9          1           0       -2.418673   -3.648924    1.977863
     10          1           0       -3.864402   -2.681336    2.215270
     11          8           0       -1.204428   -1.901285    0.458783
     12          6           0       -3.096122   -3.538561    4.051648
     13          1           0       -3.572957   -2.828957    4.733187
     14          1           0       -2.137285   -3.852463    4.486870
     15          6           0       -3.985232   -4.771905    3.992891
     16          8           0       -5.046177   -4.889015    4.552380
     17          8           0       -3.423727   -5.723875    3.211087
     18          7           0       -1.838823    0.217191    1.056374
     19          1           0       -2.188038    0.755088    1.838634
     20          6           0       -0.821796    0.891890    0.241754
     21          1           0       -0.912832    1.957790    0.482505
     22          6           0        0.574479    0.534230    0.831116
     23          6           0       -1.069765    0.716948   -1.276774
     24          1           0       -0.999430   -0.346818   -1.516533
     25          1           0       -2.115039    1.008959   -1.440001
     26          8           0        0.698121    0.150387    2.011745
     27          6           0       -0.139610    1.517631   -2.174139
     28          6           0        0.148359    2.873403   -1.941103
     29          1           0       -0.340665    3.407840   -1.130009
     30          6           0        0.515673    0.886605   -3.245176
     31          1           0        0.311008   -0.161467   -3.450754
     32          6           0        1.091511    3.555829   -2.707588
     33          1           0        1.303244    4.602758   -2.510918
     34          6           0        1.442038    1.562606   -4.032522
     35          1           0        1.954683    1.065361   -4.849565
     36          8           0        2.704940    3.505382   -4.511084
     37          6           0        1.762319    2.901797   -3.757772
     38          7           0        1.633169    0.810595    0.062578
     39          1           0        1.425788    1.180689   -0.860068
     40          6           0        2.931778    1.188236    0.613067
     41          1           0        3.366653    0.361064    1.178620
     42          6           0        2.715525    2.369711    1.568269
     43          6           0        3.838579    1.590447   -0.576155
     44          1           0        4.156407    0.671433   -1.082663
     45          1           0        3.205573    2.133829   -1.288122
     46          8           0        1.819414    3.177931    1.466743
     47          6           0        5.054828    2.460961   -0.232191
     48          1           0        5.642536    1.998018    0.568261
     49          1           0        4.705993    3.419792    0.174667
     50          6           0        5.965225    2.722490   -1.447496
     51          1           0        6.734451    3.450048   -1.157861
     52          1           0        6.496041    1.796651   -1.707881
     53          6           0        5.235301    3.206941   -2.711429
     54          1           0        5.963441    3.398872   -3.505700
     55          1           0        4.582619    2.414992   -3.092928
     56          7           0        4.406628    4.425281   -2.577201
     57          1           0        3.230687    4.135033   -3.939831
     58          1           0        4.992726    5.254752   -2.501502
     59          1           0        3.845350    4.390136   -1.727274
     60          8           0        3.670780    2.413980    2.514080
     61          1           0       -4.033161   -6.487095    3.198275
     62          1           0        3.513178    3.213337    3.052884
 ---------------------------------------------------------------------

 SCF Done:  E(RB3LYP) =  -1526.28556688     A.U. after    1 cycles

 Alpha  occ. eigenvalues --  -19.30214 -19.29755 -19.26518 -19.25761 -19.24539
 Alpha  occ. eigenvalues --  -19.24087 -19.22426 -14.59744 -14.50119 -14.47644
 Alpha  occ. eigenvalues --  -14.42330 -10.43628 -10.42596 -10.42545 -10.42133
 Alpha  occ. eigenvalues --  -10.40993 -10.36511 -10.34978 -10.33898 -10.33049
 Alpha  occ. eigenvalues --  -10.32637 -10.29765 -10.29693 -10.29536 -10.28340
 Alpha  occ. eigenvalues --  -10.28157 -10.28096 -10.27731 -10.27105 -10.27073
 Alpha  occ. eigenvalues --  -10.26524  -1.21162  -1.20565  -1.19274  -1.16628
 Alpha  occ. eigenvalues --   -1.13994  -1.12218  -1.11819  -1.11263  -1.06721
 Alpha  occ. eigenvalues --   -1.05100  -0.98086  -0.95001  -0.94180  -0.91345
 Alpha  occ. eigenvalues --   -0.89463  -0.87107  -0.85242  -0.83165  -0.82549
 Alpha  occ. eigenvalues --   -0.78983  -0.78271  -0.76239  -0.75289  -0.74796
 Alpha  occ. eigenvalues --   -0.72835  -0.72097  -0.71368  -0.70555  -0.70135
 Alpha  occ. eigenvalues --   -0.68953  -0.67412  -0.66665  -0.65879  -0.63873
 Alpha  occ. eigenvalues --   -0.63136  -0.61828  -0.61492  -0.60956  -0.60006
 Alpha  occ. eigenvalues --   -0.59775  -0.59181  -0.58202  -0.57978  -0.57160
 Alpha  occ. eigenvalues --   -0.56982  -0.56363  -0.55448  -0.55240  -0.54764
 Alpha  occ. eigenvalues --   -0.54354  -0.53799  -0.53535  -0.53132  -0.52881
 Alpha  occ. eigenvalues --   -0.52357  -0.51862  -0.51242  -0.50738  -0.50349
 Alpha  occ. eigenvalues --   -0.49959  -0.49656  -0.49268  -0.48982  -0.48663
 Alpha  occ. eigenvalues --   -0.47594  -0.47286  -0.46940  -0.46304  -0.45437
 Alpha  occ. eigenvalues --   -0.43926  -0.43628  -0.42923  -0.42293  -0.41913
 Alpha  occ. eigenvalues --   -0.41744  -0.41491  -0.40671  -0.39890  -0.39495
 Alpha  occ. eigenvalues --   -0.39299  -0.38578  -0.37676  -0.37515  -0.34498
 Alpha  occ. eigenvalues --   -0.33721  -0.29891
 Alpha virt. eigenvalues --   -0.14500  -0.11740  -0.10786  -0.09551  -0.09063
 Alpha virt. eigenvalues --   -0.08632  -0.07949  -0.06527  -0.04594  -0.02855
 Alpha virt. eigenvalues --   -0.02338  -0.02107  -0.01748  -0.00596   0.00447

 Mulliken charges:
               1
     1  N   -0.765894
     2  H    0.459256
     3  H    0.408299
     4  H    0.416044
     5  C   -0.109173
     6  H    0.196779
     7  C    0.604106
     8  C   -0.289704
     9  H    0.213685
    10  H    0.205529
    11  O   -0.490576
    12  C   -0.366021
    13  H    0.193741
    14  H    0.159805
    15  C    0.576738
    16  O   -0.420146
    17  O   -0.560470
    18  N   -0.564066
    19  H    0.348750
    20  C   -0.113185
    21  H    0.210561
    22  C    0.669741
    23  C   -0.335021
    24  H    0.195326
    25  H    0.181662
    26  O   -0.608669
    27  C    0.064770
    28  C   -0.187860
    29  H    0.140429
    30  C   -0.184234
    31  H    0.145585
    32  C   -0.198421
    33  H    0.147019
    34  C   -0.160915
    35  H    0.158638
    36  O   -0.671647
    37  C    0.364349
    38  N   -0.605674
    39  H    0.391065
    40  C   -0.019787
    41  H    0.193821
    42  C    0.587444
    43  C   -0.318437
    44  H    0.176301
    45  H    0.163847
    46  O   -0.472149
    47  C   -0.284281
    48  H    0.167334
    49  H    0.137076
    50  C   -0.271161
    51  H    0.150083
    52  H    0.153628
    53  C   -0.159322
    54  H    0.172337
    55  H    0.168271
    56  N   -0.774510
    57  H    0.455874
    58  H    0.329592
    59  H    0.322531
    60  O   -0.555138
    61  H    0.431839
    62  H    0.424606
 Sum of Mulliken charges =   1.00000

 Dipole moment (field-independent basis, Debye):
    X=              2.9606    Y=             -0.8428    Z=             10.4828  Tot=             10.9254
 Quadrupole moment (field-independent basis, Debye-Ang):
   XX=           -134.4183   YY=           -130.0917   ZZ=           -148.8734
   XY=             33.5685   XZ=            -11.6873   YZ=            -16.9043

 Normal termination of Gaussian 16 at Wed Jun  1 23:44:18 2022.
