 Gaussian 16, Revision C.01,
 Gaussian 16:  ES64L-G16RevC.01  3-Jul-2019

 ----------------------------------------------------------------------
 # B3LYP/6-31G* empiricaldispersion=gd3 guess=read geom=check nosymm in
 tegral(ultrafinegrid)
 ----------------------------------------------------------------------

 ------------------------------------------------------
 Candidate Structure: Conf:497 Charge calc in gas phase
 ------------------------------------------------------
 Structure from the checkpoint file:  "conf-497.chk"
 Charge =  1 Multiplicity = 1

                          Input orientation:
 ---------------------------------------------------------------------
 Center     Atomic      Atomic             Coordinates (Angstroms)
 Number     Number       Type             X           Y           Z
 ---------------------------------------------------------------------
      1          7           0       -0.100822   -1.922211    3.177688
      2          1           0        0.409512   -1.109720    2.744456
      3          1           0       -0.084392   -1.895171    4.208215
      4          1           0        0.356881   -2.771435    2.827847
      5          6           0       -1.535962   -1.882093    2.673718
      6          1           0       -1.994700   -1.033135    3.187264
      7          6           0       -1.308949   -1.634007    1.165693
      8          6           0       -2.282930   -3.185379    2.958732
      9          1           0       -1.931391   -3.943700    2.251206
     10          1           0       -3.338897   -3.000465    2.733764
     11          8           0       -0.749101   -2.514324    0.529119
     12          6           0       -2.151674   -3.740034    4.396623
     13          1           0       -1.144539   -4.135361    4.569445
     14          1           0       -2.856896   -4.564631    4.517934
     15          6           0       -2.466783   -2.706469    5.457818
     16          8           0       -3.524769   -2.515582    5.991834
     17          8           0       -1.355119   -1.931172    5.726073
     18          7           0       -1.608145   -0.387122    0.708483
     19          1           0       -1.968844    0.253587    1.404536
     20          6           0       -0.734396    0.250154   -0.283149
     21          1           0       -1.140141    1.255016   -0.439947
     22          6           0        0.665315    0.420815    0.373994
     23          6           0       -0.734204   -0.481222   -1.654599
     24          1           0       -0.149347   -1.399018   -1.573346
     25          1           0       -1.772042   -0.788070   -1.829394
     26          8           0        0.903517    0.019041    1.529199
     27          6           0       -0.242320    0.380074   -2.797646
     28          6           0       -0.956652    1.521944   -3.199955
     29          1           0       -1.886639    1.780253   -2.695939
     30          6           0        0.924683    0.055408   -3.503515
     31          1           0        1.478877   -0.842254   -3.237528
     32          6           0       -0.501369    2.337566   -4.228834
     33          1           0       -1.040490    3.233108   -4.520389
     34          6           0        1.383352    0.855336   -4.549785
     35          1           0        2.284797    0.587927   -5.094048
     36          8           0        1.150273    2.898434   -5.825991
     37          6           0        0.696749    2.031688   -4.895595
     38          7           0        1.605326    1.059369   -0.333735
     39          1           0        1.397396    1.362873   -1.279597
     40          6           0        2.944112    1.258958    0.223485
     41          1           0        3.331312    0.285544    0.537891
     42          6           0        2.941150    2.115981    1.489673
     43          6           0        3.900645    1.869485   -0.820447
     44          1           0        4.921062    1.713053   -0.456543
     45          1           0        3.803116    1.270957   -1.735003
     46          8           0        3.814013    2.056015    2.321625
     47          6           0        3.688772    3.369739   -1.111450
     48          1           0        4.145757    3.953409   -0.304694
     49          1           0        2.617759    3.615310   -1.088682
     50          6           0        4.269554    3.786937   -2.477436
     51          1           0        4.440506    4.869944   -2.505145
     52          1           0        5.247901    3.308818   -2.629183
     53          6           0        3.298013    3.372462   -3.587894
     54          1           0        2.979313    2.342785   -3.409299
     55          1           0        2.387400    3.979361   -3.521378
     56          7           0        3.749552    3.424286   -4.987738
     57          1           0        2.146633    2.936160   -5.797904
     58          1           0        4.592420    2.865410   -5.114942
     59          1           0        3.992550    4.378023   -5.254007
     60          8           0        1.910975    2.991104    1.538536
     61          1           0       -1.604203   -1.291313    6.421759
     62          1           0        2.045350    3.527599    2.343298
 ---------------------------------------------------------------------

 SCF Done:  E(RB3LYP) =  -1526.29509963     A.U. after    3 cycles

 Alpha  occ. eigenvalues --  -19.33498 -19.29554 -19.27083 -19.26196 -19.25765
 Alpha  occ. eigenvalues --  -19.23486 -19.22300 -14.58566 -14.49894 -14.48602
 Alpha  occ. eigenvalues --  -14.42194 -10.45191 -10.43454 -10.42092 -10.41808
 Alpha  occ. eigenvalues --  -10.40538 -10.36533 -10.34736 -10.34423 -10.33863
 Alpha  occ. eigenvalues --  -10.32387 -10.29652 -10.29633 -10.29620 -10.28075
 Alpha  occ. eigenvalues --  -10.28070 -10.27833 -10.27729 -10.27235 -10.26734
 Alpha  occ. eigenvalues --  -10.26445  -1.23451  -1.20370  -1.18913  -1.16724
 Alpha  occ. eigenvalues --   -1.14925  -1.13232  -1.11343  -1.11061  -1.06560
 Alpha  occ. eigenvalues --   -1.05050  -0.98003  -0.95112  -0.94055  -0.91358
 Alpha  occ. eigenvalues --   -0.89599  -0.87325  -0.85543  -0.83037  -0.82444
 Alpha  occ. eigenvalues --   -0.79236  -0.78528  -0.76174  -0.74431  -0.74263
 Alpha  occ. eigenvalues --   -0.73172  -0.72746  -0.71288  -0.70208  -0.70013
 Alpha  occ. eigenvalues --   -0.69752  -0.67641  -0.66711  -0.65953  -0.64317
 Alpha  occ. eigenvalues --   -0.63825  -0.61891  -0.61578  -0.61217  -0.60882
 Alpha  occ. eigenvalues --   -0.59692  -0.59495  -0.58763  -0.57815  -0.57709
 Alpha  occ. eigenvalues --   -0.56735  -0.56567  -0.56211  -0.55753  -0.55132
 Alpha  occ. eigenvalues --   -0.54904  -0.54511  -0.53890  -0.53549  -0.52944
 Alpha  occ. eigenvalues --   -0.52060  -0.51497  -0.51155  -0.50570  -0.50514
 Alpha  occ. eigenvalues --   -0.50333  -0.50253  -0.49718  -0.49212  -0.48882
 Alpha  occ. eigenvalues --   -0.47863  -0.47485  -0.46624  -0.45437  -0.45336
 Alpha  occ. eigenvalues --   -0.45216  -0.44440  -0.43521  -0.43231  -0.42176
 Alpha  occ. eigenvalues --   -0.41686  -0.41280  -0.40689  -0.40329  -0.40048
 Alpha  occ. eigenvalues --   -0.39491  -0.39046  -0.38341  -0.36378  -0.34445
 Alpha  occ. eigenvalues --   -0.33556  -0.29550
 Alpha virt. eigenvalues --   -0.13952  -0.12449  -0.11185  -0.08874  -0.08656
 Alpha virt. eigenvalues --   -0.08487  -0.07764  -0.06438  -0.05131  -0.02351
 Alpha virt. eigenvalues --   -0.01481  -0.01423  -0.01173  -0.00389  -0.00101

 Mulliken charges:
               1
     1  N   -0.777107
     2  H    0.454871
     3  H    0.428257
     4  H    0.409569
     5  C   -0.108460
     6  H    0.194993
     7  C    0.609752
     8  C   -0.298542
     9  H    0.212084
    10  H    0.208787
    11  O   -0.490395
    12  C   -0.370098
    13  H    0.175626
    14  H    0.227880
    15  C    0.580356
    16  O   -0.400096
    17  O   -0.608224
    18  N   -0.564060
    19  H    0.343387
    20  C   -0.109307
    21  H    0.195785
    22  C    0.666495
    23  C   -0.348978
    24  H    0.191913
    25  H    0.186177
    26  O   -0.596903
    27  C    0.116122
    28  C   -0.191732
    29  H    0.130999
    30  C   -0.208440
    31  H    0.137352
    32  C   -0.161452
    33  H    0.156345
    34  C   -0.198896
    35  H    0.144068
    36  O   -0.678141
    37  C    0.378249
    38  N   -0.607290
    39  H    0.373997
    40  C   -0.018397
    41  H    0.194269
    42  C    0.604007
    43  C   -0.322069
    44  H    0.188877
    45  H    0.163107
    46  O   -0.453836
    47  C   -0.288463
    48  H    0.164916
    49  H    0.150873
    50  C   -0.270027
    51  H    0.153402
    52  H    0.140965
    53  C   -0.163255
    54  H    0.152264
    55  H    0.167665
    56  N   -0.760470
    57  H    0.451969
    58  H    0.321145
    59  H    0.330246
    60  O   -0.570152
    61  H    0.437057
    62  H    0.420964
 Sum of Mulliken charges =   1.00000

 Dipole moment (field-independent basis, Debye):
    X=              2.3337    Y=             -0.6327    Z=              7.9677  Tot=              8.3265
 Quadrupole moment (field-independent basis, Debye-Ang):
   XX=           -153.0744   YY=           -138.4099   ZZ=           -130.1954
   XY=             20.4247   XZ=            -34.2317   YZ=            -32.8227

 Normal termination of Gaussian 16 at Wed Jun  1 23:44:36 2022.
