 Gaussian 16, Revision C.01,
 Gaussian 16:  ES64L-G16RevC.01  3-Jul-2019

 ----------------------------------------------------------------------
 # B3LYP/6-31G* empiricaldispersion=gd3bj guess=read geom=check nosymm
 integral(ultrafinegrid)
 ----------------------------------------------------------------------

 ------------------------------------------------------
 Candidate Structure: Conf:211 Charge calc in gas phase
 ------------------------------------------------------
 Structure from the checkpoint file:  "conf-211.chk"
 Charge =  1 Multiplicity = 1

                          Input orientation:
 ---------------------------------------------------------------------
 Center     Atomic      Atomic             Coordinates (Angstroms)
 Number     Number       Type             X           Y           Z
 ---------------------------------------------------------------------
      1          7           0       -2.978353    3.784556   -4.121520
      2          1           0       -3.908478    3.375932   -4.003114
      3          1           0       -2.570680    3.434223   -5.037496
      4          1           0       -2.372392    3.401260   -3.354287
      5          6           0       -3.049060    5.269660   -4.127262
      6          1           0       -3.735342    5.583120   -4.918719
      7          1           0       -3.414138    5.608986   -3.156677
      8          6           0       -1.638622    5.801037   -4.365326
      9          8           0       -0.705078    5.014848   -4.512571
     10          7           0       -1.486910    7.139962   -4.351617
     11          1           0       -2.296914    7.740421   -4.278446
     12          6           0       -0.156625    7.745289   -4.486661
     13          1           0       -0.225854    8.782724   -4.148070
     14          1           0        0.173450    7.722164   -5.525721
     15          6           0        0.841249    6.968112   -3.616256
     16          8           0        1.867277    6.463316   -4.080113
     17          7           0        0.472420    6.896102   -2.314879
     18          1           0       -0.469181    7.220804   -2.120351
     19          6           0        0.852281    5.797734   -1.452564
     20          1           0        1.625647    5.195594   -1.931619
     21          1           0        1.263393    6.162424   -0.504168
     22          6           0       -0.397090    4.946884   -1.174762
     23          8           0       -1.522858    5.330065   -1.512011
     24          7           0       -0.162147    3.799630   -0.504201
     25          1           0        0.804479    3.474360   -0.449228
     26          6           0       -1.224047    2.833173   -0.279576
     27          1           0       -1.103923    2.375118    0.706738
     28          1           0       -2.176306    3.362674   -0.314642
     29          6           0       -1.175192    1.791818   -1.397171
     30          8           0       -1.598503    2.042542   -2.539382
     31          7           0       -0.567008    0.644943   -1.074211
     32          1           0       -0.215597    0.496142   -0.132326
     33          6           0       -0.105781   -0.359707   -2.016812
     34          1           0        0.083817    0.098055   -2.988053
     35          1           0       -0.845938   -1.160144   -2.142670
     36          6           0        1.174750   -0.940642   -1.411851
     37          8           0        1.306555   -0.966789   -0.181354
     38          7           0        2.102054   -1.387032   -2.281765
     39          1           0        2.061469   -1.000254   -3.221558
     40          6           0        3.432150   -1.784112   -1.810225
     41          1           0        3.315511   -2.351964   -0.885138
     42          1           0        3.910435   -2.402898   -2.568570
     43          6           0        4.273347   -0.517901   -1.606756
     44          8           0        5.140594   -0.170264   -2.405123
     45          7           0        3.897898    0.231302   -0.532379
     46          1           0        3.078378   -0.079092   -0.015687
     47          6           0        4.291105    1.631204   -0.432999
     48          1           0        4.054994    1.998078    0.565964
     49          1           0        5.366760    1.713906   -0.605799
     50          6           0        3.503982    2.451083   -1.460741
     51          8           0        2.460967    3.054293   -1.176293
     52          7           0        4.003744    2.417070   -2.714765
     53          1           0        4.711202    1.705763   -2.897597
     54          6           0        3.235461    2.932983   -3.825351
     55          1           0        3.897481    3.006308   -4.694077
     56          1           0        2.880356    3.942175   -3.602145
     57          6           0        2.076990    2.004945   -4.213562
     58          8           0        2.167862    0.778250   -4.141332
     59          7           0        0.994990    2.633698   -4.720979
     60          1           0        0.901232    3.639371   -4.630547
     61          6           0       -0.112271    1.917555   -5.335189
     62          1           0       -0.905306    1.708995   -4.615440
     63          1           0        0.272133    0.963442   -5.710502
     64          6           0       -0.663945    2.771370   -6.471880
     65          8           0       -1.846964    3.139651   -6.513607
     66          7           0        0.253145    3.133673   -7.396945
     67          1           0        1.207288    2.879710   -7.169788
     68          6           0        0.122229    4.382847   -8.132606
     69          1           0       -0.922483    4.543254   -8.393273
     70          1           0        0.707381    4.329359   -9.055646
     71          6           0        0.599323    5.566323   -7.284537
     72          8           0        0.102395    6.669668   -7.357138
     73          8           0        1.604058    5.217099   -6.471414
     74          1           0        1.772697    5.907077   -5.771836
 ---------------------------------------------------------------------

 SCF Done:  E(RB3LYP) =  -2157.16009368     A.U. after    2 cycles

 Alpha  occ. eigenvalues --  -19.27961 -19.25553 -19.24741 -19.24534 -19.23857
 Alpha  occ. eigenvalues --  -19.23387 -19.23262 -19.23142 -19.22821 -19.22819
 Alpha  occ. eigenvalues --  -19.21230 -14.54946 -14.49866 -14.48184 -14.47661
 Alpha  occ. eigenvalues --  -14.47021 -14.46803 -14.46784 -14.46645 -14.45773
 Alpha  occ. eigenvalues --  -14.45245 -10.43078 -10.41679 -10.41207 -10.41196
 Alpha  occ. eigenvalues --  -10.40695 -10.40130 -10.40043 -10.39793 -10.39245
 Alpha  occ. eigenvalues --  -10.38158 -10.38008 -10.34123 -10.34074 -10.33807
 Alpha  occ. eigenvalues --  -10.33479 -10.33447 -10.33088 -10.32972 -10.32351
 Alpha  occ. eigenvalues --  -10.32097  -1.19351  -1.18113  -1.16087  -1.16021
 Alpha  occ. eigenvalues --   -1.15229  -1.15011  -1.14747  -1.14473  -1.13977
 Alpha  occ. eigenvalues --   -1.12804  -1.10776  -1.10140  -1.06092  -1.04939
 Alpha  occ. eigenvalues --   -1.04588  -1.03526  -1.03311  -1.03165  -1.02798
 Alpha  occ. eigenvalues --   -1.02512  -1.01366  -0.89117  -0.88185  -0.87659
 Alpha  occ. eigenvalues --   -0.86139  -0.84977  -0.83636  -0.82574  -0.80876
 Alpha  occ. eigenvalues --   -0.79588  -0.78249  -0.73078  -0.72097  -0.71564
 Alpha  occ. eigenvalues --   -0.71161  -0.70725  -0.70114  -0.69760  -0.68966
 Alpha  occ. eigenvalues --   -0.68934  -0.68274  -0.68140  -0.67080  -0.65897
 Alpha  occ. eigenvalues --   -0.65177  -0.64988  -0.63724  -0.63100  -0.62390
 Alpha  occ. eigenvalues --   -0.61729  -0.61224  -0.60744  -0.60034  -0.59851
 Alpha  occ. eigenvalues --   -0.59532  -0.59356  -0.58772  -0.58613  -0.58122
 Alpha  occ. eigenvalues --   -0.57917  -0.57386  -0.57111  -0.56714  -0.56332
 Alpha  occ. eigenvalues --   -0.56280  -0.56071  -0.55546  -0.55262  -0.54517
 Alpha  occ. eigenvalues --   -0.54415  -0.53803  -0.53236  -0.52854  -0.52471
 Alpha  occ. eigenvalues --   -0.52133  -0.51894  -0.51322  -0.51223  -0.50902
 Alpha  occ. eigenvalues --   -0.50649  -0.50004  -0.49902  -0.49580  -0.49393
 Alpha  occ. eigenvalues --   -0.49228  -0.49129  -0.48709  -0.48109  -0.47751
 Alpha  occ. eigenvalues --   -0.47402  -0.47175  -0.46760  -0.46634  -0.46258
 Alpha  occ. eigenvalues --   -0.41248  -0.40747  -0.40206  -0.39922  -0.39367
 Alpha  occ. eigenvalues --   -0.38765  -0.38483  -0.38396  -0.38224  -0.37754
 Alpha  occ. eigenvalues --   -0.37684  -0.37544  -0.36971  -0.36628  -0.36486
 Alpha  occ. eigenvalues --   -0.35721  -0.35504  -0.35163  -0.34260  -0.33801
 Alpha virt. eigenvalues --   -0.11941  -0.11211  -0.10750  -0.10166  -0.09685
 Alpha virt. eigenvalues --   -0.09006  -0.08450  -0.08234  -0.07698  -0.06800
 Alpha virt. eigenvalues --   -0.06464  -0.04403  -0.02182  -0.01602  -0.00343

 Mulliken charges:
               1
     1  N   -0.795920
     2  H    0.391875
     3  H    0.450005
     4  H    0.444622
     5  C   -0.272625
     6  H    0.220995
     7  H    0.243221
     8  C    0.684514
     9  O   -0.551839
    10  N   -0.612960
    11  H    0.355308
    12  C   -0.248525
    13  H    0.198049
    14  H    0.249644
    15  C    0.612261
    16  O   -0.547700
    17  N   -0.536950
    18  H    0.346053
    19  C   -0.259200
    20  H    0.233622
    21  H    0.206082
    22  C    0.608491
    23  O   -0.567960
    24  N   -0.595318
    25  H    0.393250
    26  C   -0.236858
    27  H    0.182860
    28  H    0.203751
    29  C    0.625376
    30  O   -0.562949
    31  N   -0.578896
    32  H    0.367620
    33  C   -0.222110
    34  H    0.210786
    35  H    0.208904
    36  C    0.599246
    37  O   -0.545161
    38  N   -0.581090
    39  H    0.388753
    40  C   -0.244558
    41  H    0.209541
    42  H    0.203609
    43  C    0.596495
    44  O   -0.517691
    45  N   -0.582045
    46  H    0.376350
    47  C   -0.232997
    48  H    0.188154
    49  H    0.206539
    50  C    0.592029
    51  O   -0.558828
    52  N   -0.557158
    53  H    0.390621
    54  C   -0.264226
    55  H    0.204678
    56  H    0.209791
    57  C    0.623155
    58  O   -0.554439
    59  N   -0.622291
    60  H    0.395734
    61  C   -0.242274
    62  H    0.205231
    63  H    0.206145
    64  C    0.616301
    65  O   -0.561096
    66  N   -0.531915
    67  H    0.356238
    68  C   -0.249403
    69  H    0.223615
    70  H    0.212525
    71  C    0.610577
    72  O   -0.465310
    73  O   -0.612191
    74  H    0.459865
 Sum of Mulliken charges =   1.00000

 Dipole moment (field-independent basis, Debye):
    X=             -4.6940    Y=             17.5792    Z=            -15.3546  Tot=             23.8081
 Quadrupole moment (field-independent basis, Debye-Ang):
   XX=           -195.7148   YY=           -123.5882   ZZ=           -154.2247
   XY=            -34.5805   XZ=             22.1832   YZ=            -60.8050

 Normal termination of Gaussian 16 at Sun Jul 17 02:38:16 2022.
