 Gaussian 16, Revision C.01,
 Gaussian 16:  ES64L-G16RevC.01  3-Jul-2019

 ----------------------------------------------------------------------
 # B3LYP/6-31G* empiricaldispersion=gd3bj guess=read geom=check nosymm
 integral(ultrafinegrid)
 ----------------------------------------------------------------------

 ------------------------------------------------------
 Candidate Structure: Conf:538 Charge calc in gas phase
 ------------------------------------------------------
 Structure from the checkpoint file:  "conf-538.chk"
 Charge =  1 Multiplicity = 1

                          Input orientation:
 ---------------------------------------------------------------------
 Center     Atomic      Atomic             Coordinates (Angstroms)
 Number     Number       Type             X           Y           Z
 ---------------------------------------------------------------------
      1          7           0        3.575331    0.447126   -0.226714
      2          1           0        3.465139    0.607814    0.801863
      3          1           0        4.557656    0.476290   -0.514418
      4          1           0        3.151036    1.272990   -0.697546
      5          6           0        2.864845   -0.814739   -0.628965
      6          1           0        3.600519   -1.609346   -0.759375
      7          1           0        2.197457   -1.077090    0.193415
      8          6           0        2.135342   -0.573445   -1.953553
      9          8           0        2.779382   -0.322521   -2.972338
     10          7           0        0.786223   -0.618829   -1.901365
     11          1           0        0.318543   -0.730043   -1.010527
     12          6           0       -0.043957   -0.104062   -2.977791
     13          1           0       -0.799652   -0.846987   -3.256961
     14          1           0        0.588364    0.072433   -3.846700
     15          6           0       -0.778367    1.145852   -2.488622
     16          8           0       -1.300385    1.144455   -1.369469
     17          7           0       -0.877162    2.182582   -3.344250
     18          1           0       -0.275000    2.216734   -4.155607
     19          6           0       -1.651909    3.366338   -2.991490
     20          1           0       -1.650856    4.036249   -3.853892
     21          1           0       -2.684834    3.066706   -2.790782
     22          6           0       -1.033837    4.112018   -1.799271
     23          8           0        0.132459    4.484207   -1.808442
     24          7           0       -1.862401    4.312477   -0.736818
     25          1           0       -2.782961    3.896489   -0.744434
     26          6           0       -1.348130    4.871838    0.501465
     27          1           0       -0.853058    5.826638    0.311009
     28          1           0       -2.184101    5.057043    1.181209
     29          6           0       -0.303094    3.985190    1.192441
     30          8           0        0.492390    4.459645    1.997605
     31          7           0       -0.319114    2.658708    0.868603
     32          1           0       -0.935063    2.359946    0.116595
     33          6           0        0.929651    1.921790    0.922376
     34          1           0        1.764694    2.599500    0.719773
     35          1           0        0.900558    1.191655    0.116295
     36          6           0        1.283780    1.217935    2.216072
     37          8           0        2.360163    0.600139    2.291427
     38          7           0        0.415782    1.340758    3.233503
     39          1           0       -0.418868    1.881407    3.041583
     40          6           0        0.795229    1.079977    4.611712
     41          1           0       -0.090017    0.814751    5.194548
     42          1           0        1.479719    0.230804    4.632233
     43          6           0        1.503887    2.257218    5.305310
     44          8           0        1.974367    2.101692    6.420815
     45          7           0        1.563488    3.420382    4.595816
     46          1           0        1.122813    3.516127    3.685857
     47          6           0        2.216985    4.602011    5.117259
     48          1           0        1.533686    5.455338    5.139178
     49          1           0        2.527097    4.383943    6.143606
     50          6           0        3.444119    5.029410    4.317017
     51          8           0        3.884435    6.168645    4.380469
     52          7           0        4.024380    4.048636    3.561547
     53          1           0        3.615083    3.125823    3.514003
     54          6           0        5.207452    4.331965    2.802380
     55          1           0        6.115430    3.954266    3.302010
     56          1           0        5.305413    5.421131    2.750494
     57          6           0        5.171628    3.699616    1.423688
     58          8           0        4.500206    2.704961    1.148791
     59          7           0        5.992553    4.280716    0.499579
     60          1           0        6.615205    5.016525    0.807905
     61          6           0        6.340959    3.539810   -0.701423
     62          1           0        6.783338    2.568486   -0.460158
     63          1           0        7.076468    4.121882   -1.264562
     64          6           0        5.148721    3.257299   -1.611924
     65          8           0        5.041126    2.170981   -2.183488
     66          7           0        4.266697    4.267147   -1.792541
     67          1           0        4.347517    5.099214   -1.224965
     68          6           0        3.190374    4.168914   -2.767721
     69          1           0        3.550271    4.392853   -3.775850
     70          1           0        2.394468    4.864227   -2.491827
     71          6           0        2.595541    2.772230   -2.744661
     72          8           0        2.163606    2.253125   -1.721467
     73          8           0        2.539169    2.189144   -3.936177
     74          1           0        2.488170    1.208472   -3.776547
 ---------------------------------------------------------------------

 SCF Done:  E(RB3LYP) =  -2157.12665870     A.U. after    2 cycles

 Alpha  occ. eigenvalues --  -19.29825 -19.25897 -19.25579 -19.25478 -19.24209
 Alpha  occ. eigenvalues --  -19.23795 -19.23675 -19.23414 -19.23286 -19.18753
 Alpha  occ. eigenvalues --  -19.18310 -14.54583 -14.50758 -14.50096 -14.48573
 Alpha  occ. eigenvalues --  -14.48520 -14.47967 -14.47616 -14.46772 -14.43800
 Alpha  occ. eigenvalues --  -14.43664 -10.44226 -10.43669 -10.42687 -10.40951
 Alpha  occ. eigenvalues --  -10.40786 -10.40496 -10.40419 -10.40343 -10.38067
 Alpha  occ. eigenvalues --  -10.36640 -10.36397 -10.35895 -10.35737 -10.34641
 Alpha  occ. eigenvalues --  -10.34348 -10.34060 -10.33684 -10.32375 -10.32050
 Alpha  occ. eigenvalues --  -10.29515  -1.21884  -1.18176  -1.17387  -1.16099
 Alpha  occ. eigenvalues --   -1.15855  -1.15329  -1.15011  -1.14765  -1.12792
 Alpha  occ. eigenvalues --   -1.11150  -1.10446  -1.09810  -1.06745  -1.05919
 Alpha  occ. eigenvalues --   -1.05135  -1.04917  -1.04338  -1.03472  -1.02699
 Alpha  occ. eigenvalues --   -1.00813  -0.99179  -0.90206  -0.88118  -0.87821
 Alpha  occ. eigenvalues --   -0.86331  -0.84874  -0.84190  -0.82635  -0.81478
 Alpha  occ. eigenvalues --   -0.80366  -0.77748  -0.73985  -0.73865  -0.72663
 Alpha  occ. eigenvalues --   -0.71131  -0.70965  -0.70747  -0.70071  -0.69887
 Alpha  occ. eigenvalues --   -0.69277  -0.68560  -0.67095  -0.66807  -0.66470
 Alpha  occ. eigenvalues --   -0.65660  -0.65078  -0.64451  -0.64123  -0.63170
 Alpha  occ. eigenvalues --   -0.62830  -0.62199  -0.61301  -0.60960  -0.60865
 Alpha  occ. eigenvalues --   -0.60301  -0.59612  -0.59478  -0.58774  -0.58455
 Alpha  occ. eigenvalues --   -0.58121  -0.57210  -0.56947  -0.56282  -0.55888
 Alpha  occ. eigenvalues --   -0.55469  -0.55183  -0.54954  -0.54801  -0.54350
 Alpha  occ. eigenvalues --   -0.54187  -0.53929  -0.53566  -0.53441  -0.53165
 Alpha  occ. eigenvalues --   -0.52973  -0.52278  -0.52005  -0.51775  -0.51651
 Alpha  occ. eigenvalues --   -0.51364  -0.50819  -0.50700  -0.50050  -0.49810
 Alpha  occ. eigenvalues --   -0.49058  -0.48955  -0.48282  -0.47771  -0.47614
 Alpha  occ. eigenvalues --   -0.47119  -0.46689  -0.46137  -0.44120  -0.43026
 Alpha  occ. eigenvalues --   -0.42963  -0.41189  -0.40591  -0.40248  -0.40074
 Alpha  occ. eigenvalues --   -0.39897  -0.39431  -0.39188  -0.38728  -0.38579
 Alpha  occ. eigenvalues --   -0.37955  -0.37292  -0.36897  -0.36536  -0.36373
 Alpha  occ. eigenvalues --   -0.35785  -0.34589  -0.33130  -0.32414  -0.31288
 Alpha virt. eigenvalues --   -0.13314  -0.12019  -0.11540  -0.10289  -0.09932
 Alpha virt. eigenvalues --   -0.09598  -0.09501  -0.09268  -0.05756  -0.05037
 Alpha virt. eigenvalues --   -0.04430  -0.04326  -0.04018  -0.03573  -0.02529

 Mulliken charges:
               1
     1  N   -0.811659
     2  H    0.455845
     3  H    0.413142
     4  H    0.477374
     5  C   -0.250521
     6  H    0.238414
     7  H    0.210941
     8  C    0.622171
     9  O   -0.527197
    10  N   -0.555770
    11  H    0.357996
    12  C   -0.245856
    13  H    0.222549
    14  H    0.193933
    15  C    0.649007
    16  O   -0.554824
    17  N   -0.570381
    18  H    0.360853
    19  C   -0.241202
    20  H    0.208428
    21  H    0.187622
    22  C    0.615152
    23  O   -0.510495
    24  N   -0.595650
    25  H    0.351974
    26  C   -0.229668
    27  H    0.226738
    28  H    0.202872
    29  C    0.596475
    30  O   -0.506641
    31  N   -0.637470
    32  H    0.396010
    33  C   -0.254226
    34  H    0.227860
    35  H    0.156263
    36  C    0.631610
    37  O   -0.570374
    38  N   -0.584246
    39  H    0.358274
    40  C   -0.245834
    41  H    0.203433
    42  H    0.223527
    43  C    0.595201
    44  O   -0.491079
    45  N   -0.654329
    46  H    0.372867
    47  C   -0.225286
    48  H    0.194044
    49  H    0.229471
    50  C    0.599958
    51  O   -0.509811
    52  N   -0.598763
    53  H    0.352307
    54  C   -0.220449
    55  H    0.196584
    56  H    0.211194
    57  C    0.614138
    58  O   -0.547681
    59  N   -0.604143
    60  H    0.357483
    61  C   -0.230529
    62  H    0.193006
    63  H    0.202761
    64  C    0.630029
    65  O   -0.548664
    66  N   -0.579491
    67  H    0.355067
    68  C   -0.197624
    69  H    0.201705
    70  H    0.231772
    71  C    0.635293
    72  O   -0.538165
    73  O   -0.593233
    74  H    0.469919
 Sum of Mulliken charges =   1.00000

 Dipole moment (field-independent basis, Debye):
    X=              5.7527    Y=              9.7488    Z=             -8.1273  Tot=             13.9351
 Quadrupole moment (field-independent basis, Debye-Ang):
   XX=           -147.9049   YY=           -189.0025   ZZ=           -237.9940
   XY=             16.1992   XZ=             -7.4063   YZ=            -30.0741

 Normal termination of Gaussian 16 at Sun Jul 17 02:38:14 2022.
