 Gaussian 16, Revision C.01,
 Gaussian 16:  ES64L-G16RevC.01  3-Jul-2019

 ----------------------------------------------------------------------
 # B3LYP/6-31G* empiricaldispersion=gd3bj guess=read geom=check nosymm
 integral(ultrafinegrid)
 ----------------------------------------------------------------------

 ------------------------------------------------------
 Candidate Structure: Conf:961 Charge calc in gas phase
 ------------------------------------------------------
 Structure from the checkpoint file:  "conf-961.chk"
 Charge =  1 Multiplicity = 1

                          Input orientation:
 ---------------------------------------------------------------------
 Center     Atomic      Atomic             Coordinates (Angstroms)
 Number     Number       Type             X           Y           Z
 ---------------------------------------------------------------------
      1          7           0       -0.434487   12.383537   -6.594646
      2          1           0       -1.337959   12.860381   -6.654516
      3          1           0       -0.194917   12.169569   -5.565970
      4          1           0        0.279939   12.990387   -7.005128
      5          6           0       -0.447323   10.994052   -7.167467
      6          1           0       -1.431141   10.774456   -7.584799
      7          1           0        0.304508   10.910939   -7.953692
      8          6           0       -0.116446   10.099482   -5.943812
      9          8           0        0.071788   10.681244   -4.863484
     10          7           0       -0.063399    8.798947   -6.154720
     11          1           0       -0.230796    8.353366   -7.064798
     12          6           0        0.224496    7.809360   -5.129600
     13          1           0       -0.505595    7.870903   -4.315535
     14          1           0        1.219994    7.971151   -4.702295
     15          6           0        0.142423    6.451484   -5.853179
     16          8           0       -0.113193    6.422796   -7.060950
     17          7           0        0.361639    5.378290   -5.092706
     18          1           0        0.554920    5.424780   -4.091500
     19          6           0        0.304481    4.020705   -5.592213
     20          1           0       -0.666300    3.818329   -6.059351
     21          1           0        1.075151    3.850530   -6.353716
     22          6           0        0.531080    3.107718   -4.376858
     23          8           0        0.740384    3.594777   -3.264557
     24          7           0        0.481290    1.792583   -4.628379
     25          1           0        0.298080    1.412165   -5.553259
     26          6           0        0.667904    0.789017   -3.602369
     27          1           0        1.690060    0.817890   -3.208781
     28          1           0       -0.025204    0.950323   -2.769283
     29          6           0        0.448968   -0.573376   -4.254827
     30          8           0        0.291808   -0.662281   -5.479197
     31          7           0        0.444028   -1.619808   -3.412714
     32          1           0        0.766743   -1.470444   -2.459935
     33          6           0        0.665268   -2.984148   -3.868415
     34          1           0        0.764235   -3.009710   -4.953518
     35          1           0       -0.176440   -3.628013   -3.585450
     36          6           0        1.928201   -3.476815   -3.166758
     37          8           0        2.216881   -3.034776   -2.045294
     38          7           0        2.690951   -4.369609   -3.823269
     39          1           0        2.507408   -4.531517   -4.814831
     40          6           0        3.939805   -4.841079   -3.236380
     41          1           0        3.783730   -4.985731   -2.163256
     42          1           0        4.211549   -5.795660   -3.687304
     43          6           0        5.109503   -3.869558   -3.460229
     44          8           0        6.196566   -4.258953   -3.906521
     45          7           0        4.854550   -2.577355   -3.165335
     46          1           0        3.954257   -2.356572   -2.746492
     47          6           0        5.556506   -1.498949   -3.828778
     48          1           0        5.927347   -0.766674   -3.100903
     49          1           0        6.409881   -1.927898   -4.354094
     50          6           0        4.586865   -0.778139   -4.772282
     51          8           0        3.437207   -0.507306   -4.418106
     52          7           0        5.107010   -0.402146   -5.968760
     53          1           0        5.888823   -0.945876   -6.312213
     54          6           0        4.276209    0.240085   -6.980148
     55          1           0        4.916423    0.827794   -7.640661
     56          1           0        3.578045    0.899500   -6.460109
     57          6           0        3.540097   -0.795290   -7.838387
     58          8           0        4.045930   -1.245106   -8.869674
     59          7           0        2.334221   -1.174540   -7.363209
     60          1           0        2.008534   -0.847630   -6.458522
     61          6           0        1.572954   -2.254905   -7.973223
     62          1           0        1.551757   -2.114531   -9.057577
     63          1           0        0.561191   -2.220261   -7.571745
     64          6           0        2.214730   -3.594395   -7.606994
     65          8           0        1.857770   -4.245176   -6.618395
     66          7           0        3.227751   -3.970466   -8.426104
     67          1           0        3.618080   -3.209927   -8.983583
     68          6           0        4.143099   -4.991052   -7.969589
     69          1           0        4.829299   -5.259444   -8.777845
     70          1           0        3.593675   -5.891627   -7.687330
     71          6           0        4.942193   -4.503471   -6.763224
     72          8           0        4.947089   -3.339299   -6.400921
     73          8           0        5.594596   -5.492406   -6.163005
     74          1           0        6.013477   -5.122987   -5.329050
 ---------------------------------------------------------------------

 SCF Done:  E(RB3LYP) =  -2157.10530039     A.U. after    1 cycles

 Alpha  occ. eigenvalues --  -19.28833 -19.23308 -19.22982 -19.20253 -19.19839
 Alpha  occ. eigenvalues --  -19.19134 -19.19125 -19.18620 -19.18532 -19.18480
 Alpha  occ. eigenvalues --  -19.17809 -14.62199 -14.51144 -14.46332 -14.44087
 Alpha  occ. eigenvalues --  -14.43274 -14.43164 -14.42527 -14.41908 -14.41700
 Alpha  occ. eigenvalues --  -14.41491 -10.45603 -10.42693 -10.40190 -10.37524
 Alpha  occ. eigenvalues --  -10.37286 -10.36856 -10.35934 -10.35598 -10.35535
 Alpha  occ. eigenvalues --  -10.35415 -10.35072 -10.34869 -10.32333 -10.30133
 Alpha  occ. eigenvalues --  -10.29398 -10.29026 -10.28990 -10.28882 -10.28717
 Alpha  occ. eigenvalues --  -10.28444  -1.21344  -1.15880  -1.15194  -1.14957
 Alpha  occ. eigenvalues --   -1.12408  -1.11580  -1.10932  -1.10556  -1.10225
 Alpha  occ. eigenvalues --   -1.09648  -1.09194  -1.07735  -1.06279  -1.02919
 Alpha  occ. eigenvalues --   -1.00596  -0.99873  -0.99431  -0.99194  -0.98622
 Alpha  occ. eigenvalues --   -0.98082  -0.97832  -0.92219  -0.86911  -0.84191
 Alpha  occ. eigenvalues --   -0.83245  -0.82245  -0.80901  -0.79601  -0.77798
 Alpha  occ. eigenvalues --   -0.76177  -0.76086  -0.76006  -0.74646  -0.73629
 Alpha  occ. eigenvalues --   -0.69768  -0.68281  -0.67988  -0.67292  -0.66158
 Alpha  occ. eigenvalues --   -0.65482  -0.65021  -0.64912  -0.64555  -0.64063
 Alpha  occ. eigenvalues --   -0.62971  -0.62826  -0.62702  -0.61007  -0.60621
 Alpha  occ. eigenvalues --   -0.59884  -0.59564  -0.59130  -0.57859  -0.57097
 Alpha  occ. eigenvalues --   -0.56938  -0.56736  -0.56047  -0.55678  -0.55475
 Alpha  occ. eigenvalues --   -0.54973  -0.54740  -0.54413  -0.53888  -0.53697
 Alpha  occ. eigenvalues --   -0.53338  -0.53098  -0.52695  -0.52397  -0.52392
 Alpha  occ. eigenvalues --   -0.51573  -0.51392  -0.51174  -0.50406  -0.50083
 Alpha  occ. eigenvalues --   -0.48668  -0.48343  -0.48043  -0.47876  -0.47693
 Alpha  occ. eigenvalues --   -0.46968  -0.46814  -0.46710  -0.46158  -0.45915
 Alpha  occ. eigenvalues --   -0.45444  -0.45260  -0.44793  -0.44145  -0.43952
 Alpha  occ. eigenvalues --   -0.43892  -0.43497  -0.43039  -0.42782  -0.42422
 Alpha  occ. eigenvalues --   -0.41689  -0.41111  -0.37663  -0.36620  -0.36295
 Alpha  occ. eigenvalues --   -0.35142  -0.34817  -0.34657  -0.34317  -0.34049
 Alpha  occ. eigenvalues --   -0.34024  -0.33877  -0.33438  -0.33058  -0.32384
 Alpha  occ. eigenvalues --   -0.31986  -0.30982  -0.30928  -0.30620  -0.30103
 Alpha virt. eigenvalues --   -0.13851  -0.13432  -0.08537  -0.07824  -0.06607
 Alpha virt. eigenvalues --   -0.06361  -0.05799  -0.05721  -0.04912  -0.04855
 Alpha virt. eigenvalues --   -0.04254  -0.03522  -0.03125  -0.02855  -0.01963

 Mulliken charges:
               1
     1  N   -0.750857
     2  H    0.423873
     3  H    0.441610
     4  H    0.423773
     5  C   -0.276963
     6  H    0.250008
     7  H    0.249984
     8  C    0.640611
     9  O   -0.524565
    10  N   -0.604777
    11  H    0.381836
    12  C   -0.212017
    13  H    0.216447
    14  H    0.216473
    15  C    0.620542
    16  O   -0.535869
    17  N   -0.621202
    18  H    0.370378
    19  C   -0.200783
    20  H    0.201474
    21  H    0.197593
    22  C    0.614140
    23  O   -0.532144
    24  N   -0.627282
    25  H    0.358708
    26  C   -0.198584
    27  H    0.223643
    28  H    0.193638
    29  C    0.629145
    30  O   -0.561089
    31  N   -0.581359
    32  H    0.359015
    33  C   -0.253647
    34  H    0.224883
    35  H    0.196445
    36  C    0.601027
    37  O   -0.555018
    38  N   -0.602315
    39  H    0.404700
    40  C   -0.253217
    41  H    0.214309
    42  H    0.191829
    43  C    0.630342
    44  O   -0.558898
    45  N   -0.573238
    46  H    0.382038
    47  C   -0.227616
    48  H    0.187098
    49  H    0.199368
    50  C    0.625611
    51  O   -0.554217
    52  N   -0.564968
    53  H    0.357792
    54  C   -0.230148
    55  H    0.182806
    56  H    0.172130
    57  C    0.618236
    58  O   -0.539885
    59  N   -0.596298
    60  H    0.389661
    61  C   -0.244231
    62  H    0.185081
    63  H    0.199359
    64  C    0.604844
    65  O   -0.544002
    66  N   -0.553938
    67  H    0.378662
    68  C   -0.242140
    69  H    0.199941
    70  H    0.209506
    71  C    0.590690
    72  O   -0.504181
    73  O   -0.595219
    74  H    0.461411
 Sum of Mulliken charges =   1.00000

 Dipole moment (field-independent basis, Debye):
    X=              0.2650    Y=             44.0639    Z=            -32.2861  Tot=             54.6269
 Quadrupole moment (field-independent basis, Debye-Ang):
   XX=           -219.7847   YY=            328.0116   ZZ=            -21.0498
   XY=            -23.3026   XZ=             -4.0223   YZ=           -310.0046

 Normal termination of Gaussian 16 at Sun Jul 17 02:37:50 2022.
