 Gaussian 16, Revision C.01,
 Gaussian 16:  ES64L-G16RevC.01  3-Jul-2019

 ----------------------------------------------------------------------
 # B3LYP/6-31G* empiricaldispersion=gd3bj guess=read geom=check nosymm
 integral(ultrafinegrid)
 ----------------------------------------------------------------------

 ------------------------------------------------------
 Candidate Structure: Conf:684 Charge calc in gas phase
 ------------------------------------------------------
 Structure from the checkpoint file:  "conf-684.chk"
 Charge =  1 Multiplicity = 1

                          Input orientation:
 ---------------------------------------------------------------------
 Center     Atomic      Atomic             Coordinates (Angstroms)
 Number     Number       Type             X           Y           Z
 ---------------------------------------------------------------------
      1          7           0       -3.663739    4.671978   -1.954449
      2          1           0       -3.208011    5.570275   -1.776057
      3          1           0       -2.943745    3.875424   -2.006610
      4          1           0       -4.125595    4.673764   -2.877581
      5          6           0       -4.715884    4.333394   -0.947028
      6          1           0       -4.229037    4.065219   -0.007677
      7          1           0       -5.357110    5.204717   -0.790396
      8          6           0       -5.501642    3.177300   -1.585763
      9          8           0       -5.557352    3.132172   -2.815241
     10          7           0       -6.046805    2.268181   -0.757231
     11          1           0       -5.824482    2.311350    0.230046
     12          6           0       -6.479665    0.954874   -1.268020
     13          1           0       -7.015289    1.103398   -2.206363
     14          1           0       -7.131985    0.485476   -0.533279
     15          6           0       -5.179430    0.151199   -1.411972
     16          8           0       -4.722160   -0.488514   -0.471867
     17          7           0       -4.500594    0.381319   -2.573493
     18          1           0       -4.891990    1.066243   -3.210628
     19          6           0       -3.046813    0.223915   -2.593470
     20          1           0       -2.775861   -0.747826   -2.182344
     21          1           0       -2.687633    0.290718   -3.619206
     22          6           0       -2.454284    1.370365   -1.775545
     23          8           0       -2.233833    2.483239   -2.306412
     24          7           0       -2.327793    1.139972   -0.461095
     25          1           0       -2.635694    0.233250   -0.123849
     26          6           0       -1.813205    2.099147    0.498555
     27          1           0       -1.666063    3.047764   -0.023247
     28          1           0       -2.527101    2.249688    1.313702
     29          6           0       -0.464206    1.738532    1.144701
     30          8           0       -0.142166    2.296280    2.180630
     31          7           0        0.270654    0.810774    0.477163
     32          1           0        0.004283    0.568814   -0.477177
     33          6           0        1.678964    0.652991    0.791148
     34          1           0        1.938587   -0.407969    0.870233
     35          1           0        1.859456    1.135410    1.754949
     36          6           0        2.479398    1.365830   -0.297884
     37          8           0        2.230844    2.533495   -0.600735
     38          7           0        3.412875    0.619943   -0.945953
     39          1           0        3.437523   -0.375722   -0.771031
     40          6           0        3.998516    1.088931   -2.201687
     41          1           0        4.287118    2.134829   -2.079477
     42          1           0        4.875863    0.487285   -2.437188
     43          6           0        2.951544    0.906430   -3.307364
     44          8           0        2.949015   -0.078885   -4.045863
     45          7           0        1.984436    1.859119   -3.324427
     46          1           0        1.959035    2.480558   -2.517753
     47          6           0        0.750604    1.607187   -4.044625
     48          1           0        0.060993    2.429693   -3.838392
     49          1           0        0.945083    1.563409   -5.119642
     50          6           0        0.102572    0.302292   -3.564952
     51          8           0       -0.038648    0.045947   -2.359236
     52          7           0       -0.305978   -0.518243   -4.549929
     53          1           0        0.043279   -0.313505   -5.493050
     54          6           0       -0.590300   -1.934175   -4.315832
     55          1           0       -1.636363   -2.181172   -4.510040
     56          1           0       -0.352477   -2.163005   -3.272689
     57          6           0        0.267498   -2.739262   -5.303470
     58          8           0       -0.221638   -3.552700   -6.068293
     59          7           0        1.599161   -2.398777   -5.286891
     60          1           0        1.873291   -1.615389   -4.698301
     61          6           0        2.316659   -2.434977   -6.537141
     62          1           0        1.978860   -3.306287   -7.105668
     63          1           0        3.391822   -2.533860   -6.358478
     64          6           0        2.031083   -1.158172   -7.350671
     65          8           0        1.129845   -0.361944   -7.059709
     66          7           0        2.825684   -0.971419   -8.419852
     67          1           0        3.559658   -1.628348   -8.662544
     68          6           0        2.660009    0.147961   -9.318716
     69          1           0        2.785991    1.103343   -8.795245
     70          1           0        1.656251    0.162761   -9.760154
     71          6           0        3.695688    0.033650  -10.417879
     72          8           0        4.508968   -0.860929  -10.496484
     73          8           0        3.597251    1.048425  -11.291074
     74          1           0        4.285162    0.911894  -11.970411
 ---------------------------------------------------------------------

 SCF Done:  E(RB3LYP) =  -2157.08731980     A.U. after    1 cycles

 Alpha  occ. eigenvalues --  -19.28447 -19.27830 -19.26159 -19.24284 -19.22451
 Alpha  occ. eigenvalues --  -19.21883 -19.21225 -19.21188 -19.20415 -19.20124
 Alpha  occ. eigenvalues --  -19.18521 -14.59638 -14.52633 -14.49562 -14.48427
 Alpha  occ. eigenvalues --  -14.46386 -14.44848 -14.44558 -14.44427 -14.44350
 Alpha  occ. eigenvalues --  -14.41767 -10.45851 -10.42731 -10.41801 -10.41397
 Alpha  occ. eigenvalues --  -10.40633 -10.38446 -10.38339 -10.37934 -10.37899
 Alpha  occ. eigenvalues --  -10.37048 -10.36311 -10.35655 -10.34539 -10.34508
 Alpha  occ. eigenvalues --  -10.31935 -10.31831 -10.31628 -10.31459 -10.30567
 Alpha  occ. eigenvalues --  -10.29984  -1.20916  -1.18966  -1.17497  -1.16176
 Alpha  occ. eigenvalues --   -1.14161  -1.13880  -1.13238  -1.12441  -1.12071
 Alpha  occ. eigenvalues --   -1.12034  -1.10316  -1.10089  -1.08507  -1.05985
 Alpha  occ. eigenvalues --   -1.04625  -1.02237  -1.01866  -1.01212  -1.00848
 Alpha  occ. eigenvalues --   -1.00740  -0.98650  -0.91764  -0.88284  -0.86103
 Alpha  occ. eigenvalues --   -0.85473  -0.84469  -0.83262  -0.81992  -0.80181
 Alpha  occ. eigenvalues --   -0.78249  -0.76663  -0.75234  -0.74699  -0.73516
 Alpha  occ. eigenvalues --   -0.71897  -0.70426  -0.70126  -0.69214  -0.68177
 Alpha  occ. eigenvalues --   -0.67727  -0.67480  -0.67183  -0.66678  -0.66330
 Alpha  occ. eigenvalues --   -0.64910  -0.64722  -0.64094  -0.63408  -0.62615
 Alpha  occ. eigenvalues --   -0.61779  -0.61408  -0.61073  -0.59875  -0.59685
 Alpha  occ. eigenvalues --   -0.59464  -0.58869  -0.58221  -0.57216  -0.56980
 Alpha  occ. eigenvalues --   -0.56816  -0.56732  -0.56351  -0.55750  -0.55312
 Alpha  occ. eigenvalues --   -0.54996  -0.54780  -0.54287  -0.54184  -0.54010
 Alpha  occ. eigenvalues --   -0.53689  -0.53296  -0.52715  -0.52284  -0.51653
 Alpha  occ. eigenvalues --   -0.51601  -0.51112  -0.50937  -0.50697  -0.50170
 Alpha  occ. eigenvalues --   -0.49901  -0.49549  -0.49256  -0.49153  -0.48596
 Alpha  occ. eigenvalues --   -0.48429  -0.48083  -0.47201  -0.46867  -0.46425
 Alpha  occ. eigenvalues --   -0.45945  -0.45278  -0.45077  -0.43674  -0.43421
 Alpha  occ. eigenvalues --   -0.43198  -0.42419  -0.41367  -0.40084  -0.40068
 Alpha  occ. eigenvalues --   -0.38095  -0.37365  -0.37120  -0.36890  -0.36641
 Alpha  occ. eigenvalues --   -0.36268  -0.36086  -0.34739  -0.34511  -0.34148
 Alpha  occ. eigenvalues --   -0.33943  -0.33557  -0.33162  -0.32235  -0.31729
 Alpha virt. eigenvalues --   -0.15449  -0.12454  -0.10213  -0.10178  -0.09237
 Alpha virt. eigenvalues --   -0.08325  -0.07541  -0.07142  -0.06721  -0.05714
 Alpha virt. eigenvalues --   -0.05369  -0.04829  -0.03861  -0.03064  -0.02011

 Mulliken charges:
               1
     1  N   -0.760316
     2  H    0.410946
     3  H    0.458392
     4  H    0.421092
     5  C   -0.284231
     6  H    0.224087
     7  H    0.251573
     8  C    0.637668
     9  O   -0.517339
    10  N   -0.575523
    11  H    0.362069
    12  C   -0.245409
    13  H    0.219792
    14  H    0.219744
    15  C    0.583764
    16  O   -0.501673
    17  N   -0.572036
    18  H    0.368392
    19  C   -0.230284
    20  H    0.216175
    21  H    0.209224
    22  C    0.617400
    23  O   -0.604664
    24  N   -0.567700
    25  H    0.385147
    26  C   -0.253474
    27  H    0.182073
    28  H    0.187878
    29  C    0.608451
    30  O   -0.493695
    31  N   -0.612269
    32  H    0.399576
    33  C   -0.234919
    34  H    0.165485
    35  H    0.231677
    36  C    0.609225
    37  O   -0.530116
    38  N   -0.571462
    39  H    0.349029
    40  C   -0.239740
    41  H    0.205795
    42  H    0.195818
    43  C    0.592546
    44  O   -0.529558
    45  N   -0.569786
    46  H    0.379941
    47  C   -0.245579
    48  H    0.183770
    49  H    0.201246
    50  C    0.613168
    51  O   -0.580295
    52  N   -0.617175
    53  H    0.406055
    54  C   -0.226791
    55  H    0.183779
    56  H    0.195562
    57  C    0.556027
    58  O   -0.484118
    59  N   -0.583490
    60  H    0.380914
    61  C   -0.261752
    62  H    0.223618
    63  H    0.185315
    64  C    0.637507
    65  O   -0.552753
    66  N   -0.609287
    67  H    0.364913
    68  C   -0.177255
    69  H    0.205268
    70  H    0.212029
    71  C    0.570550
    72  O   -0.452552
    73  O   -0.556160
    74  H    0.428719
 Sum of Mulliken charges =   1.00000

 Dipole moment (field-independent basis, Debye):
    X=            -11.4206    Y=             15.4636    Z=            -13.0431  Tot=             23.2309
 Quadrupole moment (field-independent basis, Debye-Ang):
   XX=           -119.3271   YY=           -175.4585   ZZ=           -154.1789
   XY=            -68.2228   XZ=            -20.8772   YZ=            -44.4801

 Normal termination of Gaussian 16 at Sun Jul 17 02:37:50 2022.
