 Gaussian 16, Revision C.01,
 Gaussian 16:  ES64L-G16RevC.01  3-Jul-2019

 ----------------------------------------------------------------------
 # B3LYP/6-31G* empiricaldispersion=gd3bj guess=read geom=check nosymm
 integral(ultrafinegrid)
 ----------------------------------------------------------------------

 ------------------------------------------------------
 Candidate Structure: Conf:876 Charge calc in gas phase
 ------------------------------------------------------
 Structure from the checkpoint file:  "conf-876.chk"
 Charge =  1 Multiplicity = 1

                          Input orientation:
 ---------------------------------------------------------------------
 Center     Atomic      Atomic             Coordinates (Angstroms)
 Number     Number       Type             X           Y           Z
 ---------------------------------------------------------------------
      1          7           0        2.260357    6.527724    2.545793
      2          1           0        2.323554    7.224745    1.800065
      3          1           0        2.744653    5.608022    2.206837
      4          1           0        1.253183    6.290004    2.719774
      5          6           0        2.938154    6.994090    3.810177
      6          1           0        3.997354    6.747261    3.753492
      7          1           0        2.810369    8.075204    3.910289
      8          6           0        2.269337    6.233126    4.955849
      9          8           0        2.834642    5.321818    5.550324
     10          7           0        0.974561    6.595326    5.141347
     11          1           0        0.647924    7.420797    4.654351
     12          6           0       -0.048661    5.625406    5.475201
     13          1           0       -0.663135    5.940417    6.318897
     14          1           0        0.438326    4.686276    5.747073
     15          6           0       -0.890593    5.333671    4.236166
     16          8           0       -0.434752    5.509236    3.081640
     17          7           0       -2.120497    4.889261    4.503896
     18          1           0       -2.369552    4.754667    5.493120
     19          6           0       -3.048642    4.440728    3.474119
     20          1           0       -4.050570    4.423170    3.905977
     21          1           0       -3.032956    5.150764    2.643046
     22          6           0       -2.668952    3.022121    3.036183
     23          8           0       -2.840412    2.057423    3.778838
     24          7           0       -2.080249    2.930114    1.825902
     25          1           0       -2.020598    3.763567    1.257741
     26          6           0       -1.325251    1.766768    1.396448
     27          1           0       -1.131609    1.149082    2.276106
     28          1           0       -1.866474    1.161760    0.662087
     29          6           0        0.007912    2.156425    0.776759
     30          8           0        0.646556    1.365696    0.088020
     31          7           0        0.408828    3.448977    0.979576
     32          1           0        0.079156    3.942749    1.807552
     33          6           0        1.632805    3.903572    0.347781
     34          1           0        1.608501    4.991751    0.253125
     35          1           0        1.675016    3.474078   -0.655782
     36          6           0        2.864001    3.489438    1.147404
     37          8           0        3.447005    4.294320    1.921537
     38          7           0        3.245755    2.225278    1.004296
     39          1           0        2.603227    1.620090    0.487899
     40          6           0        4.267293    1.609817    1.852172
     41          1           0        4.647574    0.722657    1.347684
     42          1           0        5.075530    2.329812    1.997349
     43          6           0        3.634892    1.178829    3.184116
     44          8           0        3.318304    0.019884    3.404922
     45          7           0        3.414953    2.195233    4.063465
     46          1           0        3.558800    3.150140    3.762184
     47          6           0        2.617979    1.941618    5.241101
     48          1           0        3.056306    1.108023    5.796199
     49          1           0        2.633309    2.828202    5.873797
     50          6           0        1.150421    1.652133    4.896877
     51          8           0        0.540928    2.316925    4.049597
     52          7           0        0.614669    0.634286    5.604725
     53          1           0        1.169864    0.233875    6.348569
     54          6           0       -0.794891    0.295923    5.610264
     55          1           0       -0.900961   -0.792316    5.661860
     56          1           0       -1.242240    0.653057    4.684244
     57          6           0       -1.470917    0.909681    6.838476
     58          8           0       -1.046439    0.705341    7.977107
     59          7           0       -2.539725    1.696193    6.567552
     60          1           0       -2.771458    1.902257    5.595872
     61          6           0       -3.177145    2.458852    7.625872
     62          1           0       -3.362865    1.811439    8.486644
     63          1           0       -4.126183    2.854533    7.260781
     64          6           0       -2.264639    3.627989    7.993953
     65          8           0       -2.283682    4.693634    7.357208
     66          7           0       -1.410883    3.383996    9.013351
     67          1           0       -1.259511    2.392377    9.198895
     68          6           0       -0.309457    4.285705    9.269231
     69          1           0        0.133769    4.055181   10.242642
     70          1           0       -0.670992    5.315266    9.305059
     71          6           0        0.758815    4.169008    8.188702
     72          8           0        0.809883    3.255125    7.389998
     73          8           0        1.607332    5.203395    8.191867
     74          1           0        2.215776    5.095209    7.423252
 ---------------------------------------------------------------------

 SCF Done:  E(RB3LYP) =  -2157.14453393     A.U. after    1 cycles

 Alpha  occ. eigenvalues --  -19.29000 -19.27605 -19.26725 -19.26379 -19.23948
 Alpha  occ. eigenvalues --  -19.23575 -19.23194 -19.22907 -19.20209 -19.19989
 Alpha  occ. eigenvalues --  -19.19815 -14.56983 -14.50809 -14.48844 -14.48690
 Alpha  occ. eigenvalues --  -14.48153 -14.47668 -14.45803 -14.44547 -14.44391
 Alpha  occ. eigenvalues --  -14.44118 -10.44617 -10.42512 -10.42314 -10.42031
 Alpha  occ. eigenvalues --  -10.40773 -10.40372 -10.39832 -10.39195 -10.37205
 Alpha  occ. eigenvalues --  -10.37069 -10.36996 -10.35620 -10.35088 -10.34687
 Alpha  occ. eigenvalues --  -10.33222 -10.33080 -10.32650 -10.32031 -10.30496
 Alpha  occ. eigenvalues --  -10.30365  -1.20474  -1.19257  -1.17650  -1.17059
 Alpha  occ. eigenvalues --   -1.15571  -1.15015  -1.14210  -1.12306  -1.12138
 Alpha  occ. eigenvalues --   -1.11794  -1.11398  -1.11038  -1.07221  -1.05452
 Alpha  occ. eigenvalues --   -1.05409  -1.04986  -1.03131  -1.02605  -1.00916
 Alpha  occ. eigenvalues --   -1.00716  -1.00403  -0.90518  -0.88707  -0.87268
 Alpha  occ. eigenvalues --   -0.86238  -0.84827  -0.83686  -0.82484  -0.81009
 Alpha  occ. eigenvalues --   -0.80067  -0.77148  -0.74109  -0.72968  -0.72444
 Alpha  occ. eigenvalues --   -0.72187  -0.71851  -0.70607  -0.70006  -0.69253
 Alpha  occ. eigenvalues --   -0.68234  -0.67719  -0.66894  -0.66730  -0.66247
 Alpha  occ. eigenvalues --   -0.65906  -0.64932  -0.64549  -0.63149  -0.62722
 Alpha  occ. eigenvalues --   -0.62106  -0.61581  -0.61275  -0.60987  -0.60363
 Alpha  occ. eigenvalues --   -0.60286  -0.60033  -0.59603  -0.58377  -0.58121
 Alpha  occ. eigenvalues --   -0.57928  -0.57720  -0.57006  -0.56390  -0.56104
 Alpha  occ. eigenvalues --   -0.55908  -0.55635  -0.55392  -0.55068  -0.54442
 Alpha  occ. eigenvalues --   -0.54312  -0.53819  -0.53082  -0.52937  -0.52553
 Alpha  occ. eigenvalues --   -0.52328  -0.51899  -0.51629  -0.51503  -0.50361
 Alpha  occ. eigenvalues --   -0.50211  -0.49749  -0.49666  -0.49381  -0.49302
 Alpha  occ. eigenvalues --   -0.49043  -0.48581  -0.48105  -0.47958  -0.47229
 Alpha  occ. eigenvalues --   -0.47037  -0.46691  -0.45941  -0.45081  -0.44408
 Alpha  occ. eigenvalues --   -0.41886  -0.41761  -0.41462  -0.40959  -0.40754
 Alpha  occ. eigenvalues --   -0.40017  -0.39560  -0.38507  -0.38194  -0.37565
 Alpha  occ. eigenvalues --   -0.37382  -0.36736  -0.36483  -0.36043  -0.35507
 Alpha  occ. eigenvalues --   -0.35280  -0.33698  -0.33406  -0.32811  -0.32385
 Alpha virt. eigenvalues --   -0.15301  -0.12220  -0.11682  -0.09866  -0.09326
 Alpha virt. eigenvalues --   -0.09050  -0.08766  -0.08059  -0.06753  -0.06378
 Alpha virt. eigenvalues --   -0.05389  -0.05226  -0.03317  -0.02469  -0.01071

 Mulliken charges:
               1
     1  N   -0.827368
     2  H    0.394656
     3  H    0.459373
     4  H    0.421149
     5  C   -0.257278
     6  H    0.246005
     7  H    0.220487
     8  C    0.589402
     9  O   -0.488909
    10  N   -0.542021
    11  H    0.340014
    12  C   -0.308815
    13  H    0.232317
    14  H    0.264796
    15  C    0.638615
    16  O   -0.595934
    17  N   -0.593777
    18  H    0.408439
    19  C   -0.247243
    20  H    0.206502
    21  H    0.183460
    22  C    0.637723
    23  O   -0.511708
    24  N   -0.595929
    25  H    0.345603
    26  C   -0.210057
    27  H    0.247932
    28  H    0.212497
    29  C    0.605658
    30  O   -0.516952
    31  N   -0.617868
    32  H    0.397406
    33  C   -0.252974
    34  H    0.151229
    35  H    0.223330
    36  C    0.645230
    37  O   -0.605720
    38  N   -0.555351
    39  H    0.401999
    40  C   -0.251576
    41  H    0.210362
    42  H    0.198809
    43  C    0.597386
    44  O   -0.492421
    45  N   -0.578398
    46  H    0.350890
    47  C   -0.251073
    48  H    0.179977
    49  H    0.203818
    50  C    0.657259
    51  O   -0.594758
    52  N   -0.552114
    53  H    0.353756
    54  C   -0.274855
    55  H    0.195256
    56  H    0.217121
    57  C    0.632586
    58  O   -0.544436
    59  N   -0.616128
    60  H    0.394292
    61  C   -0.240317
    62  H    0.200042
    63  H    0.183680
    64  C    0.609947
    65  O   -0.554974
    66  N   -0.544258
    67  H    0.384975
    68  C   -0.243493
    69  H    0.215079
    70  H    0.215545
    71  C    0.593945
    72  O   -0.467763
    73  O   -0.580470
    74  H    0.446391
 Sum of Mulliken charges =   1.00000

 Dipole moment (field-independent basis, Debye):
    X=              2.6922    Y=             28.9393    Z=             16.4345  Tot=             33.3890
 Quadrupole moment (field-independent basis, Debye-Ang):
   XX=           -192.2457   YY=            -53.6205   ZZ=           -134.2319
   XY=             32.3414   XZ=             -4.4684   YZ=             91.5534

 Normal termination of Gaussian 16 at Sun Jul 17 02:37:50 2022.
