 Gaussian 16, Revision C.01,
 Gaussian 16:  ES64L-G16RevC.01  3-Jul-2019

 ----------------------------------------------------------------------
 # B3LYP/6-31G* empiricaldispersion=gd3bj guess=read geom=check nosymm
 integral(ultrafinegrid)
 ----------------------------------------------------------------------

 ------------------------------------------------------
 Candidate Structure: Conf:879 Charge calc in gas phase
 ------------------------------------------------------
 Structure from the checkpoint file:  "conf-879.chk"
 Charge =  1 Multiplicity = 1

                          Input orientation:
 ---------------------------------------------------------------------
 Center     Atomic      Atomic             Coordinates (Angstroms)
 Number     Number       Type             X           Y           Z
 ---------------------------------------------------------------------
      1          7           0        1.477750   -2.161816    1.839038
      2          1           0        1.059775   -1.262504    2.206280
      3          1           0        2.010460   -2.611430    2.622328
      4          1           0        2.211831   -1.859904    1.183940
      5          6           0        0.566496   -3.081016    1.119515
      6          1           0        1.051696   -4.060178    1.062478
      7          1           0       -0.373016   -3.164155    1.668866
      8          6           0        0.385310   -2.542331   -0.300470
      9          8           0        1.285605   -1.884618   -0.830092
     10          7           0       -0.765420   -2.862268   -0.923469
     11          1           0       -1.517179   -3.241830   -0.362494
     12          6           0       -1.134101   -2.211426   -2.163882
     13          1           0       -1.774026   -2.874971   -2.752176
     14          1           0       -0.218391   -2.020798   -2.730250
     15          6           0       -1.830226   -0.871209   -1.874175
     16          8           0       -1.777342   -0.357150   -0.755336
     17          7           0       -2.505117   -0.319465   -2.903823
     18          1           0       -2.391380   -0.698691   -3.833954
     19          6           0       -3.100023    1.000718   -2.759162
     20          1           0       -3.566918    1.268566   -3.709753
     21          1           0       -3.880597    0.961759   -1.992879
     22          6           0       -2.019759    2.041027   -2.424258
     23          8           0       -0.954510    2.065029   -3.018810
     24          7           0       -2.336199    2.902990   -1.414794
     25          1           0       -3.183888    2.756356   -0.885506
     26          6           0       -1.368482    3.868977   -0.931990
     27          1           0       -0.874876    4.339612   -1.786615
     28          1           0       -1.881736    4.652901   -0.370567
     29          6           0       -0.247825    3.298782   -0.057660
     30          8           0        0.617364    4.053701    0.395231
     31          7           0       -0.253715    1.966632    0.166327
     32          1           0       -0.972354    1.375226   -0.239231
     33          6           0        0.927721    1.291126    0.673555
     34          1           0        1.821312    1.770179    0.255476
     35          1           0        0.895883    0.260398    0.325312
     36          6           0        1.062311    1.311693    2.197402
     37          8           0        1.101782    0.267182    2.876891
     38          7           0        1.153338    2.536997    2.732842
     39          1           0        1.169068    3.315688    2.066767
     40          6           0        1.552111    2.752122    4.103272
     41          1           0        1.008080    3.605904    4.519343
     42          1           0        1.288964    1.860041    4.679178
     43          6           0        3.072847    2.959711    4.187723
     44          8           0        3.842846    2.439584    3.384881
     45          7           0        3.506813    3.747257    5.202412
     46          1           0        2.854988    4.111610    5.881810
     47          6           0        4.927966    3.992777    5.380922
     48          1           0        5.312146    4.588928    4.545864
     49          1           0        5.062442    4.565580    6.301225
     50          6           0        5.695310    2.673970    5.523645
     51          8           0        5.381381    1.848643    6.378890
     52          7           0        6.740729    2.515572    4.669017
     53          1           0        6.735459    3.082812    3.830965
     54          6           0        7.436609    1.234593    4.572872
     55          1           0        7.652110    0.883464    5.584673
     56          1           0        8.369903    1.376310    4.028359
     57          6           0        6.562189    0.236916    3.806405
     58          8           0        6.737532    0.016744    2.605688
     59          7           0        5.567370   -0.315711    4.546967
     60          1           0        5.454788    0.094534    5.472974
     61          6           0        4.337043   -0.822824    3.950361
     62          1           0        3.942912   -0.086923    3.234481
     63          1           0        3.602753   -0.930736    4.748194
     64          6           0        4.395548   -2.170440    3.239257
     65          8           0        3.465875   -2.991415    3.378194
     66          7           0        5.396612   -2.384480    2.375098
     67          1           0        6.039983   -1.602709    2.204274
     68          6           0        5.329217   -3.523848    1.479407
     69          1           0        5.245197   -4.457095    2.038012
     70          1           0        6.244964   -3.547908    0.881771
     71          6           0        4.130583   -3.453367    0.535025
     72          8           0        3.424229   -4.388451    0.232507
     73          8           0        3.927635   -2.195038    0.067004
     74          1           0        3.167174   -2.219058   -0.560924
 ---------------------------------------------------------------------

 SCF Done:  E(RB3LYP) =  -2157.12998318     A.U. after    3 cycles

 Alpha  occ. eigenvalues --  -19.28903 -19.26125 -19.24438 -19.23749 -19.23463
 Alpha  occ. eigenvalues --  -19.22037 -19.21659 -19.21238 -19.21211 -19.21162
 Alpha  occ. eigenvalues --  -19.21130 -14.52674 -14.50159 -14.48571 -14.46627
 Alpha  occ. eigenvalues --  -14.46573 -14.45857 -14.45773 -14.45379 -14.45168
 Alpha  occ. eigenvalues --  -14.44454 -10.43290 -10.41816 -10.41374 -10.39667
 Alpha  occ. eigenvalues --  -10.38823 -10.38771 -10.38741 -10.38370 -10.38308
 Alpha  occ. eigenvalues --  -10.37777 -10.37233 -10.35586 -10.34162 -10.32977
 Alpha  occ. eigenvalues --  -10.32828 -10.32602 -10.32590 -10.32423 -10.31732
 Alpha  occ. eigenvalues --  -10.31587  -1.20025  -1.18145  -1.16227  -1.14768
 Alpha  occ. eigenvalues --   -1.13935  -1.13758  -1.13629  -1.12951  -1.12774
 Alpha  occ. eigenvalues --   -1.12295  -1.11067  -1.08718  -1.06368  -1.04550
 Alpha  occ. eigenvalues --   -1.03124  -1.02787  -1.02397  -1.01998  -1.01942
 Alpha  occ. eigenvalues --   -1.01164  -1.00791  -0.89319  -0.87041  -0.86390
 Alpha  occ. eigenvalues --   -0.85703  -0.84428  -0.83042  -0.81848  -0.80452
 Alpha  occ. eigenvalues --   -0.79278  -0.77873  -0.73011  -0.71894  -0.71538
 Alpha  occ. eigenvalues --   -0.70370  -0.69742  -0.69185  -0.68933  -0.68384
 Alpha  occ. eigenvalues --   -0.68160  -0.67459  -0.66947  -0.66416  -0.65718
 Alpha  occ. eigenvalues --   -0.64200  -0.63788  -0.63291  -0.62547  -0.61816
 Alpha  occ. eigenvalues --   -0.61733  -0.60697  -0.60588  -0.60423  -0.59689
 Alpha  occ. eigenvalues --   -0.59369  -0.58650  -0.58162  -0.57745  -0.57427
 Alpha  occ. eigenvalues --   -0.57325  -0.56558  -0.56361  -0.55759  -0.55199
 Alpha  occ. eigenvalues --   -0.54997  -0.54597  -0.54231  -0.53999  -0.53735
 Alpha  occ. eigenvalues --   -0.53312  -0.52936  -0.52649  -0.52209  -0.51880
 Alpha  occ. eigenvalues --   -0.51404  -0.51042  -0.50541  -0.50474  -0.50366
 Alpha  occ. eigenvalues --   -0.50083  -0.49971  -0.49554  -0.49149  -0.48908
 Alpha  occ. eigenvalues --   -0.48508  -0.48427  -0.47796  -0.47290  -0.46974
 Alpha  occ. eigenvalues --   -0.46824  -0.46566  -0.45583  -0.45386  -0.44997
 Alpha  occ. eigenvalues --   -0.41887  -0.40628  -0.40087  -0.38934  -0.38643
 Alpha  occ. eigenvalues --   -0.38605  -0.38110  -0.37619  -0.37534  -0.37392
 Alpha  occ. eigenvalues --   -0.36953  -0.36645  -0.35250  -0.35040  -0.34976
 Alpha  occ. eigenvalues --   -0.34538  -0.34487  -0.34141  -0.33801  -0.32847
 Alpha virt. eigenvalues --   -0.12196  -0.10279  -0.09599  -0.09182  -0.08758
 Alpha virt. eigenvalues --   -0.08347  -0.07999  -0.07410  -0.07047  -0.06538
 Alpha virt. eigenvalues --   -0.04755  -0.03073  -0.02578  -0.01883  -0.01697

 Mulliken charges:
               1
     1  N   -0.825408
     2  H    0.437356
     3  H    0.446061
     4  H    0.403750
     5  C   -0.268750
     6  H    0.264310
     7  H    0.204967
     8  C    0.653106
     9  O   -0.541878
    10  N   -0.555454
    11  H    0.354749
    12  C   -0.269019
    13  H    0.200440
    14  H    0.242286
    15  C    0.634945
    16  O   -0.541617
    17  N   -0.565189
    18  H    0.358609
    19  C   -0.237259
    20  H    0.206014
    21  H    0.180192
    22  C    0.597528
    23  O   -0.494197
    24  N   -0.601490
    25  H    0.344302
    26  C   -0.225982
    27  H    0.230934
    28  H    0.196462
    29  C    0.620992
    30  O   -0.539167
    31  N   -0.612332
    32  H    0.405241
    33  C   -0.264458
    34  H    0.215909
    35  H    0.174224
    36  C    0.635711
    37  O   -0.584986
    38  N   -0.561112
    39  H    0.394682
    40  C   -0.260470
    41  H    0.177987
    42  H    0.220362
    43  C    0.631123
    44  O   -0.524346
    45  N   -0.577766
    46  H    0.349354
    47  C   -0.221283
    48  H    0.180344
    49  H    0.200257
    50  C    0.627926
    51  O   -0.530474
    52  N   -0.563529
    53  H    0.354131
    54  C   -0.243397
    55  H    0.205010
    56  H    0.197682
    57  C    0.605610
    58  O   -0.531069
    59  N   -0.582545
    60  H    0.383441
    61  C   -0.250787
    62  H    0.215939
    63  H    0.188915
    64  C    0.596809
    65  O   -0.580287
    66  N   -0.570546
    67  H    0.403397
    68  C   -0.204070
    69  H    0.217501
    70  H    0.206775
    71  C    0.562017
    72  O   -0.456474
    73  O   -0.588638
    74  H    0.446631
 Sum of Mulliken charges =   1.00000

 Dipole moment (field-independent basis, Debye):
    X=              0.9981    Y=              1.0711    Z=              5.8954  Tot=              6.0745
 Quadrupole moment (field-independent basis, Debye-Ang):
   XX=           -152.0037   YY=           -184.6377   ZZ=           -176.4883
   XY=             13.2756   XZ=             56.0185   YZ=             39.5408

 Normal termination of Gaussian 16 at Sun Jul 17 02:38:28 2022.
