 Gaussian 16, Revision C.01,
 Gaussian 16:  ES64L-G16RevC.01  3-Jul-2019

 ----------------------------------------------------------------------
 # B3LYP/6-31G* empiricaldispersion=gd3bj guess=read geom=check nosymm
 integral(ultrafinegrid)
 ----------------------------------------------------------------------

 ------------------------------------------------------
 Candidate Structure: Conf:217 Charge calc in gas phase
 ------------------------------------------------------
 Structure from the checkpoint file:  "conf-217.chk"
 Charge =  1 Multiplicity = 1

                          Input orientation:
 ---------------------------------------------------------------------
 Center     Atomic      Atomic             Coordinates (Angstroms)
 Number     Number       Type             X           Y           Z
 ---------------------------------------------------------------------
      1          7           0       -5.247283    0.260404   -1.972738
      2          1           0       -4.750219    0.642637   -1.065924
      3          1           0       -6.120298   -0.201205   -1.703443
      4          1           0       -4.599047   -0.445728   -2.335815
      5          6           0       -5.479434    1.312706   -3.005330
      6          1           0       -6.071213    0.896763   -3.824856
      7          1           0       -6.043678    2.126990   -2.541912
      8          6           0       -4.106443    1.809198   -3.481534
      9          8           0       -3.095154    1.379189   -2.919185
     10          7           0       -4.123213    2.681957   -4.499779
     11          1           0       -5.005467    3.135232   -4.718093
     12          6           0       -2.946058    3.495115   -4.833647
     13          1           0       -2.968762    3.713779   -5.904133
     14          1           0       -2.041610    2.938338   -4.588710
     15          6           0       -3.090677    4.790336   -4.015377
     16          8           0       -4.182315    5.340315   -3.950432
     17          7           0       -1.984878    5.196205   -3.317122
     18          1           0       -1.175479    4.565116   -3.318434
     19          6           0       -2.185364    6.032805   -2.136777
     20          1           0       -1.239944    6.459411   -1.806137
     21          1           0       -2.830593    6.875471   -2.391957
     22          6           0       -2.853881    5.332854   -0.953272
     23          8           0       -3.140275    5.948841    0.062088
     24          7           0       -3.162597    4.006004   -1.124548
     25          1           0       -2.701766    3.482234   -1.855109
     26          6           0       -3.914796    3.290472   -0.124012
     27          1           0       -3.994178    3.952880    0.745704
     28          1           0       -4.935102    3.066262   -0.460935
     29          6           0       -3.258598    1.976038    0.261946
     30          8           0       -3.862805    0.882091    0.126640
     31          7           0       -2.015087    2.050675    0.732269
     32          1           0       -1.523449    2.945147    0.664502
     33          6           0       -1.191940    0.875997    0.997428
     34          1           0       -1.852054    0.010645    1.082281
     35          1           0       -0.644301    1.011066    1.930587
     36          6           0       -0.159318    0.688763   -0.120578
     37          8           0        1.045487    0.675351    0.113698
     38          7           0       -0.679347    0.575321   -1.373362
     39          1           0       -1.665327    0.749304   -1.522344
     40          6           0        0.175589    0.767982   -2.540857
     41          1           0        1.082620    0.172535   -2.418798
     42          1           0       -0.364170    0.444317   -3.429720
     43          6           0        0.483046    2.262442   -2.664087
     44          8           0       -0.211072    3.000138   -3.372682
     45          7           0        1.507751    2.687723   -1.894846
     46          1           0        1.844822    2.019420   -1.205280
     47          6           0        1.730775    4.090128   -1.637315
     48          1           0        2.776780    4.245293   -1.359603
     49          1           0        1.552052    4.656455   -2.557070
     50          6           0        0.799974    4.627666   -0.537768
     51          8           0       -0.230213    4.032989   -0.207835
     52          7           0        1.207128    5.802084   -0.011709
     53          1           0        1.986640    6.265503   -0.483547
     54          6           0        0.349198    6.678799    0.792550
     55          1           0        0.747570    6.785206    1.808203
     56          1           0       -0.658428    6.264986    0.836680
     57          6           0        0.336718    7.999977    0.025091
     58          8           0       -0.464138    8.230979   -0.871212
     59          7           0        1.408017    8.828107    0.246726
     60          1           0        2.134549    8.495958    0.867502
     61          6           0        1.849211    9.599102   -0.905294
     62          1           0        2.757698   10.146464   -0.639968
     63          1           0        1.079399   10.320647   -1.186036
     64          6           0        2.156222    8.622139   -2.054974
     65          8           0        2.660002    7.519002   -1.828541
     66          7           0        1.861004    9.032496   -3.309516
     67          1           0        1.232784    9.816681   -3.423040
     68          6           0        1.988314    8.091608   -4.413612
     69          1           0        2.962358    7.606689   -4.365901
     70          1           0        1.903373    8.644601   -5.353157
     71          6           0        0.921618    6.997699   -4.375431
     72          8           0        1.154524    5.809273   -4.431725
     73          8           0       -0.315483    7.512606   -4.283871
     74          1           0       -0.943815    6.756491   -4.221524
 ---------------------------------------------------------------------

 SCF Done:  E(RB3LYP) =  -2157.11870699     A.U. after    3 cycles

 Alpha  occ. eigenvalues --  -19.27391 -19.27232 -19.25657 -19.22304 -19.22052
 Alpha  occ. eigenvalues --  -19.21961 -19.21900 -19.21806 -19.21609 -19.21329
 Alpha  occ. eigenvalues --  -19.20339 -14.58360 -14.50339 -14.48035 -14.46327
 Alpha  occ. eigenvalues --  -14.45839 -14.45733 -14.45568 -14.45558 -14.45522
 Alpha  occ. eigenvalues --  -14.45052 -10.44599 -10.41714 -10.40615 -10.40496
 Alpha  occ. eigenvalues --  -10.39086 -10.38806 -10.38748 -10.38736 -10.38446
 Alpha  occ. eigenvalues --  -10.38231 -10.37807 -10.33836 -10.33574 -10.32902
 Alpha  occ. eigenvalues --  -10.32565 -10.32226 -10.32052 -10.31837 -10.31332
 Alpha  occ. eigenvalues --  -10.30663  -1.19353  -1.18675  -1.16777  -1.14403
 Alpha  occ. eigenvalues --   -1.14175  -1.13988  -1.13376  -1.12915  -1.12856
 Alpha  occ. eigenvalues --   -1.12652  -1.12452  -1.09677  -1.06540  -1.04936
 Alpha  occ. eigenvalues --   -1.02865  -1.02596  -1.02149  -1.02130  -1.01539
 Alpha  occ. eigenvalues --   -1.01391  -1.01007  -0.90377  -0.87301  -0.86244
 Alpha  occ. eigenvalues --   -0.85187  -0.84338  -0.83202  -0.81564  -0.79966
 Alpha  occ. eigenvalues --   -0.79109  -0.77416  -0.73753  -0.72814  -0.72353
 Alpha  occ. eigenvalues --   -0.70905  -0.69931  -0.69149  -0.69063  -0.68729
 Alpha  occ. eigenvalues --   -0.68204  -0.68095  -0.67557  -0.66940  -0.66206
 Alpha  occ. eigenvalues --   -0.65506  -0.64237  -0.63819  -0.63071  -0.62191
 Alpha  occ. eigenvalues --   -0.61775  -0.61125  -0.60414  -0.59768  -0.59235
 Alpha  occ. eigenvalues --   -0.58939  -0.58765  -0.58079  -0.57798  -0.57534
 Alpha  occ. eigenvalues --   -0.57241  -0.56486  -0.55973  -0.55936  -0.55612
 Alpha  occ. eigenvalues --   -0.55278  -0.54679  -0.54231  -0.54101  -0.53515
 Alpha  occ. eigenvalues --   -0.53386  -0.52633  -0.52178  -0.51979  -0.51783
 Alpha  occ. eigenvalues --   -0.51549  -0.51308  -0.50764  -0.50569  -0.50274
 Alpha  occ. eigenvalues --   -0.50038  -0.49798  -0.49168  -0.48851  -0.48528
 Alpha  occ. eigenvalues --   -0.48312  -0.48000  -0.47575  -0.47162  -0.46861
 Alpha  occ. eigenvalues --   -0.46712  -0.46348  -0.45203  -0.45105  -0.44120
 Alpha  occ. eigenvalues --   -0.41688  -0.40715  -0.40288  -0.39955  -0.39170
 Alpha  occ. eigenvalues --   -0.38238  -0.38119  -0.37518  -0.37222  -0.36860
 Alpha  occ. eigenvalues --   -0.36704  -0.35484  -0.35431  -0.35168  -0.34732
 Alpha  occ. eigenvalues --   -0.34538  -0.34285  -0.33767  -0.33664  -0.32935
 Alpha virt. eigenvalues --   -0.13335  -0.11630  -0.10144  -0.09731  -0.09093
 Alpha virt. eigenvalues --   -0.08627  -0.08474  -0.07220  -0.07135  -0.06181
 Alpha virt. eigenvalues --   -0.05653  -0.05362  -0.03932  -0.02857  -0.01517

 Mulliken charges:
               1
     1  N   -0.758277
     2  H    0.463049
     3  H    0.405274
     4  H    0.407421
     5  C   -0.285957
     6  H    0.234465
     7  H    0.245642
     8  C    0.628863
     9  O   -0.538484
    10  N   -0.555473
    11  H    0.361640
    12  C   -0.285839
    13  H    0.207764
    14  H    0.248315
    15  C    0.578607
    16  O   -0.499329
    17  N   -0.689781
    18  H    0.417053
    19  C   -0.263231
    20  H    0.224315
    21  H    0.226819
    22  C    0.634359
    23  O   -0.505339
    24  N   -0.629304
    25  H    0.355294
    26  C   -0.217634
    27  H    0.238242
    28  H    0.146812
    29  C    0.607961
    30  O   -0.609146
    31  N   -0.562081
    32  H    0.413978
    33  C   -0.248698
    34  H    0.212336
    35  H    0.210649
    36  C    0.604504
    37  O   -0.515372
    38  N   -0.595521
    39  H    0.375657
    40  C   -0.235368
    41  H    0.202598
    42  H    0.184635
    43  C    0.599884
    44  O   -0.537250
    45  N   -0.552609
    46  H    0.379648
    47  C   -0.294846
    48  H    0.192835
    49  H    0.263158
    50  C    0.610925
    51  O   -0.561523
    52  N   -0.609338
    53  H    0.392927
    54  C   -0.237959
    55  H    0.176058
    56  H    0.231158
    57  C    0.569934
    58  O   -0.485802
    59  N   -0.545033
    60  H    0.342886
    61  C   -0.242168
    62  H    0.202122
    63  H    0.198723
    64  C    0.628510
    65  O   -0.547456
    66  N   -0.569170
    67  H    0.356049
    68  C   -0.218140
    69  H    0.217680
    70  H    0.197804
    71  C    0.579481
    72  O   -0.454867
    73  O   -0.573020
    74  H    0.447978
 Sum of Mulliken charges =   1.00000

 Dipole moment (field-independent basis, Debye):
    X=            -12.4508    Y=             14.2906    Z=            -11.0866  Tot=             21.9581
 Quadrupole moment (field-independent basis, Debye-Ang):
   XX=           -132.6437   YY=           -109.6287   ZZ=           -183.7149
   XY=             44.9977   XZ=             43.4977   YZ=            -30.1541

 Normal termination of Gaussian 16 at Sun Jul 17 02:38:39 2022.
