 Gaussian 16, Revision C.01,
 Gaussian 16:  ES64L-G16RevC.01  3-Jul-2019

 ----------------------------------------------------------------------
 # B3LYP/6-31G* empiricaldispersion=gd3bj guess=read geom=check nosymm
 integral(ultrafinegrid)
 ----------------------------------------------------------------------

 ------------------------------------------------------
 Candidate Structure: Conf:510 Charge calc in gas phase
 ------------------------------------------------------
 Structure from the checkpoint file:  "conf-510.chk"
 Charge =  1 Multiplicity = 1

                          Input orientation:
 ---------------------------------------------------------------------
 Center     Atomic      Atomic             Coordinates (Angstroms)
 Number     Number       Type             X           Y           Z
 ---------------------------------------------------------------------
      1          7           0        5.111487    1.829937   -6.908224
      2          1           0        5.431974    1.771041   -5.902991
      3          1           0        4.559574    0.981045   -7.163666
      4          1           0        5.963431    1.813693   -7.474121
      5          6           0        4.334469    3.076407   -7.096289
      6          1           0        4.922560    3.908336   -6.700163
      7          1           0        4.154190    3.237999   -8.162587
      8          6           0        3.003763    2.952887   -6.349098
      9          8           0        2.636037    1.884113   -5.858115
     10          7           0        2.254472    4.070706   -6.310500
     11          1           0        2.700478    4.954423   -6.520673
     12          6           0        1.067737    4.114407   -5.475641
     13          1           0        0.483473    3.208020   -5.649374
     14          1           0        0.461748    4.973137   -5.777624
     15          6           0        1.452711    4.245701   -3.989587
     16          8           0        2.580088    4.605539   -3.656071
     17          7           0        0.459033    3.969241   -3.125121
     18          1           0       -0.395962    3.504691   -3.419842
     19          6           0        0.636893    4.018733   -1.689879
     20          1           0        1.572439    3.525911   -1.399863
     21          1           0        0.682401    5.052815   -1.328320
     22          6           0       -0.526473    3.259344   -1.056118
     23          8           0       -1.300495    2.601384   -1.759539
     24          7           0       -0.638817    3.355772    0.284748
     25          1           0        0.137899    3.750426    0.800547
     26          6           0       -1.556349    2.494782    1.034581
     27          1           0       -1.736602    2.936556    2.014050
     28          1           0       -2.494010    2.435711    0.477571
     29          6           0       -0.918614    1.112677    1.226775
     30          8           0       -0.431502    0.754060    2.285524
     31          7           0       -0.894534    0.351263    0.082751
     32          1           0       -1.168832    0.818135   -0.777235
     33          6           0        0.078716   -0.702278   -0.007373
     34          1           0       -0.188167   -1.392963   -0.814172
     35          1           0        0.073374   -1.259780    0.934658
     36          6           0        1.499716   -0.154714   -0.225815
     37          8           0        1.759205    1.050166   -0.160269
     38          7           0        2.443225   -1.096882   -0.473953
     39          1           0        2.159210   -2.066540   -0.501832
     40          6           0        3.876936   -0.811565   -0.472267
     41          1           0        4.120051   -0.203500    0.406023
     42          1           0        4.416951   -1.755658   -0.408774
     43          6           0        4.346928   -0.094629   -1.745688
     44          8           0        4.963992   -0.662711   -2.640472
     45          7           0        4.053950    1.239662   -1.771821
     46          1           0        3.329206    1.539480   -1.118123
     47          6           0        4.271591    1.991066   -2.992904
     48          1           0        3.832478    1.480312   -3.851596
     49          1           0        3.794377    2.971831   -2.907836
     50          6           0        5.745503    2.182287   -3.312425
     51          8           0        6.136562    2.327493   -4.486296
     52          7           0        6.583552    2.217329   -2.262914
     53          1           0        6.172590    1.951121   -1.374978
     54          6           0        8.014263    1.942409   -2.414784
     55          1           0        8.539380    2.280666   -1.521889
     56          1           0        8.384937    2.478892   -3.289178
     57          6           0        8.121975    0.415965   -2.536768
     58          8           0        8.151380   -0.300934   -1.546708
     59          7           0        8.029510   -0.041471   -3.816946
     60          1           0        7.820791    0.626027   -4.551510
     61          6           0        7.573243   -1.388188   -4.084945
     62          1           0        7.188084   -1.818049   -3.157778
     63          1           0        8.389819   -2.029987   -4.444669
     64          6           0        6.511307   -1.334256   -5.174088
     65          8           0        6.490632   -0.430806   -6.015617
     66          7           0        5.642366   -2.372583   -5.220502
     67          1           0        5.494623   -2.911364   -4.379038
     68          6           0        4.672721   -2.463198   -6.300209
     69          1           0        3.983752   -3.281276   -6.075622
     70          1           0        5.173371   -2.669643   -7.248479
     71          6           0        3.888000   -1.171538   -6.486060
     72          8           0        3.840779   -0.561071   -7.545686
     73          8           0        3.272246   -0.765831   -5.379415
     74          1           0        2.864655    0.112942   -5.570345
 ---------------------------------------------------------------------

 SCF Done:  E(RB3LYP) =  -2157.12788377     A.U. after    3 cycles

 Alpha  occ. eigenvalues --  -19.29479 -19.26823 -19.24704 -19.23929 -19.23325
 Alpha  occ. eigenvalues --  -19.22950 -19.22840 -19.22637 -19.22576 -19.19665
 Alpha  occ. eigenvalues --  -19.19579 -14.54512 -14.50029 -14.47724 -14.47054
 Alpha  occ. eigenvalues --  -14.47049 -14.46967 -14.46746 -14.45939 -14.44017
 Alpha  occ. eigenvalues --  -14.43716 -10.43884 -10.43166 -10.40327 -10.39955
 Alpha  occ. eigenvalues --  -10.39880 -10.39879 -10.39569 -10.39227 -10.38444
 Alpha  occ. eigenvalues --  -10.36929 -10.36755 -10.35018 -10.33924 -10.33604
 Alpha  occ. eigenvalues --  -10.33548 -10.32447 -10.32426 -10.32067 -10.31632
 Alpha  occ. eigenvalues --  -10.31494  -1.21310  -1.18685  -1.15420  -1.15162
 Alpha  occ. eigenvalues --   -1.14927  -1.14588  -1.14231  -1.13925  -1.12103
 Alpha  occ. eigenvalues --   -1.11567  -1.11554  -1.10020  -1.06318  -1.04035
 Alpha  occ. eigenvalues --   -1.03571  -1.03320  -1.03194  -1.02928  -1.01955
 Alpha  occ. eigenvalues --   -1.00605  -1.00548  -0.89481  -0.87427  -0.86611
 Alpha  occ. eigenvalues --   -0.86234  -0.84619  -0.83441  -0.81872  -0.80513
 Alpha  occ. eigenvalues --   -0.78881  -0.77895  -0.73422  -0.72380  -0.71209
 Alpha  occ. eigenvalues --   -0.70616  -0.70285  -0.69994  -0.69316  -0.68909
 Alpha  occ. eigenvalues --   -0.68344  -0.67771  -0.66748  -0.66686  -0.65911
 Alpha  occ. eigenvalues --   -0.64281  -0.64043  -0.63604  -0.63099  -0.61987
 Alpha  occ. eigenvalues --   -0.61746  -0.61153  -0.60462  -0.59950  -0.59452
 Alpha  occ. eigenvalues --   -0.59140  -0.58708  -0.58597  -0.58387  -0.58245
 Alpha  occ. eigenvalues --   -0.57675  -0.57484  -0.56743  -0.56105  -0.55785
 Alpha  occ. eigenvalues --   -0.55327  -0.54961  -0.54480  -0.54301  -0.54100
 Alpha  occ. eigenvalues --   -0.54023  -0.53583  -0.53098  -0.52589  -0.52529
 Alpha  occ. eigenvalues --   -0.52101  -0.51730  -0.51100  -0.50601  -0.50482
 Alpha  occ. eigenvalues --   -0.50239  -0.49837  -0.49643  -0.49087  -0.48833
 Alpha  occ. eigenvalues --   -0.48496  -0.48283  -0.48081  -0.47998  -0.47131
 Alpha  occ. eigenvalues --   -0.46705  -0.46318  -0.45909  -0.45188  -0.44441
 Alpha  occ. eigenvalues --   -0.42522  -0.41290  -0.40183  -0.39306  -0.39091
 Alpha  occ. eigenvalues --   -0.38808  -0.38233  -0.38025  -0.37667  -0.37146
 Alpha  occ. eigenvalues --   -0.37066  -0.36385  -0.36255  -0.36202  -0.35907
 Alpha  occ. eigenvalues --   -0.34778  -0.34021  -0.33891  -0.32629  -0.32503
 Alpha virt. eigenvalues --   -0.12452  -0.11010  -0.10024  -0.09392  -0.09212
 Alpha virt. eigenvalues --   -0.08597  -0.08429  -0.08001  -0.05901  -0.05853
 Alpha virt. eigenvalues --   -0.05518  -0.04227  -0.02465  -0.01855  -0.01182

 Mulliken charges:
               1
     1  N   -0.789186
     2  H    0.457174
     3  H    0.448147
     4  H    0.404408
     5  C   -0.276286
     6  H    0.232199
     7  H    0.233787
     8  C    0.653270
     9  O   -0.545815
    10  N   -0.557721
    11  H    0.359580
    12  C   -0.256160
    13  H    0.209129
    14  H    0.211078
    15  C    0.623540
    16  O   -0.530348
    17  N   -0.605595
    18  H    0.364670
    19  C   -0.201091
    20  H    0.204141
    21  H    0.199588
    22  C    0.618168
    23  O   -0.547936
    24  N   -0.574148
    25  H    0.354451
    26  C   -0.251411
    27  H    0.200206
    28  H    0.207202
    29  C    0.596908
    30  O   -0.490380
    31  N   -0.575263
    32  H    0.366340
    33  C   -0.256608
    34  H    0.180275
    35  H    0.225293
    36  C    0.629700
    37  O   -0.546716
    38  N   -0.585619
    39  H    0.352208
    40  C   -0.237107
    41  H    0.201440
    42  H    0.197413
    43  C    0.598585
    44  O   -0.513894
    45  N   -0.633275
    46  H    0.390057
    47  C   -0.270994
    48  H    0.187832
    49  H    0.237754
    50  C    0.646936
    51  O   -0.602207
    52  N   -0.551058
    53  H    0.359388
    54  C   -0.239217
    55  H    0.199281
    56  H    0.191660
    57  C    0.589183
    58  O   -0.504973
    59  N   -0.581958
    60  H    0.355941
    61  C   -0.207264
    62  H    0.206830
    63  H    0.197760
    64  C    0.633089
    65  O   -0.573016
    66  N   -0.577437
    67  H    0.356845
    68  C   -0.197040
    69  H    0.196009
    70  H    0.211288
    71  C    0.597672
    72  O   -0.506908
    73  O   -0.563454
    74  H    0.463662
 Sum of Mulliken charges =   1.00000

 Dipole moment (field-independent basis, Debye):
    X=             15.1931    Y=              8.2403    Z=            -22.2656  Tot=             28.1867
 Quadrupole moment (field-independent basis, Debye-Ang):
   XX=           -157.6378   YY=           -159.2046   ZZ=            -98.5227
   XY=             17.7533   XZ=            -91.4932   YZ=            -46.4208

 Normal termination of Gaussian 16 at Sun Jul 17 02:38:32 2022.
