 Gaussian 16, Revision C.01,
 Gaussian 16:  ES64L-G16RevC.01  3-Jul-2019

 ----------------------------------------------------------------------
 # B3LYP/6-31G* empiricaldispersion=gd3bj guess=read geom=check nosymm
 integral(ultrafinegrid)
 ----------------------------------------------------------------------

 ------------------------------------------------------
 Candidate Structure: Conf:883 Charge calc in gas phase
 ------------------------------------------------------
 Structure from the checkpoint file:  "conf-883.chk"
 Charge =  1 Multiplicity = 1

                          Input orientation:
 ---------------------------------------------------------------------
 Center     Atomic      Atomic             Coordinates (Angstroms)
 Number     Number       Type             X           Y           Z
 ---------------------------------------------------------------------
      1          7           0        6.814695    0.433995    1.645536
      2          1           0        6.278227   -0.471640    1.505391
      3          1           0        7.790246    0.315616    1.366985
      4          1           0        6.735253    0.674874    2.663805
      5          6           0        6.122387    1.572986    0.965588
      6          1           0        6.864571    2.252656    0.542202
      7          1           0        5.464145    1.194646    0.183060
      8          6           0        5.302910    2.248119    2.080078
      9          8           0        5.461339    1.857108    3.244192
     10          7           0        4.491713    3.225179    1.695642
     11          1           0        4.325369    3.422939    0.709835
     12          6           0        3.471865    3.779321    2.565030
     13          1           0        3.878836    4.577424    3.197837
     14          1           0        3.078745    2.995655    3.220357
     15          6           0        2.390766    4.345937    1.642957
     16          8           0        2.651036    4.580620    0.460592
     17          7           0        1.185114    4.576761    2.200155
     18          1           0        0.990929    4.222799    3.127245
     19          6           0        0.051920    5.006733    1.377889
     20          1           0       -0.750764    5.334049    2.038138
     21          1           0        0.373036    5.841445    0.751092
     22          6           0       -0.450316    3.815844    0.550637
     23          8           0       -1.281416    3.030149    1.009576
     24          7           0        0.143718    3.675606   -0.657277
     25          1           0        0.987334    4.217032   -0.813915
     26          6           0       -0.089152    2.514049   -1.505676
     27          1           0       -1.160467    2.291467   -1.486188
     28          1           0        0.205577    2.756825   -2.526414
     29          6           0        0.700584    1.263979   -1.080546
     30          8           0        1.467023    0.688145   -1.838850
     31          7           0        0.442373    0.852458    0.196384
     32          1           0       -0.290626    1.332890    0.713216
     33          6           0        0.992973   -0.380609    0.699833
     34          1           0        1.264332   -1.005855   -0.159343
     35          1           0        0.254228   -0.913286    1.304308
     36          6           0        2.294731   -0.208366    1.474566
     37          8           0        3.222434    0.518974    1.075210
     38          7           0        2.411390   -0.978319    2.576408
     39          1           0        1.664918   -1.645425    2.807443
     40          6           0        3.680409   -1.123440    3.271103
     41          1           0        4.175994   -0.150641    3.331869
     42          1           0        3.500139   -1.498718    4.278455
     43          6           0        4.548553   -2.148067    2.538729
     44          8           0        4.809891   -3.251284    2.977410
     45          7           0        5.015991   -1.734657    1.268458
     46          1           0        4.378247   -1.049070    0.844683
     47          6           0        5.344082   -2.834117    0.354644
     48          1           0        5.852315   -2.423476   -0.523441
     49          1           0        6.018265   -3.524814    0.862257
     50          6           0        4.054260   -3.516845   -0.113364
     51          8           0        3.041633   -2.842787   -0.309997
     52          7           0        4.122250   -4.847344   -0.331217
     53          1           0        4.913572   -5.366046    0.024183
     54          6           0        2.967319   -5.599524   -0.820374
     55          1           0        3.304002   -6.594812   -1.110179
     56          1           0        2.562704   -5.084950   -1.695701
     57          6           0        1.907889   -5.754701    0.279761
     58          8           0        1.940518   -6.687942    1.078803
     59          7           0        0.970259   -4.771533    0.296394
     60          1           0        1.210337   -3.915624   -0.194262
     61          6           0       -0.008019   -4.695372    1.373454
     62          1           0       -0.382656   -5.703359    1.566188
     63          1           0       -0.832626   -4.054072    1.061776
     64          6           0        0.619005   -4.091449    2.632476
     65          8           0        0.431787   -2.902134    2.937217
     66          7           0        1.405113   -4.928493    3.330371
     67          1           0        1.562180   -5.860887    2.952798
     68          6           0        2.111314   -4.517320    4.527311
     69          1           0        1.584201   -3.665484    4.963607
     70          1           0        3.133444   -4.190170    4.295350
     71          6           0        2.220016   -5.598078    5.586879
     72          8           0        2.672262   -5.395754    6.687484
     73          8           0        1.795997   -6.803031    5.149955
     74          1           0        1.928242   -7.433194    5.883780
 ---------------------------------------------------------------------

 SCF Done:  E(RB3LYP) =  -2157.10146063     A.U. after    3 cycles

 Alpha  occ. eigenvalues --  -19.27687 -19.26394 -19.25857 -19.24207 -19.23892
 Alpha  occ. eigenvalues --  -19.22580 -19.21639 -19.21447 -19.21422 -19.20935
 Alpha  occ. eigenvalues --  -19.18978 -14.58063 -14.49220 -14.48990 -14.48483
 Alpha  occ. eigenvalues --  -14.48458 -14.46330 -14.45623 -14.45298 -14.45159
 Alpha  occ. eigenvalues --  -14.43295 -10.43314 -10.41903 -10.41282 -10.40922
 Alpha  occ. eigenvalues --  -10.40151 -10.39333 -10.39172 -10.38474 -10.38448
 Alpha  occ. eigenvalues --  -10.38079 -10.36167 -10.35333 -10.35254 -10.33931
 Alpha  occ. eigenvalues --  -10.33280 -10.33070 -10.31849 -10.31651 -10.31039
 Alpha  occ. eigenvalues --  -10.30731  -1.18685  -1.18451  -1.17600  -1.16227
 Alpha  occ. eigenvalues --   -1.15701  -1.14078  -1.13529  -1.12805  -1.12704
 Alpha  occ. eigenvalues --   -1.12558  -1.10768  -1.09422  -1.06111  -1.04914
 Alpha  occ. eigenvalues --   -1.04353  -1.04219  -1.02813  -1.02195  -1.01439
 Alpha  occ. eigenvalues --   -1.01413  -0.99697  -0.89982  -0.88063  -0.86541
 Alpha  occ. eigenvalues --   -0.86086  -0.84626  -0.83315  -0.82068  -0.80501
 Alpha  occ. eigenvalues --   -0.79153  -0.77798  -0.73483  -0.72574  -0.72346
 Alpha  occ. eigenvalues --   -0.71458  -0.70674  -0.70196  -0.69763  -0.68950
 Alpha  occ. eigenvalues --   -0.68250  -0.67767  -0.67058  -0.66565  -0.66073
 Alpha  occ. eigenvalues --   -0.65664  -0.64092  -0.63127  -0.62983  -0.62499
 Alpha  occ. eigenvalues --   -0.61871  -0.61236  -0.60831  -0.60539  -0.59940
 Alpha  occ. eigenvalues --   -0.59614  -0.58769  -0.58402  -0.58035  -0.57516
 Alpha  occ. eigenvalues --   -0.57360  -0.57321  -0.56932  -0.56306  -0.55935
 Alpha  occ. eigenvalues --   -0.55477  -0.54983  -0.54687  -0.54068  -0.53613
 Alpha  occ. eigenvalues --   -0.53440  -0.52521  -0.52217  -0.51839  -0.51776
 Alpha  occ. eigenvalues --   -0.51447  -0.51161  -0.51086  -0.50683  -0.50116
 Alpha  occ. eigenvalues --   -0.50104  -0.49704  -0.49393  -0.49024  -0.48597
 Alpha  occ. eigenvalues --   -0.48480  -0.48313  -0.48079  -0.47725  -0.47529
 Alpha  occ. eigenvalues --   -0.46992  -0.46849  -0.46152  -0.45613  -0.44176
 Alpha  occ. eigenvalues --   -0.41608  -0.41266  -0.39861  -0.39556  -0.39439
 Alpha  occ. eigenvalues --   -0.39116  -0.39067  -0.37977  -0.37844  -0.37387
 Alpha  occ. eigenvalues --   -0.37280  -0.36517  -0.36276  -0.35881  -0.34557
 Alpha  occ. eigenvalues --   -0.34180  -0.34031  -0.33532  -0.32750  -0.31884
 Alpha virt. eigenvalues --   -0.12688  -0.11763  -0.10448  -0.09896  -0.08999
 Alpha virt. eigenvalues --   -0.08727  -0.08194  -0.07890  -0.07319  -0.06437
 Alpha virt. eigenvalues --   -0.05032  -0.03967  -0.03206  -0.02643  -0.01856

 Mulliken charges:
               1
     1  N   -0.778982
     2  H    0.437751
     3  H    0.403364
     4  H    0.417815
     5  C   -0.280410
     6  H    0.232006
     7  H    0.255204
     8  C    0.661233
     9  O   -0.533743
    10  N   -0.586539
    11  H    0.379142
    12  C   -0.202322
    13  H    0.218658
    14  H    0.200194
    15  C    0.620639
    16  O   -0.535211
    17  N   -0.586727
    18  H    0.354963
    19  C   -0.238000
    20  H    0.204548
    21  H    0.202585
    22  C    0.591618
    23  O   -0.526029
    24  N   -0.564303
    25  H    0.371658
    26  C   -0.248688
    27  H    0.205749
    28  H    0.193184
    29  C    0.587853
    30  O   -0.502584
    31  N   -0.601133
    32  H    0.375648
    33  C   -0.263674
    34  H    0.226270
    35  H    0.190026
    36  C    0.612861
    37  O   -0.587225
    38  N   -0.605106
    39  H    0.420759
    40  C   -0.260956
    41  H    0.204054
    42  H    0.204520
    43  C    0.581084
    44  O   -0.453737
    45  N   -0.680922
    46  H    0.399367
    47  C   -0.246626
    48  H    0.192775
    49  H    0.198726
    50  C    0.630968
    51  O   -0.531851
    52  N   -0.579552
    53  H    0.357826
    54  C   -0.238890
    55  H    0.204293
    56  H    0.201613
    57  C    0.595481
    58  O   -0.513478
    59  N   -0.571562
    60  H    0.371234
    61  C   -0.235784
    62  H    0.207634
    63  H    0.193737
    64  C    0.594526
    65  O   -0.555253
    66  N   -0.575553
    67  H    0.391121
    68  C   -0.258014
    69  H    0.213536
    70  H    0.227759
    71  C    0.586372
    72  O   -0.443158
    73  O   -0.561223
    74  H    0.426884
 Sum of Mulliken charges =   1.00000

 Dipole moment (field-independent basis, Debye):
    X=             22.8641    Y=              0.0301    Z=              5.6763  Tot=             23.5582
 Quadrupole moment (field-independent basis, Debye-Ang):
   XX=            -79.0789   YY=           -151.4629   ZZ=           -228.6917
   XY=             -4.9622   XZ=             18.1468   YZ=             13.6103

 Normal termination of Gaussian 16 at Sun Jul 17 02:38:30 2022.
