 Gaussian 16, Revision C.01,
 Gaussian 16:  ES64L-G16RevC.01  3-Jul-2019

 ----------------------------------------------------------------------
 # B3LYP/6-31G* empiricaldispersion=gd3bj guess=read geom=check nosymm
 integral(ultrafinegrid)
 ----------------------------------------------------------------------

 ------------------------------------------------------
 Candidate Structure: Conf:242 Charge calc in gas phase
 ------------------------------------------------------
 Structure from the checkpoint file:  "conf-242.chk"
 Charge =  1 Multiplicity = 1

                          Input orientation:
 ---------------------------------------------------------------------
 Center     Atomic      Atomic             Coordinates (Angstroms)
 Number     Number       Type             X           Y           Z
 ---------------------------------------------------------------------
      1          7           0       -1.903736   -0.982855   -2.529739
      2          1           0       -1.151961   -1.133650   -3.239522
      3          1           0       -2.655226   -0.407042   -2.916712
      4          1           0       -1.494463   -0.433073   -1.747297
      5          6           0       -2.442777   -2.306567   -2.032181
      6          1           0       -3.273696   -2.606409   -2.668523
      7          1           0       -1.620621   -3.019004   -2.088137
      8          6           0       -2.920022   -2.058846   -0.598509
      9          8           0       -4.069369   -1.741332   -0.348041
     10          7           0       -1.903013   -2.108104    0.317278
     11          1           0       -0.979004   -2.373352   -0.017768
     12          6           0       -1.969976   -1.244259    1.468316
     13          1           0       -1.271896   -1.585841    2.237501
     14          1           0       -2.985262   -1.278932    1.876080
     15          6           0       -1.666548    0.200945    1.044640
     16          8           0       -1.872002    0.601289   -0.099033
     17          7           0       -1.148622    1.015404    1.999732
     18          1           0       -1.080552    0.678316    2.949919
     19          6           0       -0.979907    2.438075    1.737395
     20          1           0       -1.921940    2.893378    1.421651
     21          1           0       -0.658935    2.922453    2.663788
     22          6           0        0.036506    2.767306    0.639902
     23          8           0       -0.041592    3.820812    0.030479
     24          7           0        1.054945    1.862683    0.457608
     25          1           0        0.919929    0.920896    0.810524
     26          6           0        1.862473    1.989800   -0.729534
     27          1           0        1.654603    2.983672   -1.145014
     28          1           0        2.932481    1.946541   -0.496579
     29          6           0        1.494965    0.935988   -1.769695
     30          8           0        0.507514    0.219248   -1.671052
     31          7           0        2.345883    0.802315   -2.838994
     32          1           0        3.006906    1.550471   -3.012919
     33          6           0        1.841877    0.079780   -4.005955
     34          1           0        2.641388    0.034117   -4.751112
     35          1           0        0.978749    0.585638   -4.449459
     36          6           0        1.384376   -1.344613   -3.671026
     37          8           0        0.281330   -1.759773   -4.049636
     38          7           0        2.285182   -2.115967   -3.034799
     39          1           0        3.149989   -1.727064   -2.665457
     40          6           0        1.988276   -3.487319   -2.651579
     41          1           0        1.237614   -3.884005   -3.334185
     42          1           0        2.907094   -4.073837   -2.725884
     43          6           0        1.413948   -3.538377   -1.233729
     44          8           0        0.201357   -3.523585   -1.024320
     45          7           0        2.338104   -3.602025   -0.240776
     46          1           0        3.305728   -3.414302   -0.499414
     47          6           0        1.950724   -3.476755    1.152288
     48          1           0        0.899894   -3.765716    1.226550
     49          1           0        2.545766   -4.158523    1.768159
     50          6           0        2.107531   -2.019906    1.588665
     51          8           0        1.508375   -1.115298    0.993507
     52          7           0        2.992980   -1.777753    2.583411
     53          1           0        3.523655   -2.552391    2.960206
     54          6           0        3.505205   -0.431051    2.847010
     55          1           0        3.896340   -0.380287    3.862432
     56          1           0        2.687767    0.282270    2.723906
     57          6           0        4.648870   -0.164634    1.857085
     58          8           0        5.826885   -0.213039    2.176400
     59          7           0        4.226159    0.034401    0.567551
     60          1           0        3.251947   -0.166642    0.363795
     61          6           0        5.184130   -0.091140   -0.521566
     62          1           0        6.086670    0.463337   -0.260367
     63          1           0        4.744487    0.329741   -1.427297
     64          6           0        5.466830   -1.571088   -0.768627
     65          8           0        4.666020   -2.274904   -1.414710
     66          7           0        6.565076   -2.068505   -0.191984
     67          1           0        7.135098   -1.493263    0.424240
     68          6           0        6.941228   -3.462042   -0.301754
     69          1           0        7.014969   -3.765091   -1.351432
     70          1           0        6.200340   -4.123666    0.165559
     71          6           0        8.280140   -3.647120    0.389064
     72          8           0        8.868123   -2.761084    0.965687
     73          8           0        8.706605   -4.912646    0.280248
     74          1           0        9.566389   -4.975160    0.739653
 ---------------------------------------------------------------------

 SCF Done:  E(RB3LYP) =  -2157.12468020     A.U. after    1 cycles

 Alpha  occ. eigenvalues --  -19.30417 -19.25640 -19.25081 -19.25012 -19.24303
 Alpha  occ. eigenvalues --  -19.23741 -19.23724 -19.23122 -19.22618 -19.20867
 Alpha  occ. eigenvalues --  -19.20190 -14.53304 -14.50562 -14.48799 -14.48784
 Alpha  occ. eigenvalues --  -14.48012 -14.47935 -14.47298 -14.47273 -14.44689
 Alpha  occ. eigenvalues --  -14.44621 -10.43393 -10.42627 -10.41655 -10.40938
 Alpha  occ. eigenvalues --  -10.40720 -10.40705 -10.40652 -10.39355 -10.38295
 Alpha  occ. eigenvalues --  -10.37658 -10.35480 -10.35244 -10.35211 -10.34883
 Alpha  occ. eigenvalues --  -10.34669 -10.33851 -10.33504 -10.33046 -10.32849
 Alpha  occ. eigenvalues --  -10.32467  -1.21606  -1.17621  -1.16629  -1.16504
 Alpha  occ. eigenvalues --   -1.15619  -1.15322  -1.14781  -1.14567  -1.12898
 Alpha  occ. eigenvalues --   -1.12890  -1.12273  -1.08068  -1.06288  -1.05244
 Alpha  occ. eigenvalues --   -1.04808  -1.04460  -1.04121  -1.03287  -1.03148
 Alpha  occ. eigenvalues --   -1.01680  -1.01146  -0.89566  -0.88225  -0.87338
 Alpha  occ. eigenvalues --   -0.86216  -0.85235  -0.83861  -0.82624  -0.81308
 Alpha  occ. eigenvalues --   -0.79852  -0.78398  -0.74011  -0.72596  -0.72020
 Alpha  occ. eigenvalues --   -0.71223  -0.70557  -0.70267  -0.70037  -0.69775
 Alpha  occ. eigenvalues --   -0.68660  -0.67760  -0.67497  -0.66823  -0.66550
 Alpha  occ. eigenvalues --   -0.65625  -0.65015  -0.63635  -0.63297  -0.63009
 Alpha  occ. eigenvalues --   -0.61572  -0.61057  -0.60827  -0.60468  -0.60318
 Alpha  occ. eigenvalues --   -0.60281  -0.59858  -0.59248  -0.58855  -0.58343
 Alpha  occ. eigenvalues --   -0.58272  -0.57733  -0.57078  -0.56820  -0.56682
 Alpha  occ. eigenvalues --   -0.56125  -0.55921  -0.54900  -0.54573  -0.53956
 Alpha  occ. eigenvalues --   -0.53786  -0.53719  -0.53321  -0.53149  -0.52673
 Alpha  occ. eigenvalues --   -0.52538  -0.52299  -0.52068  -0.51763  -0.51306
 Alpha  occ. eigenvalues --   -0.51027  -0.50270  -0.50023  -0.49894  -0.49853
 Alpha  occ. eigenvalues --   -0.49649  -0.49397  -0.49037  -0.48723  -0.48552
 Alpha  occ. eigenvalues --   -0.48141  -0.47357  -0.46427  -0.45964  -0.44997
 Alpha  occ. eigenvalues --   -0.42658  -0.40982  -0.40794  -0.40572  -0.39919
 Alpha  occ. eigenvalues --   -0.39239  -0.38908  -0.38579  -0.38102  -0.37572
 Alpha  occ. eigenvalues --   -0.37388  -0.37117  -0.37053  -0.36957  -0.36294
 Alpha  occ. eigenvalues --   -0.35613  -0.35013  -0.34677  -0.33973  -0.33593
 Alpha virt. eigenvalues --   -0.13338  -0.11579  -0.10660  -0.10439  -0.09820
 Alpha virt. eigenvalues --   -0.09357  -0.08973  -0.08740  -0.07676  -0.06640
 Alpha virt. eigenvalues --   -0.05308  -0.04485  -0.03224  -0.02852  -0.02097

 Mulliken charges:
               1
     1  N   -0.806878
     2  H    0.445723
     3  H    0.398910
     4  H    0.475236
     5  C   -0.286170
     6  H    0.214835
     7  H    0.251448
     8  C    0.568915
     9  O   -0.472054
    10  N   -0.590189
    11  H    0.388293
    12  C   -0.253752
    13  H    0.161289
    14  H    0.228571
    15  C    0.637386
    16  O   -0.522148
    17  N   -0.614650
    18  H    0.344826
    19  C   -0.225823
    20  H    0.218242
    21  H    0.192703
    22  C    0.612616
    23  O   -0.494085
    24  N   -0.615684
    25  H    0.390631
    26  C   -0.279376
    27  H    0.234482
    28  H    0.185544
    29  C    0.604904
    30  O   -0.513856
    31  N   -0.608282
    32  H    0.349551
    33  C   -0.229183
    34  H    0.196435
    35  H    0.194679
    36  C    0.646138
    37  O   -0.566341
    38  N   -0.580655
    39  H    0.372495
    40  C   -0.236679
    41  H    0.218585
    42  H    0.189646
    43  C    0.613070
    44  O   -0.517957
    45  N   -0.586108
    46  H    0.374725
    47  C   -0.244971
    48  H    0.224407
    49  H    0.173647
    50  C    0.602335
    51  O   -0.538437
    52  N   -0.566789
    53  H    0.355505
    54  C   -0.250365
    55  H    0.211953
    56  H    0.205017
    57  C    0.585651
    58  O   -0.484891
    59  N   -0.603580
    60  H    0.378675
    61  C   -0.230694
    62  H    0.209166
    63  H    0.170494
    64  C    0.603517
    65  O   -0.568500
    66  N   -0.576794
    67  H    0.391202
    68  C   -0.193612
    69  H    0.222478
    70  H    0.194933
    71  C    0.574747
    72  O   -0.438286
    73  O   -0.552565
    74  H    0.435751
 Sum of Mulliken charges =   1.00000

 Dipole moment (field-independent basis, Debye):
    X=             14.5135    Y=             -8.8319    Z=             -1.2702  Tot=             17.0369
 Quadrupole moment (field-independent basis, Debye-Ang):
   XX=           -155.8740   YY=           -204.1891   ZZ=           -180.1368
   XY=            -46.4271   XZ=             -8.1311   YZ=             -8.2886

 Normal termination of Gaussian 16 at Sun Jul 17 02:37:50 2022.
