 Gaussian 16, Revision C.01,
 Gaussian 16:  ES64L-G16RevC.01  3-Jul-2019

 ----------------------------------------------------------------------
 # B3LYP/6-31G* empiricaldispersion=gd3bj guess=read geom=check nosymm
 integral(ultrafinegrid)
 ----------------------------------------------------------------------

 -----------------------------------------------------
 Candidate Structure: Conf:90 Charge calc in gas phase
 -----------------------------------------------------
 Structure from the checkpoint file:  "conf-90.chk"
 Charge =  1 Multiplicity = 1

                          Input orientation:
 ---------------------------------------------------------------------
 Center     Atomic      Atomic             Coordinates (Angstroms)
 Number     Number       Type             X           Y           Z
 ---------------------------------------------------------------------
      1          7           0       -0.946280   -0.533050   -1.095358
      2          1           0       -1.693259   -1.172096   -1.374632
      3          1           0       -0.467296   -0.892225   -0.207173
      4          1           0       -1.324051    0.408225   -0.897732
      5          6           0        0.108207   -0.367423   -2.141247
      6          1           0        0.884385   -1.126653   -2.016666
      7          1           0       -0.343432   -0.452297   -3.132568
      8          6           0        0.688446    1.036417   -1.951669
      9          8           0        0.085800    1.851503   -1.237924
     10          7           0        1.809126    1.289615   -2.643613
     11          1           0        2.413251    0.482799   -2.831437
     12          6           0        2.441665    2.602960   -2.560000
     13          1           0        1.667341    3.369719   -2.624458
     14          1           0        3.114919    2.711263   -3.413756
     15          6           0        3.249082    2.673029   -1.263531
     16          8           0        4.097604    1.811039   -1.025466
     17          7           0        2.919938    3.633391   -0.372076
     18          1           0        2.191613    4.297403   -0.596150
     19          6           0        3.465514    3.569825    0.980572
     20          1           0        4.557410    3.559064    0.950849
     21          1           0        3.138877    4.455836    1.531815
     22          6           0        2.983961    2.311279    1.707527
     23          8           0        3.665820    1.746422    2.567769
     24          7           0        1.750693    1.875725    1.349884
     25          1           0        1.280928    2.288810    0.552614
     26          6           0        1.182160    0.667654    1.901852
     27          1           0        1.511906    0.581828    2.936434
     28          1           0        0.094115    0.733015    1.910633
     29          6           0        1.577719   -0.593105    1.129957
     30          8           0        0.704168   -1.399448    0.729184
     31          7           0        2.876762   -0.784599    0.911875
     32          1           0        3.568348   -0.150706    1.306827
     33          6           0        3.391593   -1.912566    0.150427
     34          1           0        2.577601   -2.619145   -0.005098
     35          1           0        4.187368   -2.383718    0.727670
     36          6           0        3.890688   -1.422021   -1.212846
     37          8           0        3.091505   -1.168267   -2.130278
     38          7           0        5.220254   -1.294637   -1.303639
     39          1           0        5.760690   -1.362992   -0.444571
     40          6           0        5.897066   -0.694361   -2.445574
     41          1           0        6.368940   -1.465406   -3.063375
     42          1           0        5.159391   -0.161075   -3.046011
     43          6           0        6.991153    0.212119   -1.885274
     44          8           0        7.964084   -0.274663   -1.309518
     45          7           0        6.777611    1.544478   -2.026677
     46          1           0        5.806178    1.813866   -2.143527
     47          6           0        7.616233    2.502805   -1.310789
     48          1           0        8.652514    2.165469   -1.383088
     49          1           0        7.518782    3.483655   -1.776139
     50          6           0        7.168568    2.619059    0.151774
     51          8           0        6.547245    3.594803    0.565707
     52          7           0        7.483527    1.538929    0.912535
     53          1           0        7.920150    0.748679    0.443191
     54          6           0        6.963972    1.371165    2.245403
     55          1           0        6.222231    2.156882    2.420124
     56          1           0        7.755568    1.485406    2.997796
     57          6           0        6.273951    0.020565    2.410846
     58          8           0        5.762439   -0.587831    1.464142
     59          7           0        6.250280   -0.454005    3.677501
     60          1           0        6.714908    0.082347    4.398325
     61          6           0        5.776312   -1.783857    4.021939
     62          1           0        6.512287   -2.290423    4.650429
     63          1           0        5.685724   -2.348623    3.090228
     64          6           0        4.436794   -1.869898    4.753627
     65          8           0        4.180218   -2.853415    5.430128
     66          7           0        3.566912   -0.834225    4.573362
     67          1           0        3.803548   -0.045879    3.981071
     68          6           0        2.244300   -0.915319    5.150769
     69          1           0        1.889854    0.071633    5.455056
     70          1           0        2.310034   -1.550765    6.041047
     71          6           0        1.185323   -1.526806    4.240291
     72          8           0        0.021084   -1.190462    4.233877
     73          8           0        1.682789   -2.480243    3.424855
     74          1           0        0.936343   -2.789426    2.875856
 ---------------------------------------------------------------------

 SCF Done:  E(RB3LYP) =  -2157.13765178     A.U. after    1 cycles

 Alpha  occ. eigenvalues --  -19.28377 -19.27758 -19.25754 -19.24879 -19.24277
 Alpha  occ. eigenvalues --  -19.23383 -19.23117 -19.22648 -19.21753 -19.20592
 Alpha  occ. eigenvalues --  -19.19332 -14.57692 -14.50110 -14.49734 -14.48927
 Alpha  occ. eigenvalues --  -14.48321 -14.47467 -14.47076 -14.45865 -14.44682
 Alpha  occ. eigenvalues --  -14.44667 -10.44383 -10.42306 -10.42037 -10.41199
 Alpha  occ. eigenvalues --  -10.40779 -10.40257 -10.40163 -10.38831 -10.38771
 Alpha  occ. eigenvalues --  -10.37666 -10.37022 -10.36378 -10.35005 -10.33768
 Alpha  occ. eigenvalues --  -10.33643 -10.32799 -10.32258 -10.32154 -10.31906
 Alpha  occ. eigenvalues --  -10.31610  -1.19546  -1.19390  -1.17209  -1.17012
 Alpha  occ. eigenvalues --   -1.15668  -1.14894  -1.14617  -1.13692  -1.12419
 Alpha  occ. eigenvalues --   -1.12215  -1.11661  -1.10233  -1.06891  -1.06202
 Alpha  occ. eigenvalues --   -1.05378  -1.03964  -1.03561  -1.03298  -1.02324
 Alpha  occ. eigenvalues --   -1.01109  -1.00715  -0.90528  -0.88708  -0.87036
 Alpha  occ. eigenvalues --   -0.86224  -0.85088  -0.83682  -0.82525  -0.81527
 Alpha  occ. eigenvalues --   -0.79942  -0.77989  -0.73731  -0.73297  -0.72756
 Alpha  occ. eigenvalues --   -0.71712  -0.71087  -0.70943  -0.70581  -0.70070
 Alpha  occ. eigenvalues --   -0.69318  -0.68631  -0.67453  -0.67294  -0.67130
 Alpha  occ. eigenvalues --   -0.66467  -0.65248  -0.64643  -0.63893  -0.62891
 Alpha  occ. eigenvalues --   -0.62420  -0.61696  -0.61079  -0.60910  -0.60289
 Alpha  occ. eigenvalues --   -0.59718  -0.59462  -0.58912  -0.58565  -0.57821
 Alpha  occ. eigenvalues --   -0.57376  -0.57131  -0.56932  -0.56322  -0.56293
 Alpha  occ. eigenvalues --   -0.56129  -0.55542  -0.55267  -0.54918  -0.54387
 Alpha  occ. eigenvalues --   -0.54169  -0.53712  -0.53588  -0.53215  -0.52879
 Alpha  occ. eigenvalues --   -0.52176  -0.52074  -0.51447  -0.51293  -0.50941
 Alpha  occ. eigenvalues --   -0.50606  -0.50448  -0.49981  -0.49610  -0.49521
 Alpha  occ. eigenvalues --   -0.49219  -0.49033  -0.48495  -0.48236  -0.47399
 Alpha  occ. eigenvalues --   -0.47141  -0.46971  -0.46551  -0.45592  -0.44848
 Alpha  occ. eigenvalues --   -0.42315  -0.41781  -0.41271  -0.40782  -0.40360
 Alpha  occ. eigenvalues --   -0.40013  -0.38384  -0.38065  -0.37818  -0.37483
 Alpha  occ. eigenvalues --   -0.37355  -0.37185  -0.37118  -0.36709  -0.36324
 Alpha  occ. eigenvalues --   -0.34951  -0.34450  -0.33507  -0.33400  -0.32754
 Alpha virt. eigenvalues --   -0.13601  -0.12873  -0.11533  -0.09868  -0.09659
 Alpha virt. eigenvalues --   -0.09076  -0.08840  -0.08301  -0.07829  -0.06279
 Alpha virt. eigenvalues --   -0.05574  -0.04643  -0.03180  -0.02596  -0.02095

 Mulliken charges:
               1
     1  N   -0.764067
     2  H    0.407257
     3  H    0.452593
     4  H    0.408391
     5  C   -0.293954
     6  H    0.272127
     7  H    0.234823
     8  C    0.616180
     9  O   -0.552534
    10  N   -0.577728
    11  H    0.405456
    12  C   -0.248741
    13  H    0.195517
    14  H    0.206988
    15  C    0.615220
    16  O   -0.531827
    17  N   -0.591556
    18  H    0.356605
    19  C   -0.272396
    20  H    0.284678
    21  H    0.202545
    22  C    0.618044
    23  O   -0.549850
    24  N   -0.588110
    25  H    0.370657
    26  C   -0.243726
    27  H    0.217148
    28  H    0.193533
    29  C    0.622216
    30  O   -0.613990
    31  N   -0.563395
    32  H    0.405584
    33  C   -0.237678
    34  H    0.206111
    35  H    0.203850
    36  C    0.626501
    37  O   -0.573505
    38  N   -0.580308
    39  H    0.393039
    40  C   -0.182449
    41  H    0.204945
    42  H    0.171300
    43  C    0.574609
    44  O   -0.521210
    45  N   -0.566188
    46  H    0.355627
    47  C   -0.249275
    48  H    0.208069
    49  H    0.189404
    50  C    0.599513
    51  O   -0.519975
    52  N   -0.583142
    53  H    0.377191
    54  C   -0.230680
    55  H    0.235461
    56  H    0.172758
    57  C    0.620928
    58  O   -0.565202
    59  N   -0.594473
    60  H    0.352994
    61  C   -0.243922
    62  H    0.206609
    63  H    0.212820
    64  C    0.610230
    65  O   -0.495066
    66  N   -0.622659
    67  H    0.372176
    68  C   -0.229942
    69  H    0.190735
    70  H    0.236782
    71  C    0.571522
    72  O   -0.465281
    73  O   -0.547045
    74  H    0.421138
 Sum of Mulliken charges =   1.00000

 Dipole moment (field-independent basis, Debye):
    X=              9.0568    Y=              5.0688    Z=             -4.4167  Tot=             11.2794
 Quadrupole moment (field-independent basis, Debye-Ang):
   XX=           -165.2559   YY=           -215.5158   ZZ=           -206.5508
   XY=             20.3765   XZ=             17.3471   YZ=              5.4479

 Normal termination of Gaussian 16 at Sun Jul 17 02:37:59 2022.
