 Gaussian 16, Revision C.01,
 Gaussian 16:  ES64L-G16RevC.01  3-Jul-2019

 ----------------------------------------------------------------------
 # B3LYP/6-31G* empiricaldispersion=gd3bj guess=read geom=check nosymm
 integral(ultrafinegrid)
 ----------------------------------------------------------------------

 ------------------------------------------------------
 Candidate Structure: Conf:962 Charge calc in gas phase
 ------------------------------------------------------
 Structure from the checkpoint file:  "conf-962.chk"
 Charge =  1 Multiplicity = 1

                          Input orientation:
 ---------------------------------------------------------------------
 Center     Atomic      Atomic             Coordinates (Angstroms)
 Number     Number       Type             X           Y           Z
 ---------------------------------------------------------------------
      1          7           0        4.192760    1.662158    1.526449
      2          1           0        4.981398    1.901006    0.920310
      3          1           0        4.086581    0.612946    1.524385
      4          1           0        3.336744    2.121377    1.131855
      5          6           0        4.398621    2.200345    2.913111
      6          1           0        5.377932    1.890982    3.273572
      7          1           0        4.337416    3.286467    2.866020
      8          6           0        3.336111    1.578420    3.820220
      9          8           0        3.377494    0.375521    4.086797
     10          7           0        2.360930    2.407016    4.216410
     11          1           0        2.498189    3.412101    4.112282
     12          6           0        1.296950    1.944602    5.095602
     13          1           0        1.647057    1.863609    6.132692
     14          1           0        0.967072    0.962313    4.759707
     15          6           0        0.210055    3.002718    5.011745
     16          8           0        0.452672    4.160917    5.376750
     17          7           0       -0.959081    2.634076    4.445758
     18          1           0       -0.945372    1.775422    3.902002
     19          6           0       -1.909022    3.660958    4.015168
     20          1           0       -2.907349    3.232093    3.936671
     21          1           0       -1.902910    4.463643    4.754600
     22          6           0       -1.478808    4.147885    2.627607
     23          8           0       -2.116167    3.863542    1.612984
     24          7           0       -0.283823    4.797606    2.597336
     25          1           0        0.208097    4.940337    3.475275
     26          6           0        0.442919    4.984108    1.347677
     27          1           0       -0.226919    5.416985    0.599398
     28          1           0        1.279625    5.658685    1.525970
     29          6           0        1.005396    3.645193    0.854756
     30          8           0        2.210185    3.369065    0.969784
     31          7           0        0.098786    2.806209    0.319864
     32          1           0       -0.882248    3.067591    0.437840
     33          6           0        0.430563    1.439478    0.003620
     34          1           0        1.321955    1.413376   -0.631997
     35          1           0       -0.395688    1.011250   -0.571986
     36          6           0        0.639706    0.576416    1.261162
     37          8           0        0.127414    0.857495    2.340943
     38          7           0        1.400761   -0.526871    1.051491
     39          1           0        1.858893   -0.652041    0.158687
     40          6           0        1.711991   -1.484786    2.088216
     41          1           0        1.272301   -1.117774    3.017376
     42          1           0        1.270841   -2.464177    1.863596
     43          6           0        3.224251   -1.627477    2.262446
     44          8           0        4.022009   -1.060171    1.495886
     45          7           0        3.603464   -2.425141    3.268896
     46          1           0        2.904600   -2.687423    3.963359
     47          6           0        4.925760   -2.326897    3.855381
     48          1           0        5.509309   -3.238712    3.675679
     49          1           0        5.452800   -1.485975    3.400467
     50          6           0        4.734776   -2.133046    5.365263
     51          8           0        3.665922   -2.402889    5.898383
     52          7           0        5.822946   -1.668931    6.038035
     53          1           0        6.688909   -1.545806    5.530029
     54          6           0        5.862703   -1.596570    7.490938
     55          1           0        6.691708   -2.189034    7.887788
     56          1           0        4.931126   -2.034731    7.858777
     57          6           0        5.991150   -0.190360    8.081341
     58          8           0        6.338641   -0.034408    9.243341
     59          7           0        5.671697    0.844981    7.260013
     60          1           0        5.349508    0.691000    6.313095
     61          6           0        5.693417    2.199620    7.767834
     62          1           0        6.724434    2.570800    7.866552
     63          1           0        5.255324    2.222755    8.771199
     64          6           0        4.949033    3.094689    6.792462
     65          8           0        4.956432    2.863264    5.580490
     66          7           0        4.297586    4.159321    7.310341
     67          1           0        4.288557    4.298923    8.311057
     68          6           0        3.433295    4.998320    6.489152
     69          1           0        3.282624    5.944807    7.017295
     70          1           0        2.454526    4.541409    6.318149
     71          6           0        4.035763    5.322598    5.130826
     72          8           0        3.461245    5.156069    4.067116
     73          8           0        5.238602    5.897803    5.232235
     74          1           0        5.546662    6.099358    4.328357
 ---------------------------------------------------------------------

 SCF Done:  E(RB3LYP) =  -2157.13534250     A.U. after    1 cycles

 Alpha  occ. eigenvalues --  -19.30713 -19.25567 -19.24654 -19.24036 -19.23957
 Alpha  occ. eigenvalues --  -19.23571 -19.23089 -19.22887 -19.22319 -19.21935
 Alpha  occ. eigenvalues --  -19.19006 -14.54484 -14.48555 -14.48302 -14.47241
 Alpha  occ. eigenvalues --  -14.47051 -14.46836 -14.46813 -14.46696 -14.46407
 Alpha  occ. eigenvalues --  -14.44593 -10.43977 -10.41247 -10.40900 -10.40821
 Alpha  occ. eigenvalues --  -10.40551 -10.40325 -10.39962 -10.39261 -10.39219
 Alpha  occ. eigenvalues --  -10.36726 -10.35738 -10.34960 -10.34229 -10.34142
 Alpha  occ. eigenvalues --  -10.33431 -10.33255 -10.33145 -10.32761 -10.32610
 Alpha  occ. eigenvalues --  -10.31423  -1.22020  -1.16457  -1.15769  -1.15614
 Alpha  occ. eigenvalues --   -1.15357  -1.15157  -1.14667  -1.13969  -1.13829
 Alpha  occ. eigenvalues --   -1.12844  -1.11322  -1.09550  -1.04661  -1.04170
 Alpha  occ. eigenvalues --   -1.04162  -1.03701  -1.03575  -1.03369  -1.02784
 Alpha  occ. eigenvalues --   -1.02242  -1.00580  -0.88691  -0.87720  -0.87273
 Alpha  occ. eigenvalues --   -0.86405  -0.84923  -0.83553  -0.82127  -0.80783
 Alpha  occ. eigenvalues --   -0.79378  -0.78457  -0.73830  -0.71971  -0.70983
 Alpha  occ. eigenvalues --   -0.70616  -0.70225  -0.69936  -0.69295  -0.69091
 Alpha  occ. eigenvalues --   -0.68761  -0.68373  -0.68048  -0.67664  -0.66229
 Alpha  occ. eigenvalues --   -0.64917  -0.64726  -0.64217  -0.63342  -0.61816
 Alpha  occ. eigenvalues --   -0.61360  -0.60812  -0.60531  -0.60472  -0.59794
 Alpha  occ. eigenvalues --   -0.59434  -0.58939  -0.58589  -0.58428  -0.57786
 Alpha  occ. eigenvalues --   -0.57319  -0.57160  -0.57064  -0.56571  -0.56004
 Alpha  occ. eigenvalues --   -0.55663  -0.55541  -0.55178  -0.54688  -0.54465
 Alpha  occ. eigenvalues --   -0.53729  -0.53654  -0.52942  -0.52495  -0.52349
 Alpha  occ. eigenvalues --   -0.51987  -0.51415  -0.51343  -0.51039  -0.50917
 Alpha  occ. eigenvalues --   -0.50821  -0.50377  -0.49978  -0.49773  -0.49518
 Alpha  occ. eigenvalues --   -0.49362  -0.48987  -0.48666  -0.48060  -0.47761
 Alpha  occ. eigenvalues --   -0.47615  -0.47392  -0.46732  -0.46029  -0.43675
 Alpha  occ. eigenvalues --   -0.43039  -0.39793  -0.39635  -0.39440  -0.38878
 Alpha  occ. eigenvalues --   -0.38726  -0.38409  -0.38126  -0.38033  -0.37400
 Alpha  occ. eigenvalues --   -0.37107  -0.36783  -0.36611  -0.36436  -0.35972
 Alpha  occ. eigenvalues --   -0.35724  -0.35408  -0.34936  -0.33753  -0.32486
 Alpha virt. eigenvalues --   -0.11786  -0.10983  -0.10567  -0.10031  -0.09698
 Alpha virt. eigenvalues --   -0.09469  -0.08809  -0.07375  -0.07322  -0.05183
 Alpha virt. eigenvalues --   -0.04712  -0.03289  -0.02760  -0.02565  -0.02119

 Mulliken charges:
               1
     1  N   -0.813198
     2  H    0.392219
     3  H    0.449785
     4  H    0.431898
     5  C   -0.253913
     6  H    0.215460
     7  H    0.226021
     8  C    0.632029
     9  O   -0.554184
    10  N   -0.618682
    11  H    0.401502
    12  C   -0.187344
    13  H    0.188234
    14  H    0.202035
    15  C    0.566785
    16  O   -0.531032
    17  N   -0.564182
    18  H    0.384392
    19  C   -0.245259
    20  H    0.204982
    21  H    0.214535
    22  C    0.600218
    23  O   -0.524508
    24  N   -0.587324
    25  H    0.379032
    26  C   -0.236083
    27  H    0.208780
    28  H    0.200860
    29  C    0.612555
    30  O   -0.573453
    31  N   -0.557232
    32  H    0.399654
    33  C   -0.252794
    34  H    0.176357
    35  H    0.217199
    36  C    0.616295
    37  O   -0.534709
    38  N   -0.590371
    39  H    0.346629
    40  C   -0.241739
    41  H    0.231077
    42  H    0.207052
    43  C    0.646828
    44  O   -0.582386
    45  N   -0.559305
    46  H    0.367950
    47  C   -0.223340
    48  H    0.201980
    49  H    0.183511
    50  C    0.628602
    51  O   -0.508723
    52  N   -0.623373
    53  H    0.340825
    54  C   -0.231837
    55  H    0.200982
    56  H    0.232840
    57  C    0.599660
    58  O   -0.504676
    59  N   -0.620589
    60  H    0.355159
    61  C   -0.179908
    62  H    0.205156
    63  H    0.192053
    64  C    0.611843
    65  O   -0.556470
    66  N   -0.595962
    67  H    0.357051
    68  C   -0.223331
    69  H    0.203874
    70  H    0.234637
    71  C    0.615331
    72  O   -0.500930
    73  O   -0.530743
    74  H    0.423715
 Sum of Mulliken charges =   1.00000

 Dipole moment (field-independent basis, Debye):
    X=             16.1391    Y=              9.8671    Z=             12.9569  Tot=             22.9285
 Quadrupole moment (field-independent basis, Debye-Ang):
   XX=           -145.7121   YY=           -167.3739   ZZ=           -173.4626
   XY=             32.4090   XZ=             46.2801   YZ=             50.4988

 Normal termination of Gaussian 16 at Sun Jul 17 02:37:50 2022.
