 Gaussian 16, Revision C.01,
 Gaussian 16:  ES64L-G16RevC.01  3-Jul-2019

 ----------------------------------------------------------------------
 # B3LYP/6-31G* empiricaldispersion=gd3bj guess=read geom=check nosymm
 integral(ultrafinegrid)
 ----------------------------------------------------------------------

 ------------------------------------------------------
 Candidate Structure: Conf:574 Charge calc in gas phase
 ------------------------------------------------------
 Structure from the checkpoint file:  "conf-574.chk"
 Charge =  1 Multiplicity = 1

                          Input orientation:
 ---------------------------------------------------------------------
 Center     Atomic      Atomic             Coordinates (Angstroms)
 Number     Number       Type             X           Y           Z
 ---------------------------------------------------------------------
      1          7           0       -3.707789    3.806061   -6.072879
      2          1           0       -4.589395    3.404274   -6.398308
      3          1           0       -3.026300    3.733985   -6.852390
      4          1           0       -3.264791    3.162294   -5.353812
      5          6           0       -3.849906    5.186372   -5.544578
      6          1           0       -4.334815    5.813268   -6.298235
      7          1           0       -4.470769    5.161162   -4.646271
      8          6           0       -2.426167    5.678332   -5.279975
      9          8           0       -1.512291    5.253728   -5.987002
     10          7           0       -2.249572    6.533046   -4.255612
     11          1           0       -3.026023    6.753384   -3.646184
     12          6           0       -0.919188    7.009454   -3.876238
     13          1           0       -1.020693    7.926929   -3.297691
     14          1           0       -0.360050    7.226279   -4.791445
     15          6           0       -0.126297    6.004055   -3.024740
     16          8           0        0.461493    6.363635   -2.004575
     17          7           0       -0.122965    4.730741   -3.481320
     18          1           0       -0.506107    4.532133   -4.398959
     19          6           0        0.686274    3.700893   -2.855439
     20          1           0        0.735927    2.846337   -3.529271
     21          1           0        1.701632    4.082942   -2.691630
     22          6           0        0.128885    3.212899   -1.516352
     23          8           0       -0.456506    2.121061   -1.386843
     24          7           0        0.380887    3.991487   -0.450824
     25          1           0        0.680867    4.947609   -0.645377
     26          6           0       -0.025114    3.563743    0.883573
     27          1           0        0.232899    4.357780    1.589118
     28          1           0       -1.100655    3.379767    0.932743
     29          6           0        0.657526    2.247198    1.297265
     30          8           0        0.067253    1.395091    1.938556
     31          7           0        1.956726    2.125993    0.886574
     32          1           0        2.343114    2.861251    0.311025
     33          6           0        2.692430    0.878305    0.983453
     34          1           0        2.168869    0.252433    1.711801
     35          1           0        3.713495    1.051206    1.328538
     36          6           0        2.778869    0.159939   -0.368651
     37          8           0        3.851117   -0.249129   -0.821188
     38          7           0        1.603479    0.025101   -1.031698
     39          1           0        0.771552    0.484957   -0.681617
     40          6           0        1.526280   -0.609668   -2.340216
     41          1           0        2.159230   -1.502179   -2.332340
     42          1           0        0.493453   -0.894660   -2.534821
     43          6           0        1.971630    0.345016   -3.453997
     44          8           0        1.186963    0.857232   -4.255853
     45          7           0        3.307647    0.598598   -3.487512
     46          1           0        3.865248    0.251516   -2.704467
     47          6           0        3.818456    1.645712   -4.359074
     48          1           0        3.417345    2.629718   -4.096927
     49          1           0        4.906452    1.678529   -4.251746
     50          6           0        3.466485    1.419080   -5.831102
     51          8           0        3.242008    2.361488   -6.588011
     52          7           0        3.483849    0.124944   -6.235887
     53          1           0        3.518471   -0.592403   -5.524739
     54          6           0        3.050490   -0.241184   -7.573944
     55          1           0        3.317459   -1.282287   -7.756622
     56          1           0        3.567103    0.397479   -8.294826
     57          6           0        1.529748   -0.121683   -7.735868
     58          8           0        0.781674   -1.093169   -7.595385
     59          7           0        1.074619    1.118840   -8.038885
     60          1           0        1.719173    1.894213   -7.900973
     61          6           0       -0.289314    1.365811   -8.469049
     62          1           0       -0.567876    0.598760   -9.202899
     63          1           0       -0.329162    2.335837   -8.965428
     64          6           0       -1.392724    1.372510   -7.407583
     65          8           0       -2.356564    2.144152   -7.519713
     66          7           0       -1.297270    0.451914   -6.430347
     67          1           0       -0.550562   -0.240997   -6.504986
     68          6           0       -2.331223    0.288755   -5.423315
     69          1           0       -2.342585   -0.749935   -5.092313
     70          1           0       -3.299127    0.545496   -5.861925
     71          6           0       -2.056068    1.201770   -4.231565
     72          8           0       -2.287125    2.417613   -4.240837
     73          8           0       -1.522733    0.582497   -3.213772
     74          1           0       -1.178681    1.244307   -2.530714
 ---------------------------------------------------------------------

 SCF Done:  E(RB3LYP) =  -2157.12965739     A.U. after    3 cycles

 Alpha  occ. eigenvalues --  -19.29281 -19.26485 -19.26311 -19.25168 -19.23733
 Alpha  occ. eigenvalues --  -19.22894 -19.22229 -19.21300 -19.21204 -19.20967
 Alpha  occ. eigenvalues --  -19.20450 -14.56068 -14.51292 -14.47857 -14.47514
 Alpha  occ. eigenvalues --  -14.46583 -14.45881 -14.45672 -14.45594 -14.45520
 Alpha  occ. eigenvalues --  -14.45206 -10.44098 -10.44017 -10.41294 -10.40737
 Alpha  occ. eigenvalues --  -10.39748 -10.39608 -10.38867 -10.38249 -10.38228
 Alpha  occ. eigenvalues --  -10.38087 -10.38083 -10.35474 -10.34223 -10.33796
 Alpha  occ. eigenvalues --  -10.32996 -10.32719 -10.32591 -10.32271 -10.31793
 Alpha  occ. eigenvalues --  -10.31545  -1.21679  -1.19027  -1.16547  -1.15299
 Alpha  occ. eigenvalues --   -1.14580  -1.14217  -1.13239  -1.12989  -1.12711
 Alpha  occ. eigenvalues --   -1.12437  -1.12345  -1.11199  -1.07132  -1.04492
 Alpha  occ. eigenvalues --   -1.03694  -1.03164  -1.02808  -1.02368  -1.01580
 Alpha  occ. eigenvalues --   -1.01082  -1.00627  -0.90268  -0.87362  -0.87046
 Alpha  occ. eigenvalues --   -0.85917  -0.84684  -0.83596  -0.82262  -0.80903
 Alpha  occ. eigenvalues --   -0.79331  -0.78060  -0.73910  -0.73616  -0.72253
 Alpha  occ. eigenvalues --   -0.71195  -0.70466  -0.69848  -0.69670  -0.68569
 Alpha  occ. eigenvalues --   -0.68235  -0.67864  -0.67459  -0.66916  -0.66572
 Alpha  occ. eigenvalues --   -0.65036  -0.63891  -0.63687  -0.63468  -0.62773
 Alpha  occ. eigenvalues --   -0.62641  -0.62352  -0.61753  -0.60463  -0.60411
 Alpha  occ. eigenvalues --   -0.60200  -0.59560  -0.59070  -0.58824  -0.57745
 Alpha  occ. eigenvalues --   -0.57604  -0.57254  -0.56662  -0.55998  -0.55083
 Alpha  occ. eigenvalues --   -0.54852  -0.54798  -0.54434  -0.54042  -0.53860
 Alpha  occ. eigenvalues --   -0.53540  -0.53442  -0.52785  -0.52750  -0.52109
 Alpha  occ. eigenvalues --   -0.51835  -0.51669  -0.51255  -0.51096  -0.50567
 Alpha  occ. eigenvalues --   -0.50463  -0.50258  -0.49876  -0.49605  -0.49065
 Alpha  occ. eigenvalues --   -0.48945  -0.48556  -0.48315  -0.47938  -0.47285
 Alpha  occ. eigenvalues --   -0.46894  -0.46359  -0.46282  -0.45782  -0.45394
 Alpha  occ. eigenvalues --   -0.42926  -0.41751  -0.41042  -0.40627  -0.40182
 Alpha  occ. eigenvalues --   -0.38997  -0.38353  -0.37604  -0.37358  -0.37198
 Alpha  occ. eigenvalues --   -0.36961  -0.36602  -0.36441  -0.35893  -0.34720
 Alpha  occ. eigenvalues --   -0.34249  -0.34028  -0.33859  -0.33365  -0.33162
 Alpha virt. eigenvalues --   -0.13391  -0.11717  -0.11339  -0.09618  -0.09368
 Alpha virt. eigenvalues --   -0.08716  -0.08076  -0.07946  -0.07318  -0.06773
 Alpha virt. eigenvalues --   -0.06083  -0.05415  -0.02033  -0.00769  -0.00411

 Mulliken charges:
               1
     1  N   -0.766140
     2  H    0.398332
     3  H    0.443009
     4  H    0.445455
     5  C   -0.269180
     6  H    0.240933
     7  H    0.209538
     8  C    0.637725
     9  O   -0.516164
    10  N   -0.580402
    11  H    0.358187
    12  C   -0.250904
    13  H    0.211713
    14  H    0.229702
    15  C    0.603942
    16  O   -0.521253
    17  N   -0.590247
    18  H    0.391582
    19  C   -0.267576
    20  H    0.234626
    21  H    0.184873
    22  C    0.621457
    23  O   -0.575967
    24  N   -0.600703
    25  H    0.392569
    26  C   -0.225591
    27  H    0.200869
    28  H    0.210664
    29  C    0.593214
    30  O   -0.492825
    31  N   -0.582730
    32  H    0.332291
    33  C   -0.229468
    34  H    0.229523
    35  H    0.197590
    36  C    0.583257
    37  O   -0.531958
    38  N   -0.588390
    39  H    0.388274
    40  C   -0.240026
    41  H    0.200070
    42  H    0.200822
    43  C    0.580792
    44  O   -0.533820
    45  N   -0.615741
    46  H    0.389293
    47  C   -0.218830
    48  H    0.181678
    49  H    0.200925
    50  C    0.622822
    51  O   -0.539801
    52  N   -0.563766
    53  H    0.349082
    54  C   -0.229169
    55  H    0.196819
    56  H    0.197553
    57  C    0.594316
    58  O   -0.533843
    59  N   -0.580418
    60  H    0.383463
    61  C   -0.234404
    62  H    0.214678
    63  H    0.193634
    64  C    0.613931
    65  O   -0.586401
    66  N   -0.571971
    67  H    0.400416
    68  C   -0.213210
    69  H    0.205932
    70  H    0.176950
    71  C    0.633324
    72  O   -0.543167
    73  O   -0.556543
    74  H    0.474781
 Sum of Mulliken charges =   1.00000

 Dipole moment (field-independent basis, Debye):
    X=             -7.2839    Y=             18.2991    Z=            -22.2296  Tot=             29.6996
 Quadrupole moment (field-independent basis, Debye-Ang):
   XX=           -163.0040   YY=           -133.4358   ZZ=           -111.6588
   XY=            -55.1493   XZ=             51.1871   YZ=            -69.4214

 Normal termination of Gaussian 16 at Sun Jul 17 02:38:33 2022.
