 Gaussian 16, Revision C.01,
 Gaussian 16:  ES64L-G16RevC.01  3-Jul-2019

 ----------------------------------------------------------------------
 # B3LYP/6-31G* empiricaldispersion=gd3bj guess=read geom=check nosymm
 integral(ultrafinegrid)
 ----------------------------------------------------------------------

 ------------------------------------------------------
 Candidate Structure: Conf:474 Charge calc in gas phase
 ------------------------------------------------------
 Structure from the checkpoint file:  "conf-474.chk"
 Charge =  1 Multiplicity = 1

                          Input orientation:
 ---------------------------------------------------------------------
 Center     Atomic      Atomic             Coordinates (Angstroms)
 Number     Number       Type             X           Y           Z
 ---------------------------------------------------------------------
      1          7           0       -6.926959    4.271621   -1.735602
      2          1           0       -7.481683    3.564929   -1.245962
      3          1           0       -7.143187    5.188054   -1.334706
      4          1           0       -7.158480    4.267591   -2.788979
      5          6           0       -5.456270    3.965143   -1.780205
      6          1           0       -4.890552    4.747644   -1.272883
      7          1           0       -5.266200    3.009277   -1.290095
      8          6           0       -5.150930    3.900489   -3.300329
      9          8           0       -6.116238    4.044080   -4.067442
     10          7           0       -3.891380    3.699448   -3.641304
     11          1           0       -3.143148    3.626929   -2.928967
     12          6           0       -3.452698    3.596024   -5.043614
     13          1           0       -3.851876    4.440172   -5.615933
     14          1           0       -3.800359    2.664429   -5.493079
     15          6           0       -1.922956    3.582725   -4.979495
     16          8           0       -1.278208    2.582559   -5.243923
     17          7           0       -1.386352    4.743428   -4.490950
     18          1           0       -2.040411    5.485527   -4.276115
     19          6           0       -0.198620    4.697276   -3.663546
     20          1           0        0.470989    3.917464   -4.040780
     21          1           0        0.350334    5.639517   -3.690284
     22          6           0       -0.564493    4.312031   -2.224087
     23          8           0       -1.609609    3.655779   -1.961510
     24          7           0        0.305555    4.669970   -1.286213
     25          1           0        1.148853    5.188688   -1.573843
     26          6           0        0.174386    4.238168    0.100506
     27          1           0        0.916349    4.788320    0.682013
     28          1           0       -0.828823    4.477440    0.465879
     29          6           0        0.470878    2.739552    0.203236
     30          8           0        1.605908    2.289572    0.087222
     31          7           0       -0.618058    1.936691    0.384494
     32          1           0       -1.523913    2.354430    0.226863
     33          6           0       -0.474032    0.493262    0.287823
     34          1           0       -1.445449    0.028863    0.480071
     35          1           0        0.228763    0.135623    1.042212
     36          6           0        0.078611    0.020405   -1.063673
     37          8           0        0.774376   -0.988782   -1.137508
     38          7           0       -0.257749    0.773829   -2.147222
     39          1           0       -0.726324    1.662298   -2.004278
     40          6           0        0.492061    0.624028   -3.392519
     41          1           0        0.549187   -0.436757   -3.645823
     42          1           0       -0.019807    1.171035   -4.182493
     43          6           0        1.879424    1.229170   -3.169780
     44          8           0        2.108343    2.424786   -3.383592
     45          7           0        2.803000    0.371709   -2.656400
     46          1           0        2.407003   -0.492934   -2.291647
     47          6           0        3.966866    0.886978   -1.939183
     48          1           0        3.653324    1.572845   -1.147142
     49          1           0        4.472026    0.038069   -1.469508
     50          6           0        4.979725    1.632821   -2.798033
     51          8           0        5.736620    2.457728   -2.283676
     52          7           0        5.003860    1.353534   -4.122058
     53          1           0        4.343180    0.681471   -4.486709
     54          6           0        5.844747    2.134644   -5.017491
     55          1           0        5.740961    1.733450   -6.029069
     56          1           0        6.893439    2.058952   -4.723045
     57          6           0        5.510593    3.637844   -5.024996
     58          8           0        6.359691    4.466955   -5.308950
     59          7           0        4.215289    3.942040   -4.714020
     60          1           0        3.595460    3.204977   -4.391093
     61          6           0        3.807115    5.292395   -4.394586
     62          1           0        2.940517    5.604894   -4.983669
     63          1           0        4.647332    5.953877   -4.629696
     64          6           0        3.425484    5.417107   -2.920006
     65          8           0        2.383742    6.002733   -2.566977
     66          7           0        4.269665    4.862989   -2.039521
     67          1           0        5.028870    4.268691   -2.364441
     68          6           0        3.930437    4.752620   -0.634041
     69          1           0        4.820035    4.386058   -0.113485
     70          1           0        3.125370    4.030924   -0.464479
     71          6           0        3.522085    6.075382   -0.008041
     72          8           0        2.582480    6.209464    0.751618
     73          8           0        4.353852    7.076181   -0.332208
     74          1           0        4.022133    7.876067    0.117706
 ---------------------------------------------------------------------

 SCF Done:  E(RB3LYP) =  -2157.09807276     A.U. after    3 cycles

 Alpha  occ. eigenvalues --  -19.29155 -19.26561 -19.24443 -19.23165 -19.21842
 Alpha  occ. eigenvalues --  -19.21676 -19.21245 -19.20601 -19.20247 -19.19482
 Alpha  occ. eigenvalues --  -19.17117 -14.62587 -14.51186 -14.47096 -14.46478
 Alpha  occ. eigenvalues --  -14.46408 -14.45070 -14.44911 -14.44370 -14.43349
 Alpha  occ. eigenvalues --  -14.41656 -10.45768 -10.43092 -10.40396 -10.40246
 Alpha  occ. eigenvalues --  -10.39564 -10.38608 -10.38200 -10.37852 -10.36911
 Alpha  occ. eigenvalues --  -10.36632 -10.35360 -10.34694 -10.32297 -10.32249
 Alpha  occ. eigenvalues --  -10.32023 -10.30918 -10.30693 -10.30203 -10.29751
 Alpha  occ. eigenvalues --  -10.29262  -1.21640  -1.17808  -1.16193  -1.15592
 Alpha  occ. eigenvalues --   -1.14662  -1.13709  -1.13271  -1.12236  -1.11689
 Alpha  occ. eigenvalues --   -1.11415  -1.09155  -1.08652  -1.08063  -1.03509
 Alpha  occ. eigenvalues --   -1.03027  -1.02813  -1.01734  -1.00798  -1.00384
 Alpha  occ. eigenvalues --   -1.00084  -0.97743  -0.92499  -0.87312  -0.85851
 Alpha  occ. eigenvalues --   -0.84483  -0.83342  -0.82376  -0.80572  -0.79106
 Alpha  occ. eigenvalues --   -0.77884  -0.76599  -0.76381  -0.76355  -0.73934
 Alpha  occ. eigenvalues --   -0.70711  -0.70121  -0.69655  -0.68598  -0.68314
 Alpha  occ. eigenvalues --   -0.67954  -0.67095  -0.66371  -0.65451  -0.65338
 Alpha  occ. eigenvalues --   -0.64683  -0.63803  -0.63127  -0.62819  -0.61994
 Alpha  occ. eigenvalues --   -0.61575  -0.61281  -0.60249  -0.59699  -0.59614
 Alpha  occ. eigenvalues --   -0.59042  -0.58636  -0.57864  -0.57306  -0.56957
 Alpha  occ. eigenvalues --   -0.56248  -0.55765  -0.55668  -0.55054  -0.54522
 Alpha  occ. eigenvalues --   -0.53937  -0.53831  -0.53221  -0.53176  -0.52419
 Alpha  occ. eigenvalues --   -0.52129  -0.51993  -0.51655  -0.51502  -0.51247
 Alpha  occ. eigenvalues --   -0.51072  -0.50774  -0.50493  -0.49785  -0.49576
 Alpha  occ. eigenvalues --   -0.48914  -0.48717  -0.48230  -0.47932  -0.47783
 Alpha  occ. eigenvalues --   -0.47124  -0.46771  -0.46438  -0.46267  -0.45906
 Alpha  occ. eigenvalues --   -0.45473  -0.45400  -0.44170  -0.44014  -0.43401
 Alpha  occ. eigenvalues --   -0.42009  -0.41283  -0.39489  -0.38883  -0.38569
 Alpha  occ. eigenvalues --   -0.37405  -0.37132  -0.36924  -0.36315  -0.36211
 Alpha  occ. eigenvalues --   -0.35579  -0.35344  -0.34570  -0.34428  -0.33775
 Alpha  occ. eigenvalues --   -0.33636  -0.33105  -0.32580  -0.31066  -0.30512
 Alpha virt. eigenvalues --   -0.14248  -0.13801  -0.10615  -0.09456  -0.08605
 Alpha virt. eigenvalues --   -0.08452  -0.08330  -0.06756  -0.06651  -0.06418
 Alpha virt. eigenvalues --   -0.06270  -0.05512  -0.03317  -0.03076  -0.02753

 Mulliken charges:
               1
     1  N   -0.751508
     2  H    0.423420
     3  H    0.423014
     4  H    0.442135
     5  C   -0.276195
     6  H    0.245463
     7  H    0.245933
     8  C    0.635741
     9  O   -0.524059
    10  N   -0.649618
    11  H    0.417372
    12  C   -0.205760
    13  H    0.205582
    14  H    0.220605
    15  C    0.543367
    16  O   -0.465874
    17  N   -0.542153
    18  H    0.329078
    19  C   -0.296661
    20  H    0.257998
    21  H    0.222990
    22  C    0.604733
    23  O   -0.618017
    24  N   -0.588562
    25  H    0.434896
    26  C   -0.261302
    27  H    0.249072
    28  H    0.154553
    29  C    0.600031
    30  O   -0.495453
    31  N   -0.578993
    32  H    0.332736
    33  C   -0.231672
    34  H    0.181546
    35  H    0.221959
    36  C    0.613964
    37  O   -0.526774
    38  N   -0.601871
    39  H    0.362204
    40  C   -0.273662
    41  H    0.191187
    42  H    0.234681
    43  C    0.590190
    44  O   -0.538545
    45  N   -0.598847
    46  H    0.382741
    47  C   -0.245869
    48  H    0.231858
    49  H    0.200402
    50  C    0.616706
    51  O   -0.545854
    52  N   -0.591703
    53  H    0.347683
    54  C   -0.223022
    55  H    0.187763
    56  H    0.216844
    57  C    0.590143
    58  O   -0.499158
    59  N   -0.625333
    60  H    0.385169
    61  C   -0.224197
    62  H    0.171859
    63  H    0.225688
    64  C    0.613955
    65  O   -0.584620
    66  N   -0.577485
    67  H    0.406994
    68  C   -0.244683
    69  H    0.209324
    70  H    0.215022
    71  C    0.601591
    72  O   -0.483059
    73  O   -0.538107
    74  H    0.420428
 Sum of Mulliken charges =   1.00000

 Dipole moment (field-independent basis, Debye):
    X=            -24.3037    Y=             17.9352    Z=             -7.2514  Tot=             31.0632
 Quadrupole moment (field-independent basis, Debye-Ang):
   XX=            -84.8057   YY=           -146.9740   ZZ=           -216.7420
   XY=           -117.9130   XZ=             32.7685   YZ=            -17.3511

 Normal termination of Gaussian 16 at Sun Jul 17 02:38:34 2022.
