 Gaussian 16, Revision C.01,
 Gaussian 16:  ES64L-G16RevC.01  3-Jul-2019

 ----------------------------------------------------------------------
 # B3LYP/6-31G* empiricaldispersion=gd3bj guess=read geom=check nosymm
 integral(ultrafinegrid)
 ----------------------------------------------------------------------

 ------------------------------------------------------
 Candidate Structure: Conf:796 Charge calc in gas phase
 ------------------------------------------------------
 Structure from the checkpoint file:  "conf-796.chk"
 Charge =  1 Multiplicity = 1

                          Input orientation:
 ---------------------------------------------------------------------
 Center     Atomic      Atomic             Coordinates (Angstroms)
 Number     Number       Type             X           Y           Z
 ---------------------------------------------------------------------
      1          7           0        1.737346   14.699645   -1.504948
      2          1           0        0.954350   15.236745   -1.886516
      3          1           0        1.566326   14.481055   -0.463459
      4          1           0        2.592368   15.251196   -1.614060
      5          6           0        1.842554   13.307928   -2.062587
      6          1           0        1.065182   13.149422   -2.811496
      7          1           0        2.821313   13.166469   -2.523348
      8          6           0        1.646299   12.406924   -0.814895
      9          8           0        1.460840   12.986810    0.266991
     10          7           0        1.693138   11.103686   -1.009319
     11          1           0        1.851439   10.660557   -1.922290
     12          6           0        1.534245   10.107976    0.037703
     13          1           0        0.552863   10.200119    0.515322
     14          1           0        2.298976   10.233558    0.811663
     15          6           0        1.681123    8.751586   -0.678420
     16          8           0        1.881473    8.727964   -1.896524
     17          7           0        1.576621    7.673594    0.099736
     18          1           0        1.419484    7.717933    1.106964
     19          6           0        1.698329    6.318428   -0.395375
     20          1           0        0.919939    6.100885   -1.136363
     21          1           0        2.667377    6.167812   -0.885513
     22          6           0        1.556472    5.400812    0.827780
     23          8           0        1.365144    5.878300    1.947239
     24          7           0        1.653797    4.086833    0.577694
     25          1           0        1.841540    3.710441   -0.347895
     26          6           0        1.579093    3.090483    1.622973
     27          1           0        2.299772    3.310740    2.419030
     28          1           0        0.583695    3.079319    2.084824
     29          6           0        1.879849    1.730611    0.989284
     30          8           0        2.056667    1.654880   -0.238513
     31          7           0        1.923072    0.701133    1.832375
     32          1           0        1.727108    0.803605    2.827445
     33          6           0        2.192874   -0.667653    1.439887
     34          1           0        3.220414   -0.777595    1.077928
     35          1           0        1.530837   -0.981197    0.627325
     36          6           0        1.963709   -1.536854    2.679538
     37          8           0        1.652843   -1.027686    3.758544
     38          7           0        2.137512   -2.855920    2.475248
     39          1           0        2.348898   -3.184362    1.527282
     40          6           0        1.900024   -3.817402    3.521110
     41          1           0        2.837147   -4.128095    4.005611
     42          1           0        1.284637   -3.337538    4.290915
     43          6           0        1.165713   -5.032941    2.962911
     44          8           0        0.415826   -4.961612    1.992710
     45          7           0        1.423022   -6.214709    3.590826
     46          1           0        1.985520   -6.212116    4.430797
     47          6           0        0.672689   -7.415839    3.243042
     48          1           0        0.915344   -8.194882    3.970508
     49          1           0       -0.403028   -7.227359    3.289307
     50          6           0        0.944603   -7.959463    1.832021
     51          8           0        0.132779   -8.693414    1.292558
     52          7           0        2.132363   -7.587793    1.272381
     53          1           0        2.707727   -6.930724    1.780093
     54          6           0        2.445739   -7.850620   -0.118168
     55          1           0        1.755848   -8.628337   -0.458924
     56          1           0        3.466921   -8.223461   -0.228663
     57          6           0        2.304522   -6.626972   -1.029000
     58          8           0        2.964034   -6.511710   -2.057558
     59          7           0        1.386865   -5.701255   -0.644143
     60          1           0        0.943288   -5.734851    0.267694
     61          6           0        1.254387   -4.492625   -1.419855
     62          1           0        0.400936   -3.929925   -1.031084
     63          1           0        1.062793   -4.740543   -2.468197
     64          6           0        2.488745   -3.601466   -1.286216
     65          8           0        2.946164   -3.278292   -0.182406
     66          7           0        3.030996   -3.135112   -2.425611
     67          1           0        2.735476   -3.525141   -3.308205
     68          6           0        4.166411   -2.233483   -2.375056
     69          1           0        4.443975   -1.975796   -3.401326
     70          1           0        5.025066   -2.703410   -1.888876
     71          6           0        3.872782   -0.942072   -1.611793
     72          8           0        4.709505   -0.373426   -0.942409
     73          8           0        2.621566   -0.508126   -1.797342
     74          1           0        2.488778    0.307938   -1.242904
 ---------------------------------------------------------------------

 SCF Done:  E(RB3LYP) =  -2157.07920689     A.U. after    2 cycles

 Alpha  occ. eigenvalues --  -19.28724 -19.22865 -19.22251 -19.20604 -19.20350
 Alpha  occ. eigenvalues --  -19.19364 -19.18232 -19.17737 -19.17450 -19.16173
 Alpha  occ. eigenvalues --  -19.15505 -14.62089 -14.51027 -14.46244 -14.44266
 Alpha  occ. eigenvalues --  -14.44201 -14.43462 -14.42621 -14.41393 -14.41059
 Alpha  occ. eigenvalues --  -14.39962 -10.45489 -10.42580 -10.40077 -10.37600
 Alpha  occ. eigenvalues --  -10.37300 -10.36501 -10.36082 -10.35485 -10.34916
 Alpha  occ. eigenvalues --  -10.34811 -10.33944 -10.32753 -10.32237 -10.30933
 Alpha  occ. eigenvalues --  -10.29490 -10.29254 -10.28637 -10.28595 -10.28213
 Alpha  occ. eigenvalues --  -10.27128  -1.21233  -1.15769  -1.14853  -1.13876
 Alpha  occ. eigenvalues --   -1.12553  -1.11733  -1.11484  -1.09985  -1.09502
 Alpha  occ. eigenvalues --   -1.08445  -1.07623  -1.07396  -1.04898  -1.02837
 Alpha  occ. eigenvalues --   -1.00756  -1.00152  -1.00042  -0.98706  -0.98101
 Alpha  occ. eigenvalues --   -0.97789  -0.96016  -0.92107  -0.86845  -0.84373
 Alpha  occ. eigenvalues --   -0.83060  -0.81668  -0.81057  -0.79081  -0.77517
 Alpha  occ. eigenvalues --   -0.76069  -0.75931  -0.75612  -0.74167  -0.73519
 Alpha  occ. eigenvalues --   -0.69717  -0.68196  -0.67649  -0.67463  -0.66818
 Alpha  occ. eigenvalues --   -0.66204  -0.64928  -0.64675  -0.63875  -0.63848
 Alpha  occ. eigenvalues --   -0.63156  -0.62805  -0.62590  -0.61176  -0.60009
 Alpha  occ. eigenvalues --   -0.59708  -0.59454  -0.58551  -0.58062  -0.56920
 Alpha  occ. eigenvalues --   -0.56799  -0.56097  -0.55844  -0.55669  -0.55137
 Alpha  occ. eigenvalues --   -0.54953  -0.54745  -0.54289  -0.53286  -0.52987
 Alpha  occ. eigenvalues --   -0.52922  -0.52442  -0.52098  -0.52064  -0.51123
 Alpha  occ. eigenvalues --   -0.50844  -0.50284  -0.50123  -0.49548  -0.49140
 Alpha  occ. eigenvalues --   -0.49104  -0.48231  -0.48111  -0.47952  -0.47648
 Alpha  occ. eigenvalues --   -0.47154  -0.46805  -0.46593  -0.45966  -0.45556
 Alpha  occ. eigenvalues --   -0.44980  -0.44905  -0.44102  -0.43844  -0.43831
 Alpha  occ. eigenvalues --   -0.43248  -0.42278  -0.42137  -0.41821  -0.41256
 Alpha  occ. eigenvalues --   -0.40998  -0.40100  -0.37553  -0.36206  -0.35620
 Alpha  occ. eigenvalues --   -0.35312  -0.34701  -0.34334  -0.34205  -0.33442
 Alpha  occ. eigenvalues --   -0.33244  -0.32909  -0.32782  -0.32143  -0.31979
 Alpha  occ. eigenvalues --   -0.31044  -0.30534  -0.29795  -0.29487  -0.28436
 Alpha virt. eigenvalues --   -0.13738  -0.13328  -0.08421  -0.07715  -0.06245
 Alpha virt. eigenvalues --   -0.06028  -0.05701  -0.05063  -0.04228  -0.03166
 Alpha virt. eigenvalues --   -0.03096  -0.02743  -0.02692  -0.01850  -0.01678

 Mulliken charges:
               1
     1  N   -0.750921
     2  H    0.423697
     3  H    0.441553
     4  H    0.423742
     5  C   -0.276999
     6  H    0.250048
     7  H    0.250063
     8  C    0.640718
     9  O   -0.524780
    10  N   -0.604744
    11  H    0.382062
    12  C   -0.212155
    13  H    0.216552
    14  H    0.216453
    15  C    0.621501
    16  O   -0.535175
    17  N   -0.621809
    18  H    0.370231
    19  C   -0.200855
    20  H    0.202330
    21  H    0.203341
    22  C    0.614253
    23  O   -0.531739
    24  N   -0.623597
    25  H    0.366688
    26  C   -0.197156
    27  H    0.204527
    28  H    0.202180
    29  C    0.638954
    30  O   -0.571276
    31  N   -0.613118
    32  H    0.367778
    33  C   -0.233319
    34  H    0.234536
    35  H    0.198579
    36  C    0.588678
    37  O   -0.539950
    38  N   -0.619423
    39  H    0.397265
    40  C   -0.212659
    41  H    0.165080
    42  H    0.221879
    43  C    0.590316
    44  O   -0.516715
    45  N   -0.614374
    46  H    0.345963
    47  C   -0.224993
    48  H    0.191013
    49  H    0.212280
    50  C    0.599441
    51  O   -0.497268
    52  N   -0.597368
    53  H    0.333137
    54  C   -0.229582
    55  H    0.225482
    56  H    0.185751
    57  C    0.589401
    58  O   -0.530584
    59  N   -0.603932
    60  H    0.403211
    61  C   -0.232729
    62  H    0.189998
    63  H    0.173319
    64  C    0.649888
    65  O   -0.555258
    66  N   -0.563771
    67  H    0.352723
    68  C   -0.207811
    69  H    0.183680
    70  H    0.206111
    71  C    0.596796
    72  O   -0.481625
    73  O   -0.608445
    74  H    0.462934
 Sum of Mulliken charges =   1.00000

 Dipole moment (field-independent basis, Debye):
    X=              9.1492    Y=             52.3499    Z=             -3.7825  Tot=             53.2779
 Quadrupole moment (field-independent basis, Debye-Ang):
   XX=           -222.5758   YY=            559.8973   ZZ=           -196.7310
   XY=             77.4900   XZ=             -1.1902   YZ=           -139.3130

 Normal termination of Gaussian 16 at Sun Jul 17 02:38:03 2022.
