 Gaussian 16, Revision C.01,
 Gaussian 16:  ES64L-G16RevC.01  3-Jul-2019

 ----------------------------------------------------------------------
 # B3LYP/6-31G* empiricaldispersion=gd3bj guess=read geom=check nosymm
 integral(ultrafinegrid)
 ----------------------------------------------------------------------

 ------------------------------------------------------
 Candidate Structure: Conf:234 Charge calc in gas phase
 ------------------------------------------------------
 Structure from the checkpoint file:  "conf-234.chk"
 Charge =  1 Multiplicity = 1

                          Input orientation:
 ---------------------------------------------------------------------
 Center     Atomic      Atomic             Coordinates (Angstroms)
 Number     Number       Type             X           Y           Z
 ---------------------------------------------------------------------
      1          7           0       -0.368686   -1.632001    0.416375
      2          1           0        0.575379   -1.250732    0.687999
      3          1           0       -0.845746   -1.877393    1.299101
      4          1           0       -0.254653   -2.462265   -0.167208
      5          6           0       -1.151713   -0.529233   -0.215568
      6          1           0       -0.508205   -0.005444   -0.919987
      7          1           0       -2.021033   -0.951285   -0.726565
      8          6           0       -1.612703    0.337954    0.964408
      9          8           0       -1.854205   -0.233259    2.030482
     10          7           0       -1.730195    1.657606    0.754792
     11          1           0       -1.336088    2.097285   -0.071217
     12          6           0       -2.089419    2.567529    1.829943
     13          1           0       -1.937352    2.058296    2.783967
     14          1           0       -3.146072    2.855347    1.756974
     15          6           0       -1.223398    3.827581    1.729816
     16          8           0       -0.665831    4.140885    0.684914
     17          7           0       -1.197889    4.558637    2.883162
     18          1           0       -1.451137    4.039810    3.718714
     19          6           0       -0.263135    5.667289    3.086224
     20          1           0       -0.016865    6.097938    2.117130
     21          1           0       -0.725245    6.426012    3.725201
     22          6           0        0.992806    5.054005    3.708238
     23          8           0        1.951873    4.713999    3.010269
     24          7           0        0.909224    4.722481    5.026942
     25          1           0        0.032362    4.924274    5.490736
     26          6           0        1.565802    3.486943    5.459321
     27          1           0        2.633055    3.539428    5.241797
     28          1           0        1.423597    3.374847    6.536355
     29          6           0        0.877129    2.332753    4.702252
     30          8           0       -0.350818    2.312384    4.593892
     31          7           0        1.700886    1.439027    4.102415
     32          1           0        2.706719    1.625012    4.128149
     33          6           0        1.213765    0.554208    3.061011
     34          1           0        0.140051    0.406384    3.200676
     35          1           0        1.689154   -0.425418    3.114574
     36          6           0        1.471047    1.078203    1.643204
     37          8           0        1.370882    0.322239    0.659475
     38          7           0        1.772582    2.373289    1.536902
     39          1           0        1.809647    2.934728    2.378568
     40          6           0        2.300111    3.016099    0.345468
     41          1           0        2.018898    2.440956   -0.534927
     42          1           0        1.872893    4.019370    0.276491
     43          6           0        3.832853    3.048775    0.428201
     44          8           0        4.542971    2.633077   -0.493070
     45          7           0        4.345398    3.504755    1.594966
     46          1           0        3.706720    3.856167    2.302375
     47          6           0        5.615252    3.011873    2.091030
     48          1           0        6.139520    2.533672    1.262972
     49          1           0        6.234564    3.834785    2.467274
     50          6           0        5.344734    2.042133    3.245946
     51          8           0        4.399787    2.243159    4.022055
     52          7           0        6.214880    1.025724    3.407906
     53          1           0        6.827886    0.783208    2.639804
     54          6           0        6.015658    0.011168    4.433522
     55          1           0        5.367904    0.442216    5.197018
     56          1           0        6.979411   -0.242644    4.883428
     57          6           0        5.450366   -1.268342    3.814081
     58          8           0        6.142226   -1.940920    3.050126
     59          7           0        4.179446   -1.603124    4.154043
     60          1           0        3.633675   -0.960642    4.710828
     61          6           0        3.528698   -2.806870    3.634807
     62          1           0        2.667351   -3.038823    4.260904
     63          1           0        4.245532   -3.631790    3.685651
     64          6           0        3.045472   -2.602087    2.190632
     65          8           0        1.850140   -2.427689    1.925631
     66          7           0        4.042156   -2.604754    1.278797
     67          1           0        4.983630   -2.588003    1.675371
     68          6           0        3.878426   -1.967933   -0.005337
     69          1           0        2.862306   -2.129464   -0.369571
     70          1           0        4.565106   -2.401397   -0.737437
     71          6           0        4.127059   -0.462905    0.093865
     72          8           0        4.343067    0.107383    1.152157
     73          8           0        4.079657    0.107072   -1.097941
     74          1           0        4.242484    1.091161   -0.994958
 ---------------------------------------------------------------------

 SCF Done:  E(RB3LYP) =  -2157.15130489     A.U. after    1 cycles

 Alpha  occ. eigenvalues --  -19.26402 -19.24625 -19.24547 -19.23510 -19.23445
 Alpha  occ. eigenvalues --  -19.23161 -19.23158 -19.22740 -19.22713 -19.22469
 Alpha  occ. eigenvalues --  -19.22340 -14.55724 -14.48671 -14.48142 -14.48067
 Alpha  occ. eigenvalues --  -14.47736 -14.47372 -14.46906 -14.46838 -14.45689
 Alpha  occ. eigenvalues --  -14.45390 -10.42075 -10.41266 -10.40684 -10.40469
 Alpha  occ. eigenvalues --  -10.40325 -10.40239 -10.40159 -10.39992 -10.39398
 Alpha  occ. eigenvalues --  -10.39331 -10.37635 -10.34090 -10.33960 -10.33593
 Alpha  occ. eigenvalues --  -10.33580 -10.33554 -10.32993 -10.32963 -10.32490
 Alpha  occ. eigenvalues --  -10.32449  -1.18395  -1.17082  -1.16642  -1.15477
 Alpha  occ. eigenvalues --   -1.15118  -1.14819  -1.14785  -1.14637  -1.13817
 Alpha  occ. eigenvalues --   -1.13734  -1.10518  -1.09571  -1.05101  -1.04807
 Alpha  occ. eigenvalues --   -1.04451  -1.03816  -1.03635  -1.03408  -1.03016
 Alpha  occ. eigenvalues --   -1.02311  -1.01722  -0.88640  -0.87842  -0.87271
 Alpha  occ. eigenvalues --   -0.86050  -0.85000  -0.83671  -0.82207  -0.81043
 Alpha  occ. eigenvalues --   -0.79657  -0.78726  -0.72320  -0.71789  -0.71554
 Alpha  occ. eigenvalues --   -0.71215  -0.70526  -0.70184  -0.69582  -0.69332
 Alpha  occ. eigenvalues --   -0.69177  -0.68692  -0.67812  -0.67485  -0.66155
 Alpha  occ. eigenvalues --   -0.65755  -0.64789  -0.64085  -0.62968  -0.62103
 Alpha  occ. eigenvalues --   -0.61386  -0.61133  -0.60642  -0.59802  -0.59627
 Alpha  occ. eigenvalues --   -0.59453  -0.59353  -0.58724  -0.58435  -0.58166
 Alpha  occ. eigenvalues --   -0.57608  -0.57340  -0.57077  -0.56475  -0.56231
 Alpha  occ. eigenvalues --   -0.55892  -0.55684  -0.55294  -0.55080  -0.54411
 Alpha  occ. eigenvalues --   -0.54105  -0.53524  -0.53057  -0.52729  -0.52519
 Alpha  occ. eigenvalues --   -0.52081  -0.51610  -0.51147  -0.51032  -0.50775
 Alpha  occ. eigenvalues --   -0.50571  -0.50344  -0.50007  -0.49880  -0.49633
 Alpha  occ. eigenvalues --   -0.48906  -0.48645  -0.48418  -0.48094  -0.47495
 Alpha  occ. eigenvalues --   -0.47338  -0.47052  -0.46863  -0.46564  -0.45223
 Alpha  occ. eigenvalues --   -0.40614  -0.40239  -0.39794  -0.39250  -0.39017
 Alpha  occ. eigenvalues --   -0.38882  -0.38726  -0.38523  -0.38372  -0.38208
 Alpha  occ. eigenvalues --   -0.37227  -0.37035  -0.36495  -0.36306  -0.36080
 Alpha  occ. eigenvalues --   -0.35493  -0.35200  -0.35002  -0.34824  -0.34701
 Alpha virt. eigenvalues --   -0.12250  -0.10896  -0.10485  -0.10001  -0.09228
 Alpha virt. eigenvalues --   -0.09135  -0.08695  -0.08239  -0.08112  -0.06805
 Alpha virt. eigenvalues --   -0.06121  -0.03711  -0.03397  -0.02536  -0.00969

 Mulliken charges:
               1
     1  N   -0.765148
     2  H    0.482744
     3  H    0.414143
     4  H    0.399511
     5  C   -0.255126
     6  H    0.227058
     7  H    0.226813
     8  C    0.623148
     9  O   -0.521470
    10  N   -0.587126
    11  H    0.364630
    12  C   -0.246460
    13  H    0.238392
    14  H    0.212252
    15  C    0.607172
    16  O   -0.512895
    17  N   -0.593269
    18  H    0.359501
    19  C   -0.233540
    20  H    0.226635
    21  H    0.190308
    22  C    0.590944
    23  O   -0.526191
    24  N   -0.534431
    25  H    0.346014
    26  C   -0.264770
    27  H    0.224877
    28  H    0.203239
    29  C    0.573922
    30  O   -0.532435
    31  N   -0.632031
    32  H    0.403482
    33  C   -0.291205
    34  H    0.240977
    35  H    0.199663
    36  C    0.656090
    37  O   -0.612519
    38  N   -0.607029
    39  H    0.394541
    40  C   -0.250188
    41  H    0.196881
    42  H    0.225382
    43  C    0.636558
    44  O   -0.550681
    45  N   -0.577116
    46  H    0.380615
    47  C   -0.238827
    48  H    0.207944
    49  H    0.205552
    50  C    0.643629
    51  O   -0.563001
    52  N   -0.559554
    53  H    0.361485
    54  C   -0.237702
    55  H    0.188767
    56  H    0.209017
    57  C    0.644102
    58  O   -0.529229
    59  N   -0.586971
    60  H    0.349509
    61  C   -0.249407
    62  H    0.191664
    63  H    0.211606
    64  C    0.613827
    65  O   -0.568029
    66  N   -0.555055
    67  H    0.387699
    68  C   -0.238974
    69  H    0.182970
    70  H    0.207735
    71  C    0.619310
    72  O   -0.525460
    73  O   -0.592286
    74  H    0.467815
 Sum of Mulliken charges =   1.00000

 Dipole moment (field-independent basis, Debye):
    X=              5.7327    Y=              3.7697    Z=             12.4787  Tot=             14.2405
 Quadrupole moment (field-independent basis, Debye-Ang):
   XX=           -181.5411   YY=           -179.7912   ZZ=           -168.1042
   XY=             -1.6799   XZ=             39.5927   YZ=             38.5460

 Normal termination of Gaussian 16 at Sun Jul 17 02:37:50 2022.
