 Gaussian 16, Revision C.01,
 Gaussian 16:  ES64L-G16RevC.01  3-Jul-2019

 ----------------------------------------------------------------------
 # B3LYP/6-31G* empiricaldispersion=gd3bj guess=read geom=check nosymm
 integral(ultrafinegrid)
 ----------------------------------------------------------------------

 -----------------------------------------------------
 Candidate Structure: Conf:81 Charge calc in gas phase
 -----------------------------------------------------
 Structure from the checkpoint file:  "conf-81.chk"
 Charge =  1 Multiplicity = 1

                          Input orientation:
 ---------------------------------------------------------------------
 Center     Atomic      Atomic             Coordinates (Angstroms)
 Number     Number       Type             X           Y           Z
 ---------------------------------------------------------------------
      1          7           0       -2.839504   -1.225642    1.219590
      2          1           0       -3.449117   -1.853485    0.692194
      3          1           0       -2.673847   -0.330991    0.652964
      4          1           0       -1.931827   -1.681003    1.424605
      5          6           0       -3.409001   -0.817545    2.537660
      6          1           0       -3.942905    0.126340    2.410961
      7          1           0       -4.086194   -1.591614    2.906087
      8          6           0       -2.206667   -0.663506    3.482228
      9          8           0       -1.127880   -1.165644    3.167713
     10          7           0       -2.471607    0.004719    4.624325
     11          1           0       -3.269944    0.635526    4.562632
     12          6           0       -1.380638    0.496414    5.474631
     13          1           0       -0.525415   -0.168466    5.369169
     14          1           0       -1.711723    0.513030    6.516681
     15          6           0       -1.044714    1.883634    4.924753
     16          8           0       -0.226588    2.023370    4.015919
     17          7           0       -1.837704    2.896729    5.371036
     18          1           0       -2.551518    2.652979    6.045348
     19          6           0       -2.174497    3.976887    4.457268
     20          1           0       -2.764799    4.725807    4.991544
     21          1           0       -1.267428    4.453846    4.081983
     22          6           0       -2.966790    3.400972    3.268057
     23          8           0       -3.577473    2.328715    3.358180
     24          7           0       -2.902951    4.114272    2.124522
     25          1           0       -2.174484    4.824808    2.069297
     26          6           0       -3.263958    3.453102    0.878046
     27          1           0       -4.294512    3.100684    0.912763
     28          1           0       -3.164539    4.172293    0.060913
     29          6           0       -2.369747    2.229792    0.623523
     30          8           0       -2.868840    1.168483    0.193818
     31          7           0       -1.076166    2.383371    0.904805
     32          1           0       -0.733682    3.297403    1.217737
     33          6           0       -0.118856    1.286941    0.836673
     34          1           0       -0.160183    0.822323   -0.154455
     35          1           0       -0.352736    0.532732    1.593288
     36          6           0        1.279575    1.866718    1.037028
     37          8           0        1.716321    2.728837    0.282318
     38          7           0        1.974859    1.380955    2.097125
     39          1           0        1.459087    0.876826    2.807323
     40          6           0        3.253167    1.990978    2.446684
     41          1           0        3.642212    1.485095    3.334449
     42          1           0        3.966201    1.864228    1.630824
     43          6           0        3.147739    3.505355    2.693211
     44          8           0        4.001176    4.280441    2.294271
     45          7           0        2.042018    3.906961    3.401709
     46          1           0        1.290739    3.239912    3.551301
     47          6           0        1.630435    5.300104    3.294250
     48          1           0        0.965679    5.554676    4.122377
     49          1           0        2.519964    5.929452    3.333837
     50          6           0        0.880295    5.431458    1.973278
     51          8           0       -0.307388    5.033462    1.881410
     52          7           0        1.580624    5.856313    0.930528
     53          1           0        2.577683    6.060651    1.008717
     54          6           0        1.097701    5.774172   -0.431751
     55          1           0        0.206299    6.397676   -0.564164
     56          1           0        0.837904    4.736553   -0.669827
     57          6           0        2.232990    6.257913   -1.339731
     58          8           0        3.301688    6.640273   -0.871772
     59          7           0        1.956769    6.232186   -2.658015
     60          1           0        1.113598    5.808183   -3.034188
     61          6           0        2.946542    6.569229   -3.653582
     62          1           0        3.880759    6.021283   -3.472365
     63          1           0        3.191292    7.638370   -3.623797
     64          6           0        2.371611    6.188275   -5.017504
     65          8           0        1.287327    5.622653   -5.118202
     66          7           0        3.132578    6.544950   -6.086537
     67          1           0        4.083107    6.844791   -5.913752
     68          6           0        2.811678    6.056264   -7.410234
     69          1           0        3.170570    6.761087   -8.166307
     70          1           0        1.725758    5.996201   -7.502471
     71          6           0        3.373425    4.680483   -7.753101
     72          8           0        3.114332    4.091710   -8.773976
     73          8           0        4.209308    4.205968   -6.800352
     74          1           0        4.515917    3.335656   -7.118821
 ---------------------------------------------------------------------

 SCF Done:  E(RB3LYP) =  -2157.11087917     A.U. after    1 cycles

 Alpha  occ. eigenvalues --  -19.27132 -19.26370 -19.25658 -19.24927 -19.24668
 Alpha  occ. eigenvalues --  -19.22127 -19.21619 -19.20114 -19.19844 -19.19353
 Alpha  occ. eigenvalues --  -19.19095 -14.57121 -14.50233 -14.49297 -14.47744
 Alpha  occ. eigenvalues --  -14.47361 -14.46159 -14.45290 -14.44113 -14.43788
 Alpha  occ. eigenvalues --  -14.43219 -10.43983 -10.42421 -10.41285 -10.41100
 Alpha  occ. eigenvalues --  -10.38933 -10.38817 -10.38564 -10.38526 -10.36941
 Alpha  occ. eigenvalues --  -10.36654 -10.36423 -10.35989 -10.34917 -10.34236
 Alpha  occ. eigenvalues --  -10.33724 -10.31450 -10.31437 -10.30879 -10.30480
 Alpha  occ. eigenvalues --  -10.30465  -1.19203  -1.17470  -1.17057  -1.16415
 Alpha  occ. eigenvalues --   -1.15604  -1.13877  -1.13242  -1.11994  -1.11923
 Alpha  occ. eigenvalues --   -1.11274  -1.10954  -1.08023  -1.07171  -1.05406
 Alpha  occ. eigenvalues --   -1.05171  -1.03295  -1.02447  -1.01654  -1.00565
 Alpha  occ. eigenvalues --   -0.99989  -0.99771  -0.90236  -0.88166  -0.86160
 Alpha  occ. eigenvalues --   -0.85084  -0.84095  -0.83104  -0.81666  -0.80336
 Alpha  occ. eigenvalues --   -0.78776  -0.76651  -0.73124  -0.72615  -0.72308
 Alpha  occ. eigenvalues --   -0.71761  -0.70659  -0.69573  -0.69231  -0.68935
 Alpha  occ. eigenvalues --   -0.68146  -0.67139  -0.66959  -0.66233  -0.65859
 Alpha  occ. eigenvalues --   -0.65478  -0.64386  -0.63391  -0.63074  -0.61878
 Alpha  occ. eigenvalues --   -0.61614  -0.61476  -0.60660  -0.59675  -0.59523
 Alpha  occ. eigenvalues --   -0.59045  -0.58115  -0.57537  -0.57336  -0.57085
 Alpha  occ. eigenvalues --   -0.56546  -0.56140  -0.55862  -0.55507  -0.54989
 Alpha  occ. eigenvalues --   -0.54687  -0.54593  -0.54305  -0.54002  -0.53808
 Alpha  occ. eigenvalues --   -0.53263  -0.53207  -0.52793  -0.52655  -0.52283
 Alpha  occ. eigenvalues --   -0.51699  -0.51297  -0.51158  -0.50998  -0.50381
 Alpha  occ. eigenvalues --   -0.50109  -0.49608  -0.49235  -0.48884  -0.47818
 Alpha  occ. eigenvalues --   -0.47672  -0.47192  -0.47005  -0.46661  -0.46474
 Alpha  occ. eigenvalues --   -0.46269  -0.45727  -0.45148  -0.44782  -0.42907
 Alpha  occ. eigenvalues --   -0.42542  -0.41394  -0.40640  -0.40148  -0.38407
 Alpha  occ. eigenvalues --   -0.38211  -0.38079  -0.37794  -0.37162  -0.36835
 Alpha  occ. eigenvalues --   -0.36642  -0.36395  -0.36045  -0.34989  -0.34269
 Alpha  occ. eigenvalues --   -0.33309  -0.33049  -0.32967  -0.32331  -0.31844
 Alpha virt. eigenvalues --   -0.14122  -0.11526  -0.10620  -0.09683  -0.08616
 Alpha virt. eigenvalues --   -0.08421  -0.08109  -0.05563  -0.05432  -0.05237
 Alpha virt. eigenvalues --   -0.04990  -0.04324  -0.02854  -0.01172  -0.00705

 Mulliken charges:
               1
     1  N   -0.767155
     2  H    0.406021
     3  H    0.458515
     4  H    0.410845
     5  C   -0.292226
     6  H    0.260718
     7  H    0.235526
     8  C    0.626820
     9  O   -0.510736
    10  N   -0.575589
    11  H    0.370286
    12  C   -0.243733
    13  H    0.225179
    14  H    0.195235
    15  C    0.595037
    16  O   -0.518761
    17  N   -0.541788
    18  H    0.346934
    19  C   -0.276423
    20  H    0.211122
    21  H    0.223035
    22  C    0.621005
    23  O   -0.561971
    24  N   -0.587801
    25  H    0.390286
    26  C   -0.233130
    27  H    0.211648
    28  H    0.206812
    29  C    0.620256
    30  O   -0.600224
    31  N   -0.605703
    32  H    0.418933
    33  C   -0.211720
    34  H    0.196229
    35  H    0.174388
    36  C    0.563273
    37  O   -0.498925
    38  N   -0.586289
    39  H    0.355402
    40  C   -0.234531
    41  H    0.188304
    42  H    0.218571
    43  C    0.602181
    44  O   -0.494468
    45  N   -0.613405
    46  H    0.379261
    47  C   -0.226462
    48  H    0.170177
    49  H    0.208054
    50  C    0.615144
    51  O   -0.611874
    52  N   -0.560594
    53  H    0.392719
    54  C   -0.213251
    55  H    0.184902
    56  H    0.210101
    57  C    0.613776
    58  O   -0.517338
    59  N   -0.624812
    60  H    0.357167
    61  C   -0.196476
    62  H    0.203087
    63  H    0.195649
    64  C    0.603948
    65  O   -0.519723
    66  N   -0.582787
    67  H    0.344813
    68  C   -0.243095
    69  H    0.205039
    70  H    0.232744
    71  C    0.587696
    72  O   -0.440015
    73  O   -0.566220
    74  H    0.420385
 Sum of Mulliken charges =   1.00000

 Dipole moment (field-independent basis, Debye):
    X=             -9.2169    Y=              6.8201    Z=             10.6520  Tot=             15.6503
 Quadrupole moment (field-independent basis, Debye-Ang):
   XX=           -188.7321   YY=           -161.9797   ZZ=           -153.9779
   XY=              8.2240   XZ=            -59.1086   YZ=             -8.7536

 Normal termination of Gaussian 16 at Sun Jul 17 02:37:51 2022.
