 Gaussian 16, Revision C.01,
 Gaussian 16:  ES64L-G16RevC.01  3-Jul-2019

 ----------------------------------------------------------------------
 # B3LYP/6-31G* empiricaldispersion=gd3bj guess=read geom=check nosymm
 integral(ultrafinegrid)
 ----------------------------------------------------------------------

 ------------------------------------------------------
 Candidate Structure: Conf:497 Charge calc in gas phase
 ------------------------------------------------------
 Structure from the checkpoint file:  "conf-497.chk"
 Charge =  1 Multiplicity = 1

                          Input orientation:
 ---------------------------------------------------------------------
 Center     Atomic      Atomic             Coordinates (Angstroms)
 Number     Number       Type             X           Y           Z
 ---------------------------------------------------------------------
      1          7           0       -3.868993    4.150865    0.774089
      2          1           0       -3.706053    3.410740    0.066763
      3          1           0       -4.836989    4.476233    0.798058
      4          1           0       -3.264173    4.954865    0.462805
      5          6           0       -3.403055    3.658508    2.110336
      6          1           0       -4.217972    3.111646    2.590305
      7          1           0       -2.561459    2.990093    1.928109
      8          6           0       -2.984292    4.879119    2.928941
      9          8           0       -3.551314    5.955995    2.759508
     10          7           0       -1.947827    4.667250    3.775348
     11          1           0       -1.374652    3.847058    3.582016
     12          6           0       -1.214328    5.813654    4.315017
     13          1           0       -0.720616    5.534571    5.245541
     14          1           0       -1.921617    6.624573    4.495504
     15          6           0       -0.151372    6.177573    3.271969
     16          8           0        1.018156    5.813697    3.406281
     17          7           0       -0.637571    6.807073    2.173459
     18          1           0       -1.639950    6.975724    2.138027
     19          6           0        0.027194    6.736318    0.883913
     20          1           0        0.175573    7.730759    0.453978
     21          1           0        1.006479    6.279182    1.014627
     22          6           0       -0.849933    5.905715   -0.054936
     23          8           0       -2.088947    6.039729   -0.015713
     24          7           0       -0.219619    5.076029   -0.889503
     25          1           0        0.790657    4.982479   -0.794715
     26          6           0       -0.914517    4.105761   -1.726982
     27          1           0       -1.881347    4.508583   -2.025910
     28          1           0       -0.295366    3.906227   -2.605501
     29          6           0       -1.132309    2.821913   -0.916164
     30          8           0       -2.252011    2.439113   -0.554892
     31          7           0        0.012503    2.181503   -0.586902
     32          1           0        0.889512    2.613445   -0.867876
     33          6           0        0.070874    1.244459    0.523250
     34          1           0        0.806860    0.464590    0.310182
     35          1           0       -0.912968    0.784128    0.627143
     36          6           0        0.402820    2.033704    1.798223
     37          8           0       -0.367160    2.917225    2.193815
     38          7           0        1.573197    1.733950    2.396434
     39          1           0        2.210665    1.121823    1.898549
     40          6           0        2.263740    2.672685    3.283106
     41          1           0        1.550092    3.406243    3.655714
     42          1           0        2.714883    2.130969    4.118564
     43          6           0        3.350170    3.294465    2.401838
     44          8           0        4.105910    2.565181    1.757516
     45          7           0        3.343600    4.639920    2.258365
     46          1           0        2.569943    5.178607    2.649936
     47          6           0        4.043235    5.159960    1.103903
     48          1           0        3.822353    6.227308    1.006890
     49          1           0        5.125404    5.038094    1.210391
     50          6           0        3.534416    4.444730   -0.151173
     51          8           0        2.341279    4.140099   -0.268177
     52          7           0        4.416153    4.198005   -1.145642
     53          1           0        5.404370    4.222899   -0.929902
     54          6           0        3.964820    3.404458   -2.285042
     55          1           0        3.602196    2.424612   -1.964302
     56          1           0        4.810959    3.266768   -2.963409
     57          6           0        2.814915    4.095112   -3.030013
     58          8           0        1.797217    3.488214   -3.347606
     59          7           0        3.059045    5.395009   -3.351184
     60          1           0        3.794322    5.861814   -2.835582
     61          6           0        2.023812    6.236097   -3.900309
     62          1           0        1.315925    5.591254   -4.426338
     63          1           0        2.458189    6.928290   -4.631305
     64          6           0        1.317008    7.047076   -2.804944
     65          8           0        1.796169    7.166362   -1.678038
     66          7           0        0.150648    7.612947   -3.193349
     67          1           0       -0.158149    7.518487   -4.151952
     68          6           0       -0.591164    8.529591   -2.347484
     69          1           0        0.101608    9.012116   -1.653341
     70          1           0       -1.342891    8.004252   -1.743730
     71          6           0       -1.325225    9.614971   -3.114399
     72          8           0       -1.892009   10.534542   -2.581343
     73          8           0       -1.301362    9.410556   -4.453476
     74          1           0       -1.810408   10.136801   -4.862052
 ---------------------------------------------------------------------

 SCF Done:  E(RB3LYP) =  -2157.14282535     A.U. after    2 cycles

 Alpha  occ. eigenvalues --  -19.29688 -19.24533 -19.23981 -19.23905 -19.23612
 Alpha  occ. eigenvalues --  -19.23260 -19.23230 -19.22889 -19.22557 -19.22502
 Alpha  occ. eigenvalues --  -19.21452 -14.54482 -14.48816 -14.47672 -14.47477
 Alpha  occ. eigenvalues --  -14.47335 -14.47110 -14.46886 -14.46691 -14.46280
 Alpha  occ. eigenvalues --  -14.45316 -10.42011 -10.41273 -10.40729 -10.40647
 Alpha  occ. eigenvalues --  -10.40615 -10.40522 -10.39804 -10.39663 -10.39651
 Alpha  occ. eigenvalues --  -10.38431 -10.35797 -10.34105 -10.33974 -10.33765
 Alpha  occ. eigenvalues --  -10.33645 -10.33471 -10.33448 -10.33093 -10.32839
 Alpha  occ. eigenvalues --  -10.32670  -1.20305  -1.16684  -1.16115  -1.15512
 Alpha  occ. eigenvalues --   -1.15318  -1.14771  -1.14655  -1.14177  -1.13889
 Alpha  occ. eigenvalues --   -1.13318  -1.11339  -1.09408  -1.05097  -1.04557
 Alpha  occ. eigenvalues --   -1.03979  -1.03662  -1.03428  -1.03121  -1.02848
 Alpha  occ. eigenvalues --   -1.02534  -1.02034  -0.88199  -0.87989  -0.87224
 Alpha  occ. eigenvalues --   -0.86233  -0.85133  -0.83466  -0.82259  -0.80777
 Alpha  occ. eigenvalues --   -0.79481  -0.78565  -0.72472  -0.72184  -0.71163
 Alpha  occ. eigenvalues --   -0.70510  -0.70111  -0.69795  -0.69633  -0.69239
 Alpha  occ. eigenvalues --   -0.68992  -0.68548  -0.68135  -0.67904  -0.65882
 Alpha  occ. eigenvalues --   -0.65122  -0.64615  -0.63825  -0.62945  -0.62171
 Alpha  occ. eigenvalues --   -0.61373  -0.61204  -0.60228  -0.60100  -0.59874
 Alpha  occ. eigenvalues --   -0.59629  -0.59278  -0.58703  -0.58075  -0.57757
 Alpha  occ. eigenvalues --   -0.57411  -0.57082  -0.57030  -0.56480  -0.56222
 Alpha  occ. eigenvalues --   -0.55908  -0.55591  -0.55111  -0.54710  -0.54256
 Alpha  occ. eigenvalues --   -0.54167  -0.53823  -0.53155  -0.52777  -0.52438
 Alpha  occ. eigenvalues --   -0.51908  -0.51618  -0.51480  -0.51079  -0.50890
 Alpha  occ. eigenvalues --   -0.50639  -0.50316  -0.49942  -0.49671  -0.49371
 Alpha  occ. eigenvalues --   -0.49103  -0.48746  -0.48427  -0.48316  -0.48140
 Alpha  occ. eigenvalues --   -0.47778  -0.47085  -0.46901  -0.46569  -0.45541
 Alpha  occ. eigenvalues --   -0.41485  -0.40224  -0.39763  -0.39387  -0.38921
 Alpha  occ. eigenvalues --   -0.38752  -0.38641  -0.38155  -0.38109  -0.37464
 Alpha  occ. eigenvalues --   -0.37301  -0.36578  -0.36261  -0.36187  -0.36030
 Alpha  occ. eigenvalues --   -0.35711  -0.35621  -0.35316  -0.34929  -0.34615
 Alpha virt. eigenvalues --   -0.11791  -0.11287  -0.10896  -0.10079  -0.09071
 Alpha virt. eigenvalues --   -0.08624  -0.08275  -0.07900  -0.07431  -0.07180
 Alpha virt. eigenvalues --   -0.04799  -0.03517  -0.02451  -0.01801  -0.00434

 Mulliken charges:
               1
     1  N   -0.774936
     2  H    0.427875
     3  H    0.400483
     4  H    0.458261
     5  C   -0.291869
     6  H    0.224981
     7  H    0.250575
     8  C    0.600080
     9  O   -0.516935
    10  N   -0.583428
    11  H    0.380574
    12  C   -0.243879
    13  H    0.199429
    14  H    0.214717
    15  C    0.597535
    16  O   -0.524330
    17  N   -0.574945
    18  H    0.379639
    19  C   -0.229222
    20  H    0.209941
    21  H    0.190665
    22  C    0.622427
    23  O   -0.592625
    24  N   -0.599364
    25  H    0.423570
    26  C   -0.282155
    27  H    0.187305
    28  H    0.236625
    29  C    0.627600
    30  O   -0.562436
    31  N   -0.564779
    32  H    0.382271
    33  C   -0.247491
    34  H    0.180776
    35  H    0.217588
    36  C    0.621058
    37  O   -0.548298
    38  N   -0.557864
    39  H    0.356274
    40  C   -0.253861
    41  H    0.210453
    42  H    0.201569
    43  C    0.599742
    44  O   -0.537278
    45  N   -0.597704
    46  H    0.413512
    47  C   -0.239851
    48  H    0.208273
    49  H    0.189903
    50  C    0.657504
    51  O   -0.566957
    52  N   -0.599889
    53  H    0.360306
    54  C   -0.225033
    55  H    0.201588
    56  H    0.199668
    57  C    0.607788
    58  O   -0.526635
    59  N   -0.548302
    60  H    0.346762
    61  C   -0.260977
    62  H    0.207673
    63  H    0.202175
    64  C    0.627620
    65  O   -0.547251
    66  N   -0.601737
    67  H    0.361344
    68  C   -0.235306
    69  H    0.224187
    70  H    0.214775
    71  C    0.585382
    72  O   -0.429485
    73  O   -0.578016
    74  H    0.432368
 Sum of Mulliken charges =   1.00000

 Dipole moment (field-independent basis, Debye):
    X=              1.4704    Y=             21.6527    Z=             -2.6036  Tot=             21.8582
 Quadrupole moment (field-independent basis, Debye-Ang):
   XX=           -165.6056   YY=           -117.4993   ZZ=           -182.3480
   XY=             16.0791   XZ=            -15.1593   YZ=            -43.4117

 Normal termination of Gaussian 16 at Sun Jul 17 02:38:16 2022.
