 Gaussian 16, Revision C.01,
 Gaussian 16:  ES64L-G16RevC.01  3-Jul-2019

 ----------------------------------------------------------------------
 # B3LYP/6-31G* empiricaldispersion=gd3bj guess=read geom=check nosymm
 integral(ultrafinegrid)
 ----------------------------------------------------------------------

 ------------------------------------------------------
 Candidate Structure: Conf:351 Charge calc in gas phase
 ------------------------------------------------------
 Structure from the checkpoint file:  "conf-351.chk"
 Charge =  1 Multiplicity = 1

                          Input orientation:
 ---------------------------------------------------------------------
 Center     Atomic      Atomic             Coordinates (Angstroms)
 Number     Number       Type             X           Y           Z
 ---------------------------------------------------------------------
      1          7           0        1.265733    5.701258   -3.842218
      2          1           0        2.276176    5.470447   -3.931856
      3          1           0        0.804135    4.899303   -3.338636
      4          1           0        0.853005    5.751537   -4.782670
      5          6           0        1.005436    7.005518   -3.184117
      6          1           0        1.085009    6.872138   -2.105628
      7          1           0        1.769722    7.706748   -3.529663
      8          6           0       -0.364008    7.460690   -3.685338
      9          8           0       -0.720878    7.161672   -4.820394
     10          7           0       -1.125292    8.179383   -2.819734
     11          1           0       -0.741551    8.430219   -1.918375
     12          6           0       -2.521248    8.516709   -3.120601
     13          1           0       -2.619857    8.664181   -4.195442
     14          1           0       -2.784936    9.437559   -2.593261
     15          6           0       -3.376429    7.307899   -2.708368
     16          8           0       -3.606949    6.387967   -3.473089
     17          7           0       -3.682732    7.247290   -1.371705
     18          1           0       -3.568743    8.059245   -0.781835
     19          6           0       -4.181430    6.011626   -0.793048
     20          1           0       -4.660144    6.220700    0.166396
     21          1           0       -4.930004    5.569666   -1.454985
     22          6           0       -3.100482    4.946950   -0.566173
     23          8           0       -3.388978    3.829177   -0.151093
     24          7           0       -1.818953    5.325999   -0.827424
     25          1           0       -1.659117    6.202734   -1.299182
     26          6           0       -0.732045    4.373520   -0.706821
     27          1           0        0.226946    4.896936   -0.703965
     28          1           0       -0.844598    3.843459    0.243152
     29          6           0       -0.700653    3.363932   -1.855290
     30          8           0        0.027523    3.516224   -2.853336
     31          7           0       -1.469221    2.276405   -1.712783
     32          1           0       -2.123545    2.249220   -0.936574
     33          6           0       -1.323223    1.149130   -2.625470
     34          1           0       -1.472493    1.474968   -3.658647
     35          1           0       -2.076262    0.401878   -2.372187
     36          6           0        0.069078    0.548254   -2.383794
     37          8           0        0.358452    0.080581   -1.282824
     38          7           0        0.961512    0.649214   -3.400299
     39          1           0        0.737217    1.293204   -4.147223
     40          6           0        2.366990    0.317946   -3.198371
     41          1           0        2.413190   -0.606079   -2.614057
     42          1           0        2.843514    0.145263   -4.163565
     43          6           0        3.181310    1.401666   -2.471500
     44          8           0        4.315247    1.705735   -2.837230
     45          7           0        2.561661    1.981340   -1.409545
     46          1           0        1.749975    1.505389   -1.025957
     47          6           0        3.255432    2.959238   -0.589579
     48          1           0        2.631501    3.177391    0.278106
     49          1           0        4.214901    2.558458   -0.242273
     50          6           0        3.488164    4.292089   -1.322248
     51          8           0        2.662451    5.210023   -1.305516
     52          7           0        4.706151    4.376562   -1.914876
     53          1           0        5.119406    3.477115   -2.157470
     54          6           0        5.140099    5.550811   -2.625717
     55          1           0        6.223309    5.667970   -2.514584
     56          1           0        4.657292    6.421215   -2.167193
     57          6           0        4.743235    5.550687   -4.099607
     58          8           0        3.777495    4.904279   -4.518606
     59          7           0        5.475948    6.336164   -4.920098
     60          1           0        6.161398    6.954981   -4.507683
     61          6           0        4.924169    6.698902   -6.209695
     62          1           0        4.760675    5.796792   -6.805335
     63          1           0        5.647858    7.326884   -6.736752
     64          6           0        3.598080    7.466106   -6.035173
     65          8           0        3.281082    7.962299   -4.952719
     66          7           0        2.836928    7.554401   -7.139906
     67          1           0        3.118677    7.142600   -8.024397
     68          6           0        1.606633    8.320059   -7.178184
     69          1           0        1.775304    9.357584   -6.867075
     70          1           0        0.843696    7.905906   -6.506984
     71          6           0        1.084518    8.290989   -8.600192
     72          8           0        1.618426    7.684676   -9.503785
     73          8           0       -0.037035    9.013105   -8.724513
     74          1           0       -0.324131    8.948939   -9.655747
 ---------------------------------------------------------------------

 SCF Done:  E(RB3LYP) =  -2157.11458396     A.U. after    1 cycles

 Alpha  occ. eigenvalues --  -19.29497 -19.24796 -19.24184 -19.24039 -19.23818
 Alpha  occ. eigenvalues --  -19.22698 -19.22602 -19.22238 -19.21934 -19.21329
 Alpha  occ. eigenvalues --  -19.21276 -14.51907 -14.50076 -14.48091 -14.47574
 Alpha  occ. eigenvalues --  -14.47147 -14.47078 -14.46970 -14.46266 -14.45936
 Alpha  occ. eigenvalues --  -14.45130 -10.42403 -10.42100 -10.40724 -10.40246
 Alpha  occ. eigenvalues --  -10.39912 -10.39664 -10.39298 -10.39257 -10.38695
 Alpha  occ. eigenvalues --  -10.38090 -10.35346 -10.34729 -10.34232 -10.33867
 Alpha  occ. eigenvalues --  -10.33643 -10.33506 -10.33177 -10.33091 -10.32546
 Alpha  occ. eigenvalues --  -10.31970  -1.20688  -1.17097  -1.16156  -1.15630
 Alpha  occ. eigenvalues --   -1.14658  -1.14369  -1.13917  -1.13747  -1.13492
 Alpha  occ. eigenvalues --   -1.12609  -1.11895  -1.07803  -1.05687  -1.04200
 Alpha  occ. eigenvalues --   -1.04079  -1.03345  -1.03306  -1.02734  -1.02460
 Alpha  occ. eigenvalues --   -1.02291  -1.01159  -0.88241  -0.88012  -0.86944
 Alpha  occ. eigenvalues --   -0.85954  -0.84679  -0.83355  -0.82140  -0.80838
 Alpha  occ. eigenvalues --   -0.79677  -0.78406  -0.72844  -0.72295  -0.71302
 Alpha  occ. eigenvalues --   -0.70585  -0.70373  -0.69617  -0.69461  -0.69113
 Alpha  occ. eigenvalues --   -0.68343  -0.68186  -0.67039  -0.66537  -0.65090
 Alpha  occ. eigenvalues --   -0.64860  -0.64481  -0.63336  -0.63022  -0.62425
 Alpha  occ. eigenvalues --   -0.61731  -0.61246  -0.60134  -0.59768  -0.59415
 Alpha  occ. eigenvalues --   -0.59044  -0.58970  -0.58658  -0.58396  -0.58366
 Alpha  occ. eigenvalues --   -0.57874  -0.57289  -0.56653  -0.56208  -0.55720
 Alpha  occ. eigenvalues --   -0.55160  -0.55114  -0.54538  -0.54519  -0.53688
 Alpha  occ. eigenvalues --   -0.53110  -0.53021  -0.52663  -0.52248  -0.52079
 Alpha  occ. eigenvalues --   -0.51633  -0.51404  -0.51195  -0.50835  -0.50741
 Alpha  occ. eigenvalues --   -0.50575  -0.50351  -0.49991  -0.49495  -0.49384
 Alpha  occ. eigenvalues --   -0.48799  -0.48462  -0.48381  -0.47993  -0.47888
 Alpha  occ. eigenvalues --   -0.47493  -0.46711  -0.46275  -0.45844  -0.45397
 Alpha  occ. eigenvalues --   -0.41754  -0.40304  -0.39619  -0.39146  -0.38989
 Alpha  occ. eigenvalues --   -0.38645  -0.38520  -0.38161  -0.37975  -0.37586
 Alpha  occ. eigenvalues --   -0.37336  -0.36627  -0.36352  -0.36089  -0.35747
 Alpha  occ. eigenvalues --   -0.35088  -0.34785  -0.34398  -0.34085  -0.33351
 Alpha virt. eigenvalues --   -0.11590  -0.10495  -0.10162  -0.08976  -0.08950
 Alpha virt. eigenvalues --   -0.08856  -0.08658  -0.07986  -0.07808  -0.06473
 Alpha virt. eigenvalues --   -0.06207  -0.03345  -0.02739  -0.02328  -0.01165

 Mulliken charges:
               1
     1  N   -0.806968
     2  H    0.453903
     3  H    0.441050
     4  H    0.392369
     5  C   -0.293795
     6  H    0.209187
     7  H    0.270662
     8  C    0.628521
     9  O   -0.495189
    10  N   -0.611389
    11  H    0.345839
    12  C   -0.229128
    13  H    0.233847
    14  H    0.180329
    15  C    0.571686
    16  O   -0.458030
    17  N   -0.612656
    18  H    0.340198
    19  C   -0.224044
    20  H    0.204043
    21  H    0.232491
    22  C    0.617796
    23  O   -0.519372
    24  N   -0.591522
    25  H    0.338598
    26  C   -0.272178
    27  H    0.205430
    28  H    0.201740
    29  C    0.634644
    30  O   -0.575143
    31  N   -0.558090
    32  H    0.388016
    33  C   -0.223858
    34  H    0.185423
    35  H    0.209131
    36  C    0.590450
    37  O   -0.520359
    38  N   -0.548567
    39  H    0.350341
    40  C   -0.252057
    41  H    0.222853
    42  H    0.198824
    43  C    0.601527
    44  O   -0.521387
    45  N   -0.595873
    46  H    0.380469
    47  C   -0.226377
    48  H    0.182647
    49  H    0.189435
    50  C    0.602520
    51  O   -0.551143
    52  N   -0.552991
    53  H    0.381376
    54  C   -0.264504
    55  H    0.187528
    56  H    0.217454
    57  C    0.640754
    58  O   -0.554494
    59  N   -0.550171
    60  H    0.353888
    61  C   -0.248688
    62  H    0.211252
    63  H    0.204063
    64  C    0.623987
    65  O   -0.548397
    66  N   -0.609965
    67  H    0.367041
    68  C   -0.209710
    69  H    0.210335
    70  H    0.221630
    71  C    0.576072
    72  O   -0.453342
    73  O   -0.552128
    74  H    0.432165
 Sum of Mulliken charges =   1.00000

 Dipole moment (field-independent basis, Debye):
    X=              6.1695    Y=             32.4820    Z=            -15.5254  Tot=             36.5265
 Quadrupole moment (field-independent basis, Debye-Ang):
   XX=           -167.4174   YY=             23.5865   ZZ=           -143.9941
   XY=             31.1009   XZ=            -39.3186   YZ=           -107.3986

 Normal termination of Gaussian 16 at Sun Jul 17 02:37:50 2022.
