 Gaussian 16, Revision C.01,
 Gaussian 16:  ES64L-G16RevC.01  3-Jul-2019

 ----------------------------------------------------------------------
 # B3LYP/6-31G* empiricaldispersion=gd3bj guess=read geom=check nosymm
 integral(ultrafinegrid)
 ----------------------------------------------------------------------

 ------------------------------------------------------
 Candidate Structure: Conf:549 Charge calc in gas phase
 ------------------------------------------------------
 Structure from the checkpoint file:  "conf-549.chk"
 Charge =  1 Multiplicity = 1

                          Input orientation:
 ---------------------------------------------------------------------
 Center     Atomic      Atomic             Coordinates (Angstroms)
 Number     Number       Type             X           Y           Z
 ---------------------------------------------------------------------
      1          7           0        0.434867   -2.376289    5.135400
      2          1           0       -0.160909   -2.279989    5.959833
      3          1           0        0.025609   -3.148155    4.485023
      4          1           0        1.388789   -2.675559    5.418279
      5          6           0        0.630213   -1.088304    4.403297
      6          1           0        0.219645   -1.198108    3.395572
      7          1           0        0.103649   -0.278644    4.911494
      8          6           0        2.151637   -0.852169    4.348784
      9          8           0        2.902183   -1.786900    4.660668
     10          7           0        2.565317    0.355044    3.968714
     11          1           0        1.925169    1.095492    3.694307
     12          6           0        3.978989    0.678971    3.842907
     13          1           0        4.521469   -0.217204    3.546371
     14          1           0        4.377785    1.032413    4.802260
     15          6           0        4.099992    1.793449    2.811077
     16          8           0        3.218849    2.648673    2.714344
     17          7           0        5.228394    1.768483    2.063569
     18          1           0        5.688225    0.870257    1.988052
     19          6           0        5.377206    2.664903    0.919785
     20          1           0        5.173115    3.686542    1.245857
     21          1           0        6.403988    2.602774    0.558291
     22          6           0        4.430977    2.227059   -0.204113
     23          8           0        4.745852    1.358789   -1.028187
     24          7           0        3.215540    2.811153   -0.177391
     25          1           0        2.983822    3.341528    0.655948
     26          6           0        2.145963    2.444951   -1.086423
     27          1           0        1.479554    3.296971   -1.231244
     28          1           0        2.592366    2.197000   -2.054210
     29          6           0        1.284719    1.247181   -0.678171
     30          8           0        0.177959    1.093232   -1.186073
     31          7           0        1.821725    0.368626    0.215557
     32          1           0        2.816475    0.396073    0.409233
     33          6           0        1.213532   -0.949063    0.357132
     34          1           0        0.131466   -0.834968    0.450394
     35          1           0        1.622195   -1.423296    1.249409
     36          6           0        1.568666   -1.841260   -0.834425
     37          8           0        2.503629   -2.648610   -0.766392
     38          7           0        0.850710   -1.631171   -1.951920
     39          1           0        0.114234   -0.934430   -1.924584
     40          6           0        1.038473   -2.437631   -3.154785
     41          1           0        0.596730   -1.914248   -4.001936
     42          1           0        2.110193   -2.578489   -3.321599
     43          6           0        0.315484   -3.778771   -2.973306
     44          8           0       -0.791095   -3.995023   -3.440241
     45          7           0        1.009186   -4.675146   -2.197398
     46          1           0        1.800389   -4.296205   -1.679811
     47          6           0        0.271068   -5.720330   -1.540953
     48          1           0       -0.566209   -6.000773   -2.188295
     49          1           0        0.904543   -6.600156   -1.385919
     50          6           0       -0.270197   -5.233897   -0.195187
     51          8           0       -0.281169   -4.057957    0.149866
     52          7           0       -0.694652   -6.212973    0.668577
     53          1           0       -0.813868   -7.163206    0.345128
     54          6           0       -1.250058   -5.808600    1.945230
     55          1           0       -1.524211   -6.701438    2.515004
     56          1           0       -2.137838   -5.179901    1.831212
     57          6           0       -0.241358   -4.985233    2.743319
     58          8           0       -0.655660   -4.096161    3.515041
     59          7           0        1.045233   -5.313062    2.577843
     60          1           0        1.262183   -5.936077    1.800056
     61          6           0        2.138247   -4.424320    2.890644
     62          1           0        2.656558   -4.707930    3.814746
     63          1           0        1.761800   -3.408156    3.017448
     64          6           0        3.119967   -4.443946    1.704835
     65          8           0        2.981020   -5.249648    0.792338
     66          7           0        4.111450   -3.528267    1.809171
     67          1           0        4.031937   -2.836579    2.546825
     68          6           0        4.945185   -3.155769    0.684791
     69          1           0        4.628366   -3.714439   -0.194693
     70          1           0        6.002703   -3.383050    0.874386
     71          6           0        4.813193   -1.667610    0.420018
     72          8           0        4.308483   -0.894845    1.237302
     73          8           0        5.352315   -1.287647   -0.717551
     74          1           0        5.229091   -0.305714   -0.839378
 ---------------------------------------------------------------------

 SCF Done:  E(RB3LYP) =  -2157.13180360     A.U. after    1 cycles

 Alpha  occ. eigenvalues --  -19.28668 -19.27489 -19.25627 -19.24876 -19.24873
 Alpha  occ. eigenvalues --  -19.23681 -19.22542 -19.21935 -19.21332 -19.20817
 Alpha  occ. eigenvalues --  -19.18235 -14.56891 -14.51106 -14.48733 -14.47711
 Alpha  occ. eigenvalues --  -14.47560 -14.46892 -14.46453 -14.45845 -14.44775
 Alpha  occ. eigenvalues --  -14.42040 -10.44662 -10.43037 -10.41814 -10.41748
 Alpha  occ. eigenvalues --  -10.40629 -10.40113 -10.39816 -10.38651 -10.38563
 Alpha  occ. eigenvalues --  -10.37745 -10.35577 -10.35310 -10.34655 -10.34400
 Alpha  occ. eigenvalues --  -10.34087 -10.32815 -10.32713 -10.32411 -10.30751
 Alpha  occ. eigenvalues --  -10.30202  -1.20745  -1.19585  -1.16848  -1.16771
 Alpha  occ. eigenvalues --   -1.15203  -1.14396  -1.13936  -1.13522  -1.12393
 Alpha  occ. eigenvalues --   -1.11871  -1.11699  -1.10076  -1.07270  -1.05144
 Alpha  occ. eigenvalues --   -1.05133  -1.03980  -1.03113  -1.02450  -1.01958
 Alpha  occ. eigenvalues --   -1.00821  -0.99032  -0.90664  -0.88014  -0.87575
 Alpha  occ. eigenvalues --   -0.85475  -0.85204  -0.83556  -0.82142  -0.81081
 Alpha  occ. eigenvalues --   -0.79581  -0.77214  -0.73865  -0.73039  -0.72789
 Alpha  occ. eigenvalues --   -0.72058  -0.71405  -0.70223  -0.69717  -0.69580
 Alpha  occ. eigenvalues --   -0.68890  -0.68507  -0.67303  -0.67180  -0.65153
 Alpha  occ. eigenvalues --   -0.64756  -0.64547  -0.63674  -0.63081  -0.62638
 Alpha  occ. eigenvalues --   -0.61839  -0.61596  -0.60881  -0.60488  -0.60259
 Alpha  occ. eigenvalues --   -0.59906  -0.59558  -0.59192  -0.58604  -0.58353
 Alpha  occ. eigenvalues --   -0.57940  -0.57719  -0.57498  -0.56525  -0.56198
 Alpha  occ. eigenvalues --   -0.55563  -0.55171  -0.54884  -0.54621  -0.54121
 Alpha  occ. eigenvalues --   -0.54073  -0.53267  -0.53002  -0.52764  -0.52662
 Alpha  occ. eigenvalues --   -0.52085  -0.51850  -0.51286  -0.50942  -0.50806
 Alpha  occ. eigenvalues --   -0.50432  -0.50160  -0.49848  -0.49635  -0.49318
 Alpha  occ. eigenvalues --   -0.48865  -0.48582  -0.47771  -0.47359  -0.46968
 Alpha  occ. eigenvalues --   -0.46437  -0.45916  -0.45800  -0.44755  -0.43989
 Alpha  occ. eigenvalues --   -0.42375  -0.42234  -0.40711  -0.40505  -0.40318
 Alpha  occ. eigenvalues --   -0.39515  -0.38941  -0.38633  -0.38367  -0.37613
 Alpha  occ. eigenvalues --   -0.36766  -0.36641  -0.36163  -0.35905  -0.35683
 Alpha  occ. eigenvalues --   -0.35364  -0.34406  -0.33545  -0.32613  -0.30931
 Alpha virt. eigenvalues --   -0.13128  -0.11333  -0.10320  -0.09978  -0.09705
 Alpha virt. eigenvalues --   -0.09317  -0.08386  -0.08112  -0.07306  -0.06753
 Alpha virt. eigenvalues --   -0.05335  -0.04431  -0.04249  -0.02661  -0.02045

 Mulliken charges:
               1
     1  N   -0.786632
     2  H    0.404030
     3  H    0.463459
     4  H    0.413531
     5  C   -0.268889
     6  H    0.250214
     7  H    0.227165
     8  C    0.630061
     9  O   -0.535718
    10  N   -0.595946
    11  H    0.372700
    12  C   -0.199736
    13  H    0.209128
    14  H    0.216512
    15  C    0.606850
    16  O   -0.535358
    17  N   -0.565305
    18  H    0.355146
    19  C   -0.246638
    20  H    0.205839
    21  H    0.207813
    22  C    0.594918
    23  O   -0.552454
    24  N   -0.560985
    25  H    0.375005
    26  C   -0.244296
    27  H    0.208452
    28  H    0.227732
    29  C    0.597489
    30  O   -0.515947
    31  N   -0.617153
    32  H    0.389037
    33  C   -0.244806
    34  H    0.197598
    35  H    0.155463
    36  C    0.638184
    37  O   -0.562136
    38  N   -0.572515
    39  H    0.378387
    40  C   -0.244131
    41  H    0.194652
    42  H    0.191978
    43  C    0.592253
    44  O   -0.492676
    45  N   -0.576124
    46  H    0.378845
    47  C   -0.256304
    48  H    0.222450
    49  H    0.183782
    50  C    0.619207
    51  O   -0.516804
    52  N   -0.624617
    53  H    0.352612
    54  C   -0.204668
    55  H    0.198841
    56  H    0.214203
    57  C    0.627761
    58  O   -0.592265
    59  N   -0.551617
    60  H    0.377410
    61  C   -0.231159
    62  H    0.199853
    63  H    0.151963
    64  C    0.633252
    65  O   -0.518820
    66  N   -0.598799
    67  H    0.351809
    68  C   -0.209674
    69  H    0.248990
    70  H    0.199324
    71  C    0.616503
    72  O   -0.557920
    73  O   -0.562897
    74  H    0.462590
 Sum of Mulliken charges =   1.00000

 Dipole moment (field-independent basis, Debye):
    X=             10.2325    Y=             -7.6584    Z=             18.2955  Tot=             22.3178
 Quadrupole moment (field-independent basis, Debye-Ang):
   XX=           -185.2313   YY=           -153.3871   ZZ=           -156.6837
   XY=             17.8036   XZ=             13.6693   YZ=            -38.3046

 Normal termination of Gaussian 16 at Sun Jul 17 02:37:51 2022.
