 Gaussian 16, Revision C.01,
 Gaussian 16:  ES64L-G16RevC.01  3-Jul-2019

 ----------------------------------------------------------------------
 # B3LYP/6-31G* empiricaldispersion=gd3bj guess=read geom=check nosymm
 integral(ultrafinegrid)
 ----------------------------------------------------------------------

 -----------------------------------------------------
 Candidate Structure: Conf:34 Charge calc in gas phase
 -----------------------------------------------------
 Structure from the checkpoint file:  "conf-34.chk"
 Charge =  1 Multiplicity = 1

                          Input orientation:
 ---------------------------------------------------------------------
 Center     Atomic      Atomic             Coordinates (Angstroms)
 Number     Number       Type             X           Y           Z
 ---------------------------------------------------------------------
      1          7           0       -0.458197   11.407338    3.175672
      2          1           0       -0.734263   12.393894    3.172682
      3          1           0       -0.429579   11.029613    4.168583
      4          1           0        0.481382   11.336936    2.771559
      5          6           0       -1.456181   10.497370    2.513253
      6          1           0       -2.372276   11.059227    2.318539
      7          1           0       -1.054467   10.127526    1.568442
      8          6           0       -1.701345    9.382593    3.562140
      9          8           0       -1.194403    9.536490    4.674487
     10          7           0       -2.453443    8.342208    3.183911
     11          1           0       -2.848074    8.331149    2.250535
     12          6           0       -2.865622    7.285377    4.116586
     13          1           0       -3.925106    7.071630    3.963019
     14          1           0       -2.739666    7.666242    5.132457
     15          6           0       -2.099725    5.958804    4.014325
     16          8           0       -2.538909    4.978924    4.601288
     17          7           0       -0.947016    5.965443    3.306937
     18          1           0       -0.682525    6.785819    2.784813
     19          6           0       -0.115717    4.770214    3.194741
     20          1           0        0.889520    5.073201    2.902907
     21          1           0       -0.076396    4.282755    4.172726
     22          6           0       -0.626607    3.796596    2.126064
     23          8           0       -0.061599    3.707495    1.022520
     24          7           0       -1.723458    3.077973    2.460093
     25          1           0       -2.085981    3.156214    3.403088
     26          6           0       -2.145099    1.991574    1.599020
     27          1           0       -2.982616    1.477972    2.077216
     28          1           0       -2.489643    2.385799    0.636682
     29          6           0       -0.976988    1.005272    1.417017
     30          8           0       -0.250338    0.711194    2.344232
     31          7           0       -0.827815    0.520849    0.153609
     32          1           0       -1.395824    0.908394   -0.587135
     33          6           0        0.336816   -0.257687   -0.218185
     34          1           0        0.082567   -0.972656   -1.004004
     35          1           0        0.661427   -0.823192    0.658864
     36          6           0        1.531065    0.574945   -0.698560
     37          8           0        2.497025    0.014349   -1.221811
     38          7           0        1.449072    1.909153   -0.499451
     39          1           0        0.652695    2.311245   -0.015939
     40          6           0        2.580048    2.799854   -0.718701
     41          1           0        2.394361    3.715467   -0.158776
     42          1           0        3.493960    2.321836   -0.346683
     43          6           0        2.783101    3.194627   -2.185773
     44          8           0        2.659994    4.364284   -2.560853
     45          7           0        3.122908    2.174120   -3.001824
     46          1           0        3.197249    1.244523   -2.587565
     47          6           0        3.357303    2.367149   -4.427248
     48          1           0        3.315247    1.397579   -4.922879
     49          1           0        2.578767    3.022241   -4.831682
     50          6           0        4.748223    2.965857   -4.681888
     51          8           0        5.688598    2.279863   -5.087066
     52          7           0        4.843953    4.286576   -4.392376
     53          1           0        4.070475    4.695568   -3.868407
     54          6           0        6.122191    4.985084   -4.428177
     55          1           0        5.936328    6.058063   -4.478617
     56          1           0        6.661837    4.666427   -5.324930
     57          6           0        6.961685    4.713557   -3.170315
     58          8           0        7.134398    5.559659   -2.304669
     59          7           0        7.466704    3.444056   -3.115813
     60          1           0        7.161041    2.793467   -3.837900
     61          6           0        8.158667    2.946915   -1.943650
     62          1           0        7.710584    2.011934   -1.593001
     63          1           0        8.046749    3.694954   -1.153750
     64          6           0        9.657195    2.688377   -2.127582
     65          8           0       10.302149    2.077586   -1.282925
     66          7           0       10.200042    3.198406   -3.258639
     67          1           0        9.628773    3.695359   -3.929999
     68          6           0       11.603186    3.059580   -3.547255
     69          1           0       11.906142    2.005108   -3.576641
     70          1           0       12.225433    3.531152   -2.775263
     71          6           0       11.894154    3.702879   -4.883112
     72          8           0       11.075207    4.249290   -5.576749
     73          8           0       13.194086    3.594176   -5.210929
     74          1           0       13.301561    4.028858   -6.078023
 ---------------------------------------------------------------------

 SCF Done:  E(RB3LYP) =  -2157.02966385     A.U. after    1 cycles

 Alpha  occ. eigenvalues --  -19.32491 -19.24381 -19.24170 -19.22391 -19.19258
 Alpha  occ. eigenvalues --  -19.18813 -19.17928 -19.17839 -19.16713 -19.15291
 Alpha  occ. eigenvalues --  -19.13532 -14.65665 -14.56010 -14.49778 -14.46168
 Alpha  occ. eigenvalues --  -14.44452 -14.42129 -14.41613 -14.40569 -14.39342
 Alpha  occ. eigenvalues --  -14.38824 -10.49617 -10.46216 -10.42241 -10.39377
 Alpha  occ. eigenvalues --  -10.38222 -10.36807 -10.36793 -10.35215 -10.34669
 Alpha  occ. eigenvalues --  -10.34264 -10.33661 -10.32427 -10.32309 -10.31165
 Alpha  occ. eigenvalues --  -10.29723 -10.28766 -10.28174 -10.27155 -10.26960
 Alpha  occ. eigenvalues --  -10.25730  -1.25077  -1.19401  -1.16729  -1.15528
 Alpha  occ. eigenvalues --   -1.13775  -1.11944  -1.11743  -1.10035  -1.09308
 Alpha  occ. eigenvalues --   -1.08351  -1.07093  -1.06742  -1.05625  -1.05459
 Alpha  occ. eigenvalues --   -1.02264  -1.00946  -0.98488  -0.97730  -0.96928
 Alpha  occ. eigenvalues --   -0.96207  -0.95605  -0.94734  -0.89353  -0.85670
 Alpha  occ. eigenvalues --   -0.83051  -0.81553  -0.80092  -0.79603  -0.79199
 Alpha  occ. eigenvalues --   -0.78945  -0.77957  -0.77383  -0.75521  -0.73303
 Alpha  occ. eigenvalues --   -0.72843  -0.71582  -0.69442  -0.68290  -0.67134
 Alpha  occ. eigenvalues --   -0.66775  -0.66129  -0.65798  -0.64999  -0.64664
 Alpha  occ. eigenvalues --   -0.64101  -0.62828  -0.62401  -0.61984  -0.61609
 Alpha  occ. eigenvalues --   -0.61472  -0.59931  -0.59171  -0.58653  -0.58233
 Alpha  occ. eigenvalues --   -0.58158  -0.57906  -0.56900  -0.56544  -0.56150
 Alpha  occ. eigenvalues --   -0.55398  -0.54678  -0.53675  -0.53330  -0.53094
 Alpha  occ. eigenvalues --   -0.52626  -0.52516  -0.52301  -0.51556  -0.51048
 Alpha  occ. eigenvalues --   -0.50820  -0.50623  -0.50250  -0.50043  -0.49453
 Alpha  occ. eigenvalues --   -0.48921  -0.47896  -0.47696  -0.47252  -0.47171
 Alpha  occ. eigenvalues --   -0.47052  -0.46812  -0.46582  -0.45839  -0.45719
 Alpha  occ. eigenvalues --   -0.45218  -0.45079  -0.44516  -0.44070  -0.43773
 Alpha  occ. eigenvalues --   -0.43317  -0.42933  -0.42634  -0.42453  -0.42159
 Alpha  occ. eigenvalues --   -0.40945  -0.39835  -0.38259  -0.38085  -0.36601
 Alpha  occ. eigenvalues --   -0.36476  -0.35761  -0.35239  -0.33879  -0.33094
 Alpha  occ. eigenvalues --   -0.32931  -0.32871  -0.32104  -0.31214  -0.30667
 Alpha  occ. eigenvalues --   -0.30172  -0.29318  -0.28357  -0.28053  -0.26675
 Alpha virt. eigenvalues --   -0.17788  -0.16135  -0.11359  -0.11033  -0.10733
 Alpha virt. eigenvalues --   -0.09118  -0.06785  -0.06122  -0.05723  -0.04812
 Alpha virt. eigenvalues --   -0.04782  -0.03848  -0.03209  -0.03062  -0.02986

 Mulliken charges:
               1
     1  N   -0.744801
     2  H    0.433676
     3  H    0.446019
     4  H    0.433369
     5  C   -0.283902
     6  H    0.261611
     7  H    0.250411
     8  C    0.623739
     9  O   -0.490121
    10  N   -0.604982
    11  H    0.368774
    12  C   -0.245861
    13  H    0.224233
    14  H    0.248709
    15  C    0.620213
    16  O   -0.499603
    17  N   -0.582542
    18  H    0.328648
    19  C   -0.244538
    20  H    0.196414
    21  H    0.219553
    22  C    0.616870
    23  O   -0.533586
    24  N   -0.561424
    25  H    0.376809
    26  C   -0.233873
    27  H    0.199701
    28  H    0.167431
    29  C    0.596554
    30  O   -0.492206
    31  N   -0.598370
    32  H    0.336390
    33  C   -0.230611
    34  H    0.193524
    35  H    0.230207
    36  C    0.607600
    37  O   -0.538448
    38  N   -0.618435
    39  H    0.400315
    40  C   -0.231923
    41  H    0.178399
    42  H    0.192723
    43  C    0.595303
    44  O   -0.545217
    45  N   -0.588953
    46  H    0.387307
    47  C   -0.229089
    48  H    0.189341
    49  H    0.180873
    50  C    0.590584
    51  O   -0.528971
    52  N   -0.584264
    53  H    0.377750
    54  C   -0.236368
    55  H    0.176078
    56  H    0.192963
    57  C    0.576427
    58  O   -0.508054
    59  N   -0.625951
    60  H    0.376040
    61  C   -0.226848
    62  H    0.179749
    63  H    0.209325
    64  C    0.601762
    65  O   -0.524994
    66  N   -0.610570
    67  H    0.356914
    68  C   -0.169557
    69  H    0.205447
    70  H    0.203305
    71  C    0.562406
    72  O   -0.458276
    73  O   -0.559540
    74  H    0.418411
 Sum of Mulliken charges =   1.00000

 Dipole moment (field-independent basis, Debye):
    X=            -13.7288    Y=             51.3999    Z=             11.2064  Tot=             54.3693
 Quadrupole moment (field-independent basis, Debye-Ang):
   XX=           -234.6089   YY=            325.4504   ZZ=           -195.1773
   XY=            -67.7446   XZ=            -33.5933   YZ=            140.7249

 Normal termination of Gaussian 16 at Sun Jul 17 02:31:06 2022.
