 Gaussian 16, Revision C.01,
 Gaussian 16:  ES64L-G16RevC.01  3-Jul-2019

 ----------------------------------------------------------------------
 # B3LYP/6-31G* empiricaldispersion=gd3bj guess=read geom=check nosymm
 integral(ultrafinegrid)
 ----------------------------------------------------------------------

 ------------------------------------------------------
 Candidate Structure: Conf:446 Charge calc in gas phase
 ------------------------------------------------------
 Structure from the checkpoint file:  "conf-446.chk"
 Charge =  1 Multiplicity = 1

                          Input orientation:
 ---------------------------------------------------------------------
 Center     Atomic      Atomic             Coordinates (Angstroms)
 Number     Number       Type             X           Y           Z
 ---------------------------------------------------------------------
      1          7           0        3.747529    3.753406   -1.530472
      2          1           0        4.067037    4.270433   -2.352614
      3          1           0        4.181625    2.787281   -1.524637
      4          1           0        2.708843    3.562827   -1.623230
      5          6           0        4.044034    4.495029   -0.275380
      6          1           0        5.112886    4.721910   -0.240096
      7          1           0        3.483333    5.433998   -0.281241
      8          6           0        3.622692    3.610066    0.902761
      9          8           0        3.059022    2.537438    0.694537
     10          7           0        3.909549    4.071603    2.130736
     11          1           0        4.320653    4.985960    2.258389
     12          6           0        3.516848    3.309258    3.313256
     13          1           0        3.635458    3.957118    4.182822
     14          1           0        4.171382    2.446999    3.452584
     15          6           0        2.057721    2.881088    3.179131
     16          8           0        1.180679    3.723465    2.899814
     17          7           0        1.799057    1.581674    3.352431
     18          1           0        2.518772    0.982552    3.754443
     19          6           0        0.438135    1.085744    3.221665
     20          1           0        0.367724    0.109366    3.699265
     21          1           0       -0.246093    1.777475    3.719683
     22          6           0        0.110177    0.956128    1.731973
     23          8           0        0.240624   -0.121161    1.116819
     24          7           0       -0.290041    2.098053    1.141001
     25          1           0       -0.117021    2.950886    1.675036
     26          6           0       -0.610931    2.195519   -0.275604
     27          1           0       -1.308635    1.394083   -0.536199
     28          1           0       -1.092748    3.156644   -0.453485
     29          6           0        0.630072    2.122112   -1.174757
     30          8           0        1.126015    3.143843   -1.673102
     31          7           0        1.076166    0.867175   -1.383794
     32          1           0        0.679328    0.168894   -0.752323
     33          6           0        2.278492    0.548697   -2.133437
     34          1           0        2.455679    1.335570   -2.866212
     35          1           0        2.117113   -0.387822   -2.679193
     36          6           0        3.515602    0.419282   -1.233441
     37          8           0        4.503179    1.159056   -1.346191
     38          7           0        3.434488   -0.537616   -0.294389
     39          1           0        2.676420   -1.206049   -0.331759
     40          6           0        4.392852   -0.665613    0.795092
     41          1           0        5.341930   -1.086950    0.453624
     42          1           0        4.590266    0.335941    1.192284
     43          6           0        3.882165   -1.565050    1.917181
     44          8           0        4.686032   -2.197847    2.601311
     45          7           0        2.537952   -1.636640    2.089474
     46          1           0        1.890887   -0.977340    1.654977
     47          6           0        1.956363   -2.542571    3.076600
     48          1           0        0.905354   -2.685111    2.826111
     49          1           0        2.483382   -3.499351    3.025437
     50          6           0        2.027985   -1.959730    4.492602
     51          8           0        1.058773   -1.431177    5.029524
     52          7           0        3.252837   -2.062172    5.079696
     53          1           0        4.025253   -2.306145    4.459790
     54          6           0        3.527249   -1.333104    6.288716
     55          1           0        4.194552   -1.909989    6.938696
     56          1           0        2.574650   -1.193309    6.810745
     57          6           0        4.122732    0.048266    6.001611
     58          8           0        4.016148    0.604030    4.908692
     59          7           0        4.764523    0.636581    7.047050
     60          1           0        4.957819    0.079587    7.868531
     61          6           0        5.479986    1.893755    6.869332
     62          1           0        6.068630    1.868900    5.950003
     63          1           0        6.161300    2.022269    7.715189
     64          6           0        4.578176    3.129229    6.773673
     65          8           0        4.888336    4.068881    6.049708
     66          7           0        3.482792    3.135796    7.584282
     67          1           0        3.153351    2.238955    7.917771
     68          6           0        2.487747    4.182416    7.417089
     69          1           0        2.995837    5.135149    7.274630
     70          1           0        1.869130    4.238355    8.317558
     71          6           0        1.604119    3.859991    6.215289
     72          8           0        1.226066    2.731578    5.971621
     73          8           0        1.348535    4.930718    5.454576
     74          1           0        0.919116    4.619373    4.622301
 ---------------------------------------------------------------------

 SCF Done:  E(RB3LYP) =  -2157.14591217     A.U. after    3 cycles

 Alpha  occ. eigenvalues --  -19.27134 -19.24612 -19.24525 -19.24476 -19.23612
 Alpha  occ. eigenvalues --  -19.23520 -19.22076 -19.22053 -19.21754 -19.21051
 Alpha  occ. eigenvalues --  -19.20525 -14.54801 -14.48656 -14.48549 -14.47938
 Alpha  occ. eigenvalues --  -14.47809 -14.46779 -14.46091 -14.45623 -14.45433
 Alpha  occ. eigenvalues --  -14.44373 -10.42053 -10.41450 -10.41116 -10.40208
 Alpha  occ. eigenvalues --  -10.40114 -10.39821 -10.39296 -10.39033 -10.38273
 Alpha  occ. eigenvalues --  -10.38248 -10.37482 -10.35065 -10.33724 -10.33269
 Alpha  occ. eigenvalues --  -10.33038 -10.32592 -10.32452 -10.31754 -10.31752
 Alpha  occ. eigenvalues --  -10.31222  -1.18451  -1.17244  -1.16186  -1.15679
 Alpha  occ. eigenvalues --   -1.15232  -1.14670  -1.13778  -1.13347  -1.12943
 Alpha  occ. eigenvalues --   -1.12208  -1.10043  -1.09599  -1.05440  -1.04628
 Alpha  occ. eigenvalues --   -1.04246  -1.03870  -1.03155  -1.02038  -1.01918
 Alpha  occ. eigenvalues --   -1.01425  -1.01040  -0.88698  -0.88314  -0.86772
 Alpha  occ. eigenvalues --   -0.85825  -0.84235  -0.83131  -0.81886  -0.80693
 Alpha  occ. eigenvalues --   -0.79097  -0.78247  -0.72291  -0.72154  -0.71354
 Alpha  occ. eigenvalues --   -0.70902  -0.70633  -0.70024  -0.69419  -0.68821
 Alpha  occ. eigenvalues --   -0.68509  -0.67577  -0.66972  -0.66823  -0.66227
 Alpha  occ. eigenvalues --   -0.64585  -0.64296  -0.63736  -0.62687  -0.61816
 Alpha  occ. eigenvalues --   -0.61413  -0.61283  -0.60477  -0.60218  -0.59793
 Alpha  occ. eigenvalues --   -0.59230  -0.58719  -0.58615  -0.58346  -0.58176
 Alpha  occ. eigenvalues --   -0.56809  -0.56608  -0.56477  -0.56024  -0.55883
 Alpha  occ. eigenvalues --   -0.55280  -0.54776  -0.54363  -0.54310  -0.53607
 Alpha  occ. eigenvalues --   -0.53465  -0.52841  -0.52819  -0.52550  -0.52282
 Alpha  occ. eigenvalues --   -0.51666  -0.51365  -0.50985  -0.50776  -0.50218
 Alpha  occ. eigenvalues --   -0.50178  -0.50082  -0.49350  -0.49072  -0.48725
 Alpha  occ. eigenvalues --   -0.48505  -0.48478  -0.47907  -0.47403  -0.47292
 Alpha  occ. eigenvalues --   -0.47015  -0.46647  -0.45935  -0.45721  -0.44820
 Alpha  occ. eigenvalues --   -0.40945  -0.40186  -0.40019  -0.39031  -0.38567
 Alpha  occ. eigenvalues --   -0.38458  -0.38403  -0.37866  -0.37692  -0.37343
 Alpha  occ. eigenvalues --   -0.36614  -0.36540  -0.36153  -0.35732  -0.35456
 Alpha  occ. eigenvalues --   -0.34924  -0.34778  -0.34411  -0.34076  -0.33067
 Alpha virt. eigenvalues --   -0.11555  -0.10551  -0.10181  -0.09681  -0.09154
 Alpha virt. eigenvalues --   -0.08522  -0.08258  -0.08033  -0.07127  -0.06837
 Alpha virt. eigenvalues --   -0.06570  -0.03601  -0.02940  -0.02630  -0.00224

 Mulliken charges:
               1
     1  N   -0.803518
     2  H    0.392236
     3  H    0.446360
     4  H    0.454839
     5  C   -0.280358
     6  H    0.222742
     7  H    0.231083
     8  C    0.650615
     9  O   -0.532807
    10  N   -0.587709
    11  H    0.357633
    12  C   -0.254077
    13  H    0.231649
    14  H    0.208407
    15  C    0.655405
    16  O   -0.608155
    17  N   -0.589899
    18  H    0.406093
    19  C   -0.268463
    20  H    0.237948
    21  H    0.200748
    22  C    0.617497
    23  O   -0.572460
    24  N   -0.565629
    25  H    0.391942
    26  C   -0.243276
    27  H    0.203419
    28  H    0.204464
    29  C    0.639874
    30  O   -0.569065
    31  N   -0.567274
    32  H    0.379688
    33  C   -0.267391
    34  H    0.191145
    35  H    0.204246
    36  C    0.682325
    37  O   -0.564098
    38  N   -0.599227
    39  H    0.346888
    40  C   -0.189539
    41  H    0.213608
    42  H    0.211597
    43  C    0.586792
    44  O   -0.525565
    45  N   -0.634369
    46  H    0.390679
    47  C   -0.243013
    48  H    0.198721
    49  H    0.198705
    50  C    0.588484
    51  O   -0.506547
    52  N   -0.570133
    53  H    0.380233
    54  C   -0.256467
    55  H    0.178486
    56  H    0.231965
    57  C    0.627538
    58  O   -0.526660
    59  N   -0.606590
    60  H    0.351563
    61  C   -0.228025
    62  H    0.205503
    63  H    0.199233
    64  C    0.614162
    65  O   -0.521954
    66  N   -0.558326
    67  H    0.344621
    68  C   -0.231571
    69  H    0.217885
    70  H    0.200007
    71  C    0.583513
    72  O   -0.472224
    73  O   -0.576371
    74  H    0.440220
 Sum of Mulliken charges =   1.00000

 Dipole moment (field-independent basis, Debye):
    X=             16.4314    Y=             10.1411    Z=              7.9585  Tot=             20.8847
 Quadrupole moment (field-independent basis, Debye-Ang):
   XX=           -164.0849   YY=           -177.6870   ZZ=           -117.8601
   XY=             39.4742   XZ=             45.4992   YZ=             -1.4296

 Normal termination of Gaussian 16 at Sun Jul 17 02:38:39 2022.
