 Gaussian 16, Revision C.01,
 Gaussian 16:  ES64L-G16RevC.01  3-Jul-2019

 ----------------------------------------------------------------------
 # B3LYP/6-31G* empiricaldispersion=gd3 guess=read geom=check nosymm in
 tegral(ultrafinegrid)
 ----------------------------------------------------------------------

 ------------------------------------------------------
 Candidate Structure: Conf:950 Charge calc in gas phase
 ------------------------------------------------------
 Structure from the checkpoint file:  "conf-950.chk"
 Charge =  1 Multiplicity = 1

                          Input orientation:
 ---------------------------------------------------------------------
 Center     Atomic      Atomic             Coordinates (Angstroms)
 Number     Number       Type             X           Y           Z
 ---------------------------------------------------------------------
      1          7           0       -7.997844   -1.864718   -5.739692
      2          1           0       -8.761031   -1.888247   -5.062251
      3          1           0       -7.699255   -0.891056   -5.831860
      4          1           0       -8.318472   -2.206607   -6.645939
      5          6           0       -6.854170   -2.666858   -5.277530
      6          1           0       -7.197279   -3.664845   -4.982373
      7          6           0       -6.215862   -1.988267   -4.066781
      8          6           0       -5.820499   -2.818232   -6.390242
      9          1           0       -4.969476   -3.395287   -6.029613
     10          1           0       -5.439477   -1.831500   -6.659141
     11          8           0       -6.477433   -0.834175   -3.759033
     12          6           0       -6.380480   -3.470589   -7.629178
     13          6           0       -7.422706   -4.325830   -7.795380
     14          1           0       -8.107658   -4.751249   -7.071560
     15          7           0       -5.827383   -3.244046   -8.883007
     16          1           0       -5.032948   -2.628130   -9.072303
     17          6           0       -6.537192   -3.943750   -9.785191
     18          1           0       -6.361095   -3.976469  -10.837853
     19          7           0       -7.514270   -4.613808   -9.147185
     20          7           0       -5.320282   -2.749248   -3.387841
     21          1           0       -5.203370   -3.723032   -3.612731
     22          6           0       -4.600961   -2.259472   -2.235541
     23          1           0       -4.652786   -1.174236   -2.255032
     24          6           0       -3.150922   -2.727538   -2.333270
     25          6           0       -5.214024   -2.762875   -0.909035
     26          1           0       -4.517375   -2.500953   -0.099927
     27          8           0       -2.877376   -3.909385   -2.565481
     28          6           0       -6.560473   -2.124277   -0.644475
     29          1           0       -6.471944   -1.035141   -0.578988
     30          1           0       -6.969841   -2.510311    0.288511
     31          1           0       -7.256569   -2.362167   -1.447831
     32          8           0       -5.431036   -4.166462   -0.939592
     33          1           0       -4.577088   -4.595750   -1.069848
     34          7           0       -2.210695   -1.772545   -2.128708
     35          1           0       -2.480611   -0.875283   -1.747999
     36          6           0       -0.816438   -2.097062   -1.914265
     37          1           0       -0.738585   -3.161680   -1.684705
     38          6           0       -0.360283   -1.284544   -0.708685
     39          6           0        0.067004   -1.784180   -3.119984
     40          1           0        1.109645   -1.916440   -2.824581
     41          1           0       -0.043946   -0.726354   -3.369769
     42          8           0       -0.972333   -0.291210   -0.322459
     43          6           0       -0.188075   -2.617918   -4.375774
     44          1           0       -1.233997   -2.497688   -4.665099
     45          6           0        0.684615   -2.076209   -5.505397
     46          1           0        1.740848   -2.175369   -5.243608
     47          1           0        0.479316   -1.019323   -5.687238
     48          1           0        0.508993   -2.619749   -6.436566
     49          6           0        0.084836   -4.102493   -4.146830
     50          1           0        1.127897   -4.253591   -3.853559
     51          1           0       -0.091802   -4.665681   -5.066697
     52          1           0       -0.560128   -4.515774   -3.371496
     53          7           0        0.771620   -1.719632   -0.111309
     54          1           0        1.307346   -2.449862   -0.544377
     55          6           0        1.382718   -1.005348    1.002021
     56          1           0        0.555485   -0.612501    1.599125
     57          6           0        2.203918    0.170766    0.457007
     58          6           0        2.243241   -1.946338    1.820384
     59          1           0        2.703612   -1.402940    2.648121
     60          1           0        3.042662   -2.367049    1.208928
     61          1           0        1.627669   -2.753436    2.221877
     62          8           0        3.429521    0.121861    0.355092
     63          7           0        1.485363    1.249276    0.074596
     64          1           0        0.475048    1.184772    0.063661
     65          6           0        2.117631    2.437707   -0.475633
     66          1           0        2.888799    2.100829   -1.171512
     67          6           0        2.770011    3.238265    0.663805
     68          6           0        1.086796    3.304343   -1.196572
     69          1           0        0.315048    3.587072   -0.481571
     70          1           0        1.586246    4.232483   -1.486991
     71          8           0        2.218054    4.178510    1.214140
     72          6           0        0.484635    2.636013   -2.393614
     73          6           0        1.258145    2.352682   -3.517565
     74          1           0        2.312978    2.594293   -3.503012
     75          6           0       -0.864166    2.283716   -2.420378
     76          1           0       -1.482406    2.454643   -1.544139
     77          6           0        0.699704    1.778202   -4.657907
     78          1           0        1.309058    1.550009   -5.525010
     79          6           0       -1.440678    1.717341   -3.556538
     80          1           0       -2.492818    1.445641   -3.558035
     81          8           0       -1.165846    0.872320   -5.808539
     82          1           0       -2.082378    0.642405   -5.636329
     83          6           0       -0.651031    1.469896   -4.674224
     84          7           0        4.006755    2.807600    1.027876
     85          1           0        4.325728    1.907142    0.687658
     86          6           0        4.626105    3.288014    2.245459
     87          1           0        4.364844    4.340990    2.364930
     88          6           0        6.133088    3.078492    2.111823
     89          6           0        4.184659    2.514033    3.479977
     90          1           0        4.243790    1.434845    3.313344
     91          1           0        3.163435    2.777976    3.747813
     92          8           0        6.625487    1.971855    2.277512
     93          6           0        5.129411    2.900101    4.644180
     94          8           0        5.130317    2.154293    5.630018
     95          8           0        5.769099    3.969182    4.461557
     96          7           0        6.852291    4.171374    1.773883
     97          1           0        6.494259    5.107457    1.920725
     98          6           0        8.283586    4.159652    1.913608
     99          1           0        8.541240    3.633561    2.848089
    100          6           0        8.697483    5.654033    2.061645
    101          6           0        8.991252    3.480732    0.742490
    102          1           0        8.929900    4.125839   -0.138366
    103          1           0        8.435618    2.572439    0.511182
    104          8           0        7.743788    6.447524    2.199145
    105          6           0       10.436993    3.118886    1.058784
    106          1           0       10.993177    4.009206    1.359931
    107          1           0       10.425561    2.448864    1.924927
    108          6           0       11.116979    2.444662   -0.119344
    109          1           0       10.562653    1.543690   -0.399042
    110          1           0       11.079993    3.119055   -0.981200
    111          6           0       12.567947    2.081779    0.135496
    112          1           0       13.100507    2.974312    0.475071
    113          1           0       13.043337    1.759952   -0.792689
    114          7           0       12.718574    1.015115    1.158713
    115          1           0       13.697249    0.786460    1.334395
    116          1           0       12.244223    0.159137    0.871858
    117          1           0       12.310732    1.300817    2.047758
    118          8           0        9.906126    5.915103    2.068834
    119          1           0       -8.216631   -5.224301   -9.569731
 ---------------------------------------------------------------------

 SCF Done:  E(RB3LYP) =  -2933.53508820     A.U. after    3 cycles

 Alpha  occ. eigenvalues --  -19.28002 -19.24808 -19.24031 -19.22662 -19.20391
 Alpha  occ. eigenvalues --  -19.15579 -19.11101 -19.08241 -19.06233 -19.06099
 Alpha  occ. eigenvalues --  -19.05379 -19.04954 -14.64858 -14.59702 -14.55661
 Alpha  occ. eigenvalues --  -14.55556 -14.51196 -14.46116 -14.43983 -14.39665
 Alpha  occ. eigenvalues --  -14.34330 -14.30899 -10.45589 -10.44862 -10.41247
 Alpha  occ. eigenvalues --  -10.40277 -10.39918 -10.39724 -10.39712 -10.37006
 Alpha  occ. eigenvalues --  -10.35338 -10.34962 -10.34474 -10.32570 -10.31623
 Alpha  occ. eigenvalues --  -10.30932 -10.28785 -10.28210 -10.26981 -10.26753
 Alpha  occ. eigenvalues --  -10.25991 -10.25919 -10.25840 -10.25265 -10.24778
 Alpha  occ. eigenvalues --  -10.24755 -10.24458 -10.24403 -10.24192 -10.23775
 Alpha  occ. eigenvalues --  -10.23455 -10.22749 -10.22655 -10.22495 -10.22399
 Alpha  occ. eigenvalues --  -10.21865 -10.19319 -10.18420 -10.18296 -10.13912
 Alpha  occ. eigenvalues --   -1.22146  -1.20312  -1.18985  -1.14722  -1.14581
 Alpha  occ. eigenvalues --   -1.12719  -1.12573  -1.11845  -1.07797  -1.07665
 Alpha  occ. eigenvalues --   -1.07461  -1.03399  -1.02730  -1.00797  -1.00589
 Alpha  occ. eigenvalues --   -0.99856  -0.99026  -0.98754  -0.96360  -0.93684
 Alpha  occ. eigenvalues --   -0.91418  -0.91133  -0.90579  -0.90278  -0.90126
 Alpha  occ. eigenvalues --   -0.89110  -0.88603  -0.87806  -0.86485  -0.85035
 Alpha  occ. eigenvalues --   -0.83617  -0.82953  -0.82565  -0.80946  -0.80818
 Alpha  occ. eigenvalues --   -0.80809  -0.79527  -0.78749  -0.78040  -0.76970
 Alpha  occ. eigenvalues --   -0.75203  -0.74933  -0.74897  -0.73776  -0.73467
 Alpha  occ. eigenvalues --   -0.73109  -0.72728  -0.71627  -0.71461  -0.71289
 Alpha  occ. eigenvalues --   -0.70054  -0.69013  -0.68669  -0.67686  -0.67450
 Alpha  occ. eigenvalues --   -0.67249  -0.66973  -0.66542  -0.64677  -0.64617
 Alpha  occ. eigenvalues --   -0.63468  -0.63343  -0.63122  -0.62758  -0.62598
 Alpha  occ. eigenvalues --   -0.61601  -0.61458  -0.61370  -0.60751  -0.60480
 Alpha  occ. eigenvalues --   -0.60339  -0.59256  -0.59175  -0.58276  -0.58062
 Alpha  occ. eigenvalues --   -0.57425  -0.56971  -0.56723  -0.56060  -0.55501
 Alpha  occ. eigenvalues --   -0.54864  -0.54487  -0.54432  -0.54152  -0.53910
 Alpha  occ. eigenvalues --   -0.53543  -0.52850  -0.52515  -0.52334  -0.51898
 Alpha  occ. eigenvalues --   -0.51127  -0.50872  -0.50486  -0.49536  -0.49057
 Alpha  occ. eigenvalues --   -0.49036  -0.48542  -0.48420  -0.48237  -0.48173
 Alpha  occ. eigenvalues --   -0.48042  -0.47839  -0.47216  -0.46996  -0.46596
 Alpha  occ. eigenvalues --   -0.46095  -0.45994  -0.45900  -0.45523  -0.45269
 Alpha  occ. eigenvalues --   -0.45029  -0.44931  -0.44560  -0.44118  -0.43579
 Alpha  occ. eigenvalues --   -0.43467  -0.43171  -0.43112  -0.42835  -0.42702
 Alpha  occ. eigenvalues --   -0.42495  -0.41983  -0.41715  -0.41598  -0.41047
 Alpha  occ. eigenvalues --   -0.40682  -0.40519  -0.40358  -0.40157  -0.39904
 Alpha  occ. eigenvalues --   -0.39791  -0.39543  -0.39276  -0.38763  -0.38387
 Alpha  occ. eigenvalues --   -0.38092  -0.37525  -0.37391  -0.37138  -0.36969
 Alpha  occ. eigenvalues --   -0.36359  -0.36279  -0.35950  -0.35772  -0.35364
 Alpha  occ. eigenvalues --   -0.34466  -0.34171  -0.33886  -0.33502  -0.32913
 Alpha  occ. eigenvalues --   -0.31568  -0.31121  -0.30997  -0.30154  -0.28937
 Alpha  occ. eigenvalues --   -0.27926  -0.25443  -0.24140  -0.22878  -0.21747
 Alpha  occ. eigenvalues --   -0.20763  -0.20254  -0.19221  -0.18769  -0.18321
 Alpha  occ. eigenvalues --   -0.17681
 Alpha virt. eigenvalues --   -0.17154  -0.15229  -0.14396  -0.13548  -0.09718
 Alpha virt. eigenvalues --   -0.09578  -0.09182  -0.08970  -0.07687  -0.07262
 Alpha virt. eigenvalues --   -0.06542  -0.06097  -0.05960  -0.04974  -0.04544

 Mulliken charges:
               1
     1  N   -0.664726
     2  H    0.408052
     3  H    0.413499
     4  H    0.351936
     5  C   -0.168971
     6  H    0.227975
     7  C    0.637383
     8  C   -0.353774
     9  H    0.238847
    10  H    0.190036
    11  O   -0.508497
    12  C    0.296259
    13  C   -0.024838
    14  H    0.196074
    15  N   -0.612599
    16  H    0.378381
    17  C    0.201984
    18  H    0.224088
    19  N   -0.565360
    20  N   -0.579169
    21  H    0.350241
    22  C   -0.098303
    23  H    0.191834
    24  C    0.608235
    25  C    0.132719
    26  H    0.157769
    27  O   -0.546727
    28  C   -0.442345
    29  H    0.164340
    30  H    0.189090
    31  H    0.127874
    32  O   -0.630384
    33  H    0.410739
    34  N   -0.596195
    35  H    0.359176
    36  C   -0.079284
    37  H    0.185849
    38  C    0.635688
    39  C   -0.274654
    40  H    0.142404
    41  H    0.181840
    42  O   -0.552718
    43  C   -0.062762
    44  H    0.096809
    45  C   -0.461709
    46  H    0.147579
    47  H    0.176404
    48  H    0.131017
    49  C   -0.461413
    50  H    0.140670
    51  H    0.136824
    52  H    0.171055
    53  N   -0.589561
    54  H    0.339172
    55  C   -0.069521
    56  H    0.189417
    57  C    0.634053
    58  C   -0.463455
    59  H    0.206374
    60  H    0.165312
    61  H    0.149002
    62  O   -0.531678
    63  N   -0.614271
    64  H    0.365623
    65  C   -0.044532
    66  H    0.160926
    67  C    0.629296
    68  C   -0.404560
    69  H    0.177685
    70  H    0.186238
    71  O   -0.531863
    72  C    0.183671
    73  C   -0.181149
    74  H    0.148011
    75  C   -0.187114
    76  H    0.140783
    77  C   -0.168812
    78  H    0.146072
    79  C   -0.204636
    80  H    0.094343
    81  O   -0.655123
    82  H    0.391101
    83  C    0.348641
    84  N   -0.636765
    85  H    0.364219
    86  C   -0.013814
    87  H    0.187327
    88  C    0.612104
    89  C   -0.374987
    90  H    0.138640
    91  H    0.146312
    92  O   -0.570411
    93  C    0.619661
    94  O   -0.508381
    95  O   -0.511066
    96  N   -0.604117
    97  H    0.370938
    98  C   -0.054266
    99  H    0.156962
   100  C    0.588439
   101  C   -0.250667
   102  H    0.136142
   103  H    0.144516
   104  O   -0.547142
   105  C   -0.291441
   106  H    0.201574
   107  H    0.104617
   108  C   -0.287569
   109  H    0.147025
   110  H    0.195615
   111  C   -0.228230
   112  H    0.232250
   113  H    0.207423
   114  N   -0.713190
   115  H    0.422478
   116  H    0.421995
   117  H    0.437187
   118  O   -0.558055
   119  H    0.386993
 Sum of Mulliken charges =   1.00000

 Dipole moment (field-independent basis, Debye):
    X=            -27.3998    Y=            -37.7797    Z=            -54.1316  Tot=             71.4723
 Quadrupole moment (field-independent basis, Debye-Ang):
   XX=            315.4149   YY=           -422.9702   ZZ=           -118.9212
   XY=             -8.9887   XZ=            213.8693   YZ=             54.6683

 Normal termination of Gaussian 16 at Sun Jun 19 13:53:19 2022.
