 Gaussian 16, Revision C.01,
 Gaussian 16:  ES64L-G16RevC.01  3-Jul-2019

 ----------------------------------------------------------------------
 # B3LYP/6-31G* empiricaldispersion=gd3 guess=read geom=check nosymm in
 tegral(ultrafinegrid)
 ----------------------------------------------------------------------

 ------------------------------------------------------
 Candidate Structure: Conf:217 Charge calc in gas phase
 ------------------------------------------------------
 Structure from the checkpoint file:  "conf-217.chk"
 Charge =  1 Multiplicity = 1

                          Input orientation:
 ---------------------------------------------------------------------
 Center     Atomic      Atomic             Coordinates (Angstroms)
 Number     Number       Type             X           Y           Z
 ---------------------------------------------------------------------
      1          7           0       -9.341561   -1.476310   -5.958919
      2          1           0       -9.789339   -0.766186   -5.375054
      3          1           0       -8.933729   -1.001371   -6.769284
      4          1           0      -10.052987   -2.128067   -6.286085
      5          6           0       -8.265236   -2.180779   -5.234165
      6          1           0       -8.634046   -2.489226   -4.252948
      7          6           0       -7.071082   -1.242501   -5.061369
      8          6           0       -7.827727   -3.422949   -6.019818
      9          1           0       -7.462663   -3.101751   -6.994579
     10          1           0       -8.702644   -4.058154   -6.172375
     11          8           0       -6.715171   -0.491610   -5.961338
     12          6           0       -6.733347   -4.181186   -5.326143
     13          6           0       -5.444374   -4.394003   -5.699426
     14          1           0       -4.922246   -4.120044   -6.610686
     15          7           0       -6.889938   -4.708124   -4.052771
     16          1           0       -7.767851   -4.720687   -3.526831
     17          6           0       -5.712038   -5.239798   -3.673052
     18          1           0       -5.498093   -5.732353   -2.739119
     19          7           0       -4.814532   -5.062400   -4.663365
     20          7           0       -6.415284   -1.344246   -3.877937
     21          1           0       -6.727046   -1.980889   -3.166206
     22          6           0       -5.222039   -0.581425   -3.587527
     23          1           0       -4.820223   -0.214306   -4.530103
     24          6           0       -4.218803   -1.479889   -2.889035
     25          6           0       -5.501084    0.629560   -2.662589
     26          1           0       -4.529270    1.042446   -2.359143
     27          8           0       -4.554834   -2.186227   -1.934165
     28          6           0       -6.314835    1.694109   -3.367309
     29          1           0       -5.793682    2.068057   -4.254767
     30          1           0       -6.500706    2.522687   -2.683893
     31          1           0       -7.276680    1.289031   -3.680921
     32          8           0       -6.252488    0.236759   -1.524382
     33          1           0       -5.762238   -0.455425   -1.064739
     34          7           0       -2.935411   -1.411460   -3.337161
     35          1           0       -2.711802   -0.591637   -3.885241
     36          6           0       -1.849349   -1.813439   -2.457144
     37          1           0       -2.219244   -2.639350   -1.848187
     38          6           0       -1.484224   -0.643716   -1.539185
     39          6           0       -0.625794   -2.242210   -3.261617
     40          1           0        0.191612   -2.458758   -2.572258
     41          1           0       -0.307417   -1.386395   -3.864631
     42          8           0       -1.721431    0.515214   -1.827487
     43          6           0       -0.852152   -3.447321   -4.179805
     44          1           0       -1.696205   -3.216034   -4.837754
     45          6           0        0.383782   -3.663019   -5.047838
     46          1           0        1.257457   -3.849550   -4.417739
     47          1           0        0.592000   -2.787492   -5.666901
     48          1           0        0.257251   -4.522586   -5.710632
     49          6           0       -1.176921   -4.714398   -3.399879
     50          1           0       -0.313474   -5.022639   -2.803291
     51          1           0       -1.422586   -5.535434   -4.080328
     52          1           0       -2.022186   -4.578004   -2.716634
     53          7           0       -0.856972   -1.002256   -0.375214
     54          1           0       -0.481149   -1.935723   -0.346829
     55          6           0       -0.027320   -0.024183    0.304377
     56          1           0       -0.469831    0.951543    0.110632
     57          6           0        1.387507   -0.071924   -0.289230
     58          6           0        0.028913   -0.295941    1.804358
     59          1           0        0.678816    0.436681    2.293594
     60          1           0        0.441488   -1.291607    1.988657
     61          1           0       -0.969543   -0.241232    2.237220
     62          8           0        1.850658   -1.079932   -0.792419
     63          7           0        2.098192    1.086007   -0.181797
     64          1           0        1.749604    1.773789    0.460526
     65          6           0        3.542806    1.026929   -0.281583
     66          1           0        3.780661    0.324846   -1.080535
     67          6           0        4.140386    0.506629    1.029985
     68          6           0        4.116912    2.417376   -0.621351
     69          1           0        5.212512    2.348405   -0.600505
     70          1           0        3.807543    2.671047   -1.637977
     71          8           0        3.541060    0.531128    2.087151
     72          6           0        3.640642    3.465777    0.343042
     73          6           0        2.565428    4.299105    0.039638
     74          1           0        2.085105    4.212811   -0.926512
     75          6           0        4.214659    3.569299    1.611134
     76          1           0        5.058508    2.945362    1.859801
     77          6           0        2.067145    5.205117    0.974369
     78          1           0        1.225667    5.842037    0.740547
     79          6           0        3.733704    4.475966    2.550918
     80          1           0        4.211923    4.555143    3.521119
     81          8           0        2.129843    6.200870    3.117044
     82          1           0        2.630074    6.149452    3.936130
     83          6           0        2.651939    5.297507    2.233244
     84          7           0        5.411094    0.017125    0.912235
     85          1           0        5.891071    0.161061    0.040903
     86          6           0        6.278951   -0.069013    2.071753
     87          1           0        5.647429   -0.054134    2.961921
     88          6           0        7.203475    1.152042    2.029628
     89          6           0        7.101048   -1.353268    2.038592
     90          1           0        7.703184   -1.424857    2.947477
     91          1           0        7.748804   -1.373932    1.163361
     92          8           0        7.741511    1.483401    0.976357
     93          6           0        6.094573   -2.538330    2.012561
     94          8           0        6.132325   -3.289604    1.023189
     95          8           0        5.366128   -2.603686    3.019460
     96          7           0        7.370725    1.808711    3.200570
     97          1           0        7.153864    1.372190    4.091860
     98          6           0        8.371857    2.825745    3.386451
     99          1           0        9.221932    2.664427    2.708898
    100          6           0        8.834099    2.677785    4.870528
    101          6           0        7.856482    4.256673    3.211268
    102          1           0        8.594623    4.930129    3.657864
    103          1           0        6.926238    4.368601    3.783927
    104          8           0        9.786673    3.372865    5.228398
    105          6           0        7.620673    4.626202    1.757410
    106          1           0        8.574547    4.584480    1.218716
    107          1           0        6.981208    3.886703    1.277160
    108          6           0        7.005551    6.002480    1.584900
    109          1           0        6.121538    6.085550    2.228707
    110          1           0        7.707105    6.776667    1.902790
    111          6           0        6.579260    6.242493    0.153701
    112          1           0        5.871132    5.459746   -0.130584
    113          1           0        7.449124    6.153032   -0.500376
    114          7           0        5.943025    7.570198   -0.032458
    115          1           0        5.690771    7.746662   -1.005579
    116          1           0        6.567181    8.318851    0.265035
    117          1           0        5.090770    7.640975    0.524928
    118          8           0        8.175076    1.851934    5.543440
    119          1           0       -3.840944   -5.359827   -4.641194
 ---------------------------------------------------------------------

 SCF Done:  E(RB3LYP) =  -2933.55306446     A.U. after    3 cycles

 Alpha  occ. eigenvalues --  -19.27974 -19.24063 -19.24025 -19.23932 -19.19804
 Alpha  occ. eigenvalues --  -19.16431 -19.13004 -19.10821 -19.06652 -19.05457
 Alpha  occ. eigenvalues --  -19.05178 -19.04532 -14.65855 -14.61006 -14.56385
 Alpha  occ. eigenvalues --  -14.56138 -14.51621 -14.47035 -14.42370 -14.39872
 Alpha  occ. eigenvalues --  -14.36057 -14.33433 -10.45520 -10.44986 -10.41253
 Alpha  occ. eigenvalues --  -10.40656 -10.40308 -10.39768 -10.39563 -10.36343
 Alpha  occ. eigenvalues --  -10.35852 -10.35480 -10.34620 -10.33020 -10.31933
 Alpha  occ. eigenvalues --  -10.31232 -10.29790 -10.28285 -10.27702 -10.27617
 Alpha  occ. eigenvalues --  -10.27475 -10.27122 -10.26914 -10.26784 -10.26662
 Alpha  occ. eigenvalues --  -10.25447 -10.24962 -10.24949 -10.24910 -10.24767
 Alpha  occ. eigenvalues --  -10.24619 -10.24601 -10.22770 -10.22661 -10.22529
 Alpha  occ. eigenvalues --  -10.22484 -10.21288 -10.19715 -10.19624 -10.14937
 Alpha  occ. eigenvalues --   -1.22361  -1.20599  -1.19249  -1.15877  -1.15817
 Alpha  occ. eigenvalues --   -1.12352  -1.12185  -1.11931  -1.08802  -1.08293
 Alpha  occ. eigenvalues --   -1.07628  -1.05437  -1.03704  -1.02826  -0.99791
 Alpha  occ. eigenvalues --   -0.99371  -0.99049  -0.98949  -0.97099  -0.93450
 Alpha  occ. eigenvalues --   -0.92983  -0.91877  -0.91433  -0.90992  -0.90296
 Alpha  occ. eigenvalues --   -0.90123  -0.89554  -0.89004  -0.86297  -0.85392
 Alpha  occ. eigenvalues --   -0.84447  -0.83369  -0.82735  -0.81595  -0.81287
 Alpha  occ. eigenvalues --   -0.81063  -0.79785  -0.79435  -0.78587  -0.77166
 Alpha  occ. eigenvalues --   -0.77107  -0.76201  -0.75332  -0.74988  -0.74018
 Alpha  occ. eigenvalues --   -0.73778  -0.72904  -0.72515  -0.72018  -0.71281
 Alpha  occ. eigenvalues --   -0.70734  -0.69286  -0.68662  -0.68381  -0.68274
 Alpha  occ. eigenvalues --   -0.67484  -0.67397  -0.66449  -0.65302  -0.64800
 Alpha  occ. eigenvalues --   -0.64305  -0.64247  -0.63572  -0.62928  -0.62515
 Alpha  occ. eigenvalues --   -0.62331  -0.61756  -0.60975  -0.60678  -0.60641
 Alpha  occ. eigenvalues --   -0.60407  -0.59880  -0.59300  -0.59060  -0.58792
 Alpha  occ. eigenvalues --   -0.58294  -0.57246  -0.57025  -0.56970  -0.56463
 Alpha  occ. eigenvalues --   -0.56163  -0.55705  -0.55424  -0.54781  -0.54032
 Alpha  occ. eigenvalues --   -0.53362  -0.53194  -0.52989  -0.52672  -0.52149
 Alpha  occ. eigenvalues --   -0.51085  -0.50977  -0.50422  -0.50158  -0.49772
 Alpha  occ. eigenvalues --   -0.49526  -0.49170  -0.48774  -0.48591  -0.48511
 Alpha  occ. eigenvalues --   -0.48454  -0.48242  -0.48157  -0.47634  -0.47519
 Alpha  occ. eigenvalues --   -0.47319  -0.46960  -0.46935  -0.46639  -0.46242
 Alpha  occ. eigenvalues --   -0.46039  -0.45719  -0.45552  -0.44961  -0.44715
 Alpha  occ. eigenvalues --   -0.44263  -0.43960  -0.43700  -0.43378  -0.43298
 Alpha  occ. eigenvalues --   -0.42675  -0.42463  -0.42152  -0.41636  -0.41558
 Alpha  occ. eigenvalues --   -0.41461  -0.41340  -0.41277  -0.41045  -0.40981
 Alpha  occ. eigenvalues --   -0.40614  -0.40397  -0.40357  -0.40045  -0.39539
 Alpha  occ. eigenvalues --   -0.39102  -0.38674  -0.37959  -0.37844  -0.37265
 Alpha  occ. eigenvalues --   -0.37190  -0.36844  -0.36545  -0.36483  -0.36000
 Alpha  occ. eigenvalues --   -0.35774  -0.34359  -0.33811  -0.33238  -0.32933
 Alpha  occ. eigenvalues --   -0.32504  -0.32036  -0.31607  -0.30804  -0.29640
 Alpha  occ. eigenvalues --   -0.28402  -0.26886  -0.26712  -0.24888  -0.24279
 Alpha  occ. eigenvalues --   -0.20838  -0.20248  -0.19431  -0.18914  -0.18279
 Alpha  occ. eigenvalues --   -0.17886
 Alpha virt. eigenvalues --   -0.17219  -0.16327  -0.14738  -0.13705  -0.11646
 Alpha virt. eigenvalues --   -0.11198  -0.10309  -0.09623  -0.08658  -0.07178
 Alpha virt. eigenvalues --   -0.06870  -0.05735  -0.05320  -0.04917  -0.04827

 Mulliken charges:
               1
     1  N   -0.676717
     2  H    0.414851
     3  H    0.415828
     4  H    0.377127
     5  C   -0.149524
     6  H    0.199842
     7  C    0.634260
     8  C   -0.377501
     9  H    0.214284
    10  H    0.188676
    11  O   -0.515311
    12  C    0.310082
    13  C    0.021815
    14  H    0.221311
    15  N   -0.627395
    16  H    0.371194
    17  C    0.244273
    18  H    0.240180
    19  N   -0.558299
    20  N   -0.571602
    21  H    0.343006
    22  C   -0.099546
    23  H    0.189021
    24  C    0.606486
    25  C    0.128722
    26  H    0.178795
    27  O   -0.549138
    28  C   -0.440956
    29  H    0.159457
    30  H    0.188659
    31  H    0.122208
    32  O   -0.634538
    33  H    0.412154
    34  N   -0.573468
    35  H    0.344051
    36  C   -0.117350
    37  H    0.191196
    38  C    0.619894
    39  C   -0.281939
    40  H    0.197264
    41  H    0.148650
    42  O   -0.530401
    43  C   -0.068991
    44  H    0.097728
    45  C   -0.445013
    46  H    0.176524
    47  H    0.150098
    48  H    0.141435
    49  C   -0.472784
    50  H    0.186735
    51  H    0.126300
    52  H    0.133957
    53  N   -0.567616
    54  H    0.340846
    55  C   -0.103668
    56  H    0.179232
    57  C    0.632408
    58  C   -0.450910
    59  H    0.192019
    60  H    0.182300
    61  H    0.155465
    62  O   -0.519535
    63  N   -0.592479
    64  H    0.342943
    65  C   -0.080695
    66  H    0.193413
    67  C    0.636020
    68  C   -0.372130
    69  H    0.179265
    70  H    0.143464
    71  O   -0.526986
    72  C    0.107481
    73  C   -0.217481
    74  H    0.133517
    75  C   -0.177902
    76  H    0.199707
    77  C   -0.179680
    78  H    0.138256
    79  C   -0.221665
    80  H    0.158540
    81  O   -0.641532
    82  H    0.417295
    83  C    0.330936
    84  N   -0.570231
    85  H    0.328665
    86  C   -0.083797
    87  H    0.203780
    88  C    0.600159
    89  C   -0.350635
    90  H    0.163395
    91  H    0.135638
    92  O   -0.579694
    93  C    0.584758
    94  O   -0.507358
    95  O   -0.516926
    96  N   -0.604558
    97  H    0.367163
    98  C   -0.065787
    99  H    0.154152
   100  C    0.580667
   101  C   -0.266081
   102  H    0.165368
   103  H    0.122767
   104  O   -0.545371
   105  C   -0.270615
   106  H    0.154360
   107  H    0.167297
   108  C   -0.284637
   109  H    0.150740
   110  H    0.154085
   111  C   -0.236016
   112  H    0.233407
   113  H    0.221265
   114  N   -0.713380
   115  H    0.421122
   116  H    0.421554
   117  H    0.427912
   118  O   -0.581029
   119  H    0.401438
 Sum of Mulliken charges =   1.00000

 Dipole moment (field-independent basis, Debye):
    X=            -58.0015    Y=              9.7266    Z=            -49.0349  Tot=             76.5716
 Quadrupole moment (field-independent basis, Debye-Ang):
   XX=           -125.8725   YY=            -92.8388   ZZ=           -263.6985
   XY=            282.7939   XZ=             92.8147   YZ=             75.8377

 Normal termination of Gaussian 16 at Sun Jun 19 13:53:29 2022.
