 Gaussian 16, Revision C.01,
 Gaussian 16:  ES64L-G16RevC.01  3-Jul-2019

 ----------------------------------------------------------------------
 # B3LYP/6-31G* empiricaldispersion=gd3 guess=read geom=check nosymm in
 tegral(ultrafinegrid)
 ----------------------------------------------------------------------

 ------------------------------------------------------
 Candidate Structure: Conf:879 Charge calc in gas phase
 ------------------------------------------------------
 Structure from the checkpoint file:  "conf-879.chk"
 Charge =  1 Multiplicity = 1

                          Input orientation:
 ---------------------------------------------------------------------
 Center     Atomic      Atomic             Coordinates (Angstroms)
 Number     Number       Type             X           Y           Z
 ---------------------------------------------------------------------
      1          7           0       -4.381034   -2.663355   -7.715258
      2          1           0       -5.386657   -2.620596   -7.902945
      3          1           0       -4.019320   -1.702063   -7.764264
      4          1           0       -3.935600   -3.232355   -8.439042
      5          6           0       -4.099543   -3.162956   -6.343655
      6          1           0       -4.679737   -4.071136   -6.151790
      7          6           0       -4.524762   -2.056403   -5.384283
      8          6           0       -2.588213   -3.477709   -6.220850
      9          1           0       -2.031898   -2.558227   -6.432587
     10          1           0       -2.326026   -4.207954   -6.990120
     11          8           0       -4.400493   -0.876417   -5.731217
     12          6           0       -2.190286   -4.002770   -4.878151
     13          6           0       -2.069703   -5.270180   -4.390991
     14          1           0       -2.152228   -6.226878   -4.891481
     15          7           0       -1.946181   -3.144123   -3.819716
     16          1           0       -2.050069   -2.128742   -3.830960
     17          6           0       -1.779090   -3.865360   -2.698488
     18          1           0       -1.744712   -3.407481   -1.726302
     19          7           0       -1.792979   -5.169775   -3.038767
     20          7           0       -5.031665   -2.433621   -4.187876
     21          1           0       -4.990773   -3.396473   -3.897735
     22          6           0       -5.371454   -1.454872   -3.157566
     23          1           0       -5.875088   -0.621382   -3.650011
     24          6           0       -4.040253   -0.980128   -2.535957
     25          6           0       -6.312758   -2.096516   -2.130480
     26          1           0       -5.825881   -3.003047   -1.755189
     27          8           0       -3.459180   -1.663921   -1.663868
     28          6           0       -6.635308   -1.157462   -0.979646
     29          1           0       -5.716389   -0.879374   -0.456738
     30          1           0       -7.308239   -1.653481   -0.278754
     31          1           0       -7.114012   -0.249054   -1.356769
     32          8           0       -7.501518   -2.548354   -2.771156
     33          1           0       -7.991831   -1.770755   -3.061779
     34          7           0       -3.512198    0.127427   -3.116950
     35          1           0       -3.896769    0.407816   -4.010202
     36          6           0       -2.141772    0.504099   -2.807673
     37          1           0       -1.674080   -0.373090   -2.353874
     38          6           0       -2.105065    1.594208   -1.734389
     39          6           0       -1.369124    0.881486   -4.063357
     40          1           0       -1.802660    1.793964   -4.483053
     41          1           0       -1.517969    0.074610   -4.795426
     42          8           0       -1.818856    2.756444   -1.972988
     43          6           0        0.139946    1.086828   -3.849802
     44          1           0        0.255769    1.845919   -3.067298
     45          6           0        0.844715   -0.189167   -3.386725
     46          1           0        0.884014   -0.926122   -4.197983
     47          1           0        0.351080   -0.642733   -2.526620
     48          1           0        1.871354    0.037622   -3.081242
     49          6           0        0.771161    1.623117   -5.134150
     50          1           0        0.631122    0.913714   -5.956727
     51          1           0        1.845676    1.779161   -5.006093
     52          1           0        0.323947    2.576949   -5.425827
     53          7           0       -2.402584    1.151567   -0.471071
     54          1           0       -2.500087    0.149598   -0.371995
     55          6           0       -1.656403    1.779374    0.613784
     56          1           0       -1.712043    2.858886    0.459626
     57          6           0       -0.185724    1.327902    0.456160
     58          6           0       -2.226873    1.404197    1.974372
     59          1           0       -1.658188    1.879102    2.777379
     60          1           0       -2.184676    0.320163    2.118412
     61          1           0       -3.267752    1.726092    2.044338
     62          8           0        0.108096    0.369070   -0.263233
     63          7           0        0.740001    2.028265    1.133170
     64          1           0        0.520262    2.838770    1.697333
     65          6           0        2.150529    1.702444    1.008804
     66          1           0        2.261199    0.616073    1.048772
     67          6           0        2.841519    2.369394    2.203715
     68          6           0        2.709048    2.194095   -0.349391
     69          1           0        1.997471    1.876852   -1.117554
     70          1           0        2.737177    3.286892   -0.341101
     71          8           0        2.381817    3.398866    2.688678
     72          6           0        4.063790    1.607224   -0.636677
     73          6           0        5.227112    2.239447   -0.195632
     74          1           0        5.159135    3.208912    0.285656
     75          6           0        4.182586    0.363486   -1.262860
     76          1           0        3.291627   -0.136594   -1.632133
     77          6           0        6.463080    1.610069   -0.278565
     78          1           0        7.345327    2.066862    0.146601
     79          6           0        5.425659   -0.251425   -1.412503
     80          1           0        5.499444   -1.215491   -1.907384
     81          8           0        7.812177   -0.186194   -0.980489
     82          1           0        7.751898   -1.036972   -1.428787
     83          6           0        6.567431    0.371433   -0.906258
     84          7           0        3.949410    1.757050    2.662800
     85          1           0        4.433602    0.993243    2.178626
     86          6           0        4.712064    2.292087    3.767308
     87          1           0        4.021893    2.852211    4.398501
     88          6           0        5.791580    3.303691    3.302512
     89          6           0        5.339917    1.132855    4.545318
     90          1           0        4.539379    0.453849    4.853955
     91          1           0        5.882902    1.484308    5.423721
     92          8           0        6.477569    3.182853    2.287407
     93          6           0        6.316700    0.313011    3.645297
     94          8           0        7.429525    0.082836    4.141714
     95          8           0        5.851465   -0.067496    2.541980
     96          7           0        5.958057    4.358403    4.138962
     97          1           0        5.689016    4.347610    5.119337
     98          6           0        7.073564    5.239387    3.925642
     99          1           0        7.946264    4.635026    3.637341
    100          6           0        7.360514    5.935738    5.289715
    101          6           0        6.822582    6.312936    2.862634
    102          1           0        6.310319    7.152372    3.339552
    103          1           0        6.150664    5.926454    2.091746
    104          8           0        8.201963    6.856605    5.272365
    105          6           0        8.153516    6.739285    2.242069
    106          1           0        8.907525    6.797509    3.033023
    107          1           0        8.473628    5.948760    1.552919
    108          6           0        8.081383    8.091662    1.543761
    109          1           0        8.966100    8.248342    0.916421
    110          1           0        7.206392    8.143803    0.884002
    111          6           0        8.005649    9.198146    2.584004
    112          1           0        8.884967    9.154727    3.232579
    113          1           0        7.133987    9.056750    3.224586
    114          7           0        7.924686   10.557675    1.962220
    115          1           0        7.878110   11.299161    2.664622
    116          1           0        7.094674   10.637115    1.371728
    117          1           0        8.738742   10.738957    1.372332
    118          8           0        6.714770    5.498387    6.265543
    119          1           0       -1.683866   -5.961575   -2.407453
 ---------------------------------------------------------------------

 SCF Done:  E(RB3LYP) =  -2933.57307282     A.U. after    4 cycles

 Alpha  occ. eigenvalues --  -19.28691 -19.25793 -19.24676 -19.18823 -19.17402
 Alpha  occ. eigenvalues --  -19.15755 -19.11659 -19.09409 -19.06917 -19.05819
 Alpha  occ. eigenvalues --  -19.05144 -19.04998 -14.66002 -14.59161 -14.57639
 Alpha  occ. eigenvalues --  -14.56428 -14.52461 -14.48392 -14.41317 -14.39162
 Alpha  occ. eigenvalues --  -14.33926 -14.31950 -10.45411 -10.45199 -10.42439
 Alpha  occ. eigenvalues --  -10.41617 -10.41197 -10.40577 -10.40249 -10.36727
 Alpha  occ. eigenvalues --  -10.35933 -10.35536 -10.33483 -10.32515 -10.31940
 Alpha  occ. eigenvalues --  -10.28525 -10.28460 -10.27876 -10.27477 -10.26458
 Alpha  occ. eigenvalues --  -10.26025 -10.25566 -10.24656 -10.24316 -10.24007
 Alpha  occ. eigenvalues --  -10.23895 -10.23771 -10.23529 -10.22726 -10.21538
 Alpha  occ. eigenvalues --  -10.20753 -10.20456 -10.19380 -10.19039 -10.18818
 Alpha  occ. eigenvalues --  -10.18569 -10.18493 -10.17903 -10.17221 -10.17044
 Alpha  occ. eigenvalues --   -1.22571  -1.21588  -1.19246  -1.15717  -1.13724
 Alpha  occ. eigenvalues --   -1.13658  -1.10870  -1.08984  -1.08443  -1.07662
 Alpha  occ. eigenvalues --   -1.05625  -1.04677  -1.03950  -1.01207  -0.99888
 Alpha  occ. eigenvalues --   -0.99463  -0.98675  -0.98448  -0.95591  -0.94080
 Alpha  occ. eigenvalues --   -0.91866  -0.91033  -0.90449  -0.90302  -0.89181
 Alpha  occ. eigenvalues --   -0.88643  -0.87809  -0.86947  -0.85482  -0.84636
 Alpha  occ. eigenvalues --   -0.83786  -0.82761  -0.81636  -0.79972  -0.79622
 Alpha  occ. eigenvalues --   -0.79354  -0.79293  -0.77645  -0.76324  -0.76056
 Alpha  occ. eigenvalues --   -0.75072  -0.74402  -0.74113  -0.73998  -0.73458
 Alpha  occ. eigenvalues --   -0.73347  -0.72823  -0.72068  -0.71660  -0.71171
 Alpha  occ. eigenvalues --   -0.69905  -0.69542  -0.68230  -0.67602  -0.67114
 Alpha  occ. eigenvalues --   -0.66328  -0.65572  -0.64939  -0.64399  -0.63194
 Alpha  occ. eigenvalues --   -0.62966  -0.62922  -0.62679  -0.62163  -0.61825
 Alpha  occ. eigenvalues --   -0.61766  -0.60971  -0.60676  -0.60646  -0.60387
 Alpha  occ. eigenvalues --   -0.59598  -0.59209  -0.58736  -0.58320  -0.58084
 Alpha  occ. eigenvalues --   -0.57387  -0.56473  -0.56084  -0.55497  -0.55340
 Alpha  occ. eigenvalues --   -0.55095  -0.54244  -0.53844  -0.53719  -0.53415
 Alpha  occ. eigenvalues --   -0.53092  -0.52274  -0.52140  -0.50993  -0.50660
 Alpha  occ. eigenvalues --   -0.50376  -0.49808  -0.49025  -0.48984  -0.48831
 Alpha  occ. eigenvalues --   -0.48637  -0.48227  -0.47899  -0.47753  -0.47571
 Alpha  occ. eigenvalues --   -0.47439  -0.46727  -0.46493  -0.46215  -0.46054
 Alpha  occ. eigenvalues --   -0.45907  -0.45130  -0.45003  -0.44708  -0.44352
 Alpha  occ. eigenvalues --   -0.44290  -0.43831  -0.43616  -0.43428  -0.43280
 Alpha  occ. eigenvalues --   -0.43206  -0.43088  -0.42650  -0.42433  -0.42287
 Alpha  occ. eigenvalues --   -0.42119  -0.41927  -0.41246  -0.40710  -0.40623
 Alpha  occ. eigenvalues --   -0.40345  -0.39875  -0.39553  -0.39253  -0.39194
 Alpha  occ. eigenvalues --   -0.38828  -0.38783  -0.38389  -0.38225  -0.38003
 Alpha  occ. eigenvalues --   -0.37593  -0.37425  -0.37274  -0.36708  -0.36361
 Alpha  occ. eigenvalues --   -0.36156  -0.35754  -0.35535  -0.34885  -0.34286
 Alpha  occ. eigenvalues --   -0.33619  -0.33383  -0.32796  -0.32772  -0.32395
 Alpha  occ. eigenvalues --   -0.31674  -0.31490  -0.29790  -0.28950  -0.26091
 Alpha  occ. eigenvalues --   -0.25548  -0.24932  -0.23178  -0.22167  -0.21565
 Alpha  occ. eigenvalues --   -0.21062  -0.20527  -0.19862  -0.19344  -0.18820
 Alpha  occ. eigenvalues --   -0.18546
 Alpha virt. eigenvalues --   -0.17799  -0.16708  -0.15148  -0.14968  -0.11692
 Alpha virt. eigenvalues --   -0.10095  -0.09708  -0.09315  -0.08738  -0.07132
 Alpha virt. eigenvalues --   -0.06433  -0.05910  -0.04345  -0.03862  -0.03547

 Mulliken charges:
               1
     1  N   -0.699532
     2  H    0.423779
     3  H    0.428039
     4  H    0.402156
     5  C   -0.130860
     6  H    0.218813
     7  C    0.594870
     8  C   -0.387251
     9  H    0.213429
    10  H    0.200465
    11  O   -0.552418
    12  C    0.305409
    13  C   -0.001462
    14  H    0.221106
    15  N   -0.602855
    16  H    0.417520
    17  C    0.272690
    18  H    0.278255
    19  N   -0.560748
    20  N   -0.583505
    21  H    0.345453
    22  C   -0.068471
    23  H    0.177269
    24  C    0.602237
    25  C    0.112353
    26  H    0.153464
    27  O   -0.570881
    28  C   -0.477610
    29  H    0.185980
    30  H    0.192189
    31  H    0.150602
    32  O   -0.614937
    33  H    0.396877
    34  N   -0.586596
    35  H    0.372067
    36  C   -0.094929
    37  H    0.172316
    38  C    0.646252
    39  C   -0.280594
    40  H    0.166935
    41  H    0.076700
    42  O   -0.505452
    43  C   -0.086206
    44  H    0.191929
    45  C   -0.476898
    46  H    0.094677
    47  H    0.171042
    48  H    0.191517
    49  C   -0.446056
    50  H    0.112214
    51  H    0.170285
    52  H    0.152844
    53  N   -0.577719
    54  H    0.333607
    55  C   -0.081879
    56  H    0.193991
    57  C    0.632000
    58  C   -0.457368
    59  H    0.181139
    60  H    0.151444
    61  H    0.164345
    62  O   -0.573538
    63  N   -0.610872
    64  H    0.348204
    65  C   -0.018615
    66  H    0.176813
    67  C    0.604189
    68  C   -0.366209
    69  H    0.152379
    70  H    0.146360
    71  O   -0.565721
    72  C    0.143871
    73  C   -0.185276
    74  H    0.140282
    75  C   -0.203523
    76  H    0.110544
    77  C   -0.118076
    78  H    0.164785
    79  C   -0.187911
    80  H    0.091196
    81  O   -0.636784
    82  H    0.398359
    83  C    0.361972
    84  N   -0.606575
    85  H    0.395900
    86  C   -0.089123
    87  H    0.166390
    88  C    0.635278
    89  C   -0.352962
    90  H    0.152624
    91  H    0.170327
    92  O   -0.539613
    93  C    0.598085
    94  O   -0.494106
    95  O   -0.569665
    96  N   -0.616651
    97  H    0.352638
    98  C   -0.046143
    99  H    0.162158
   100  C    0.572719
   101  C   -0.254954
   102  H    0.115098
   103  H    0.144644
   104  O   -0.602005
   105  C   -0.276276
   106  H    0.191707
   107  H    0.166734
   108  C   -0.292568
   109  H    0.140164
   110  H    0.143567
   111  C   -0.226063
   112  H    0.246974
   113  H    0.243130
   114  N   -0.718359
   115  H    0.425066
   116  H    0.417160
   117  H    0.416506
   118  O   -0.569623
   119  H    0.401356
 Sum of Mulliken charges =   1.00000

 Dipole moment (field-independent basis, Debye):
    X=            -29.7664    Y=             -2.5236    Z=            -49.4055  Tot=             57.7349
 Quadrupole moment (field-independent basis, Debye-Ang):
   XX=           -275.8242   YY=             65.2867   ZZ=           -200.7884
   XY=            250.9153   XZ=             30.0069   YZ=            107.2543

 Normal termination of Gaussian 16 at Sun Jun 19 13:54:12 2022.
