 Gaussian 16, Revision C.01,
 Gaussian 16:  ES64L-G16RevC.01  3-Jul-2019

 ----------------------------------------------------------------------
 # B3LYP/6-31G* empiricaldispersion=gd3 guess=read geom=check nosymm in
 tegral(ultrafinegrid)
 ----------------------------------------------------------------------

 ------------------------------------------------------
 Candidate Structure: Conf:535 Charge calc in gas phase
 ------------------------------------------------------
 Structure from the checkpoint file:  "conf-535.chk"
 Charge =  1 Multiplicity = 1

                          Input orientation:
 ---------------------------------------------------------------------
 Center     Atomic      Atomic             Coordinates (Angstroms)
 Number     Number       Type             X           Y           Z
 ---------------------------------------------------------------------
      1          7           0       -8.303424   -2.060632   -6.751396
      2          1           0       -9.077517   -1.771758   -6.152857
      3          1           0       -7.988608   -1.233206   -7.268641
      4          1           0       -8.628754   -2.762438   -7.412630
      5          6           0       -7.150490   -2.520520   -5.956393
      6          1           0       -7.500933   -3.092814   -5.092550
      7          6           0       -6.418575   -1.276438   -5.437243
      8          6           0       -6.213975   -3.427857   -6.782539
      9          1           0       -6.667641   -4.419062   -6.861385
     10          1           0       -5.259539   -3.537553   -6.263546
     11          8           0       -6.541650   -0.186282   -5.978312
     12          6           0       -5.966903   -2.920610   -8.186151
     13          6           0       -5.105703   -1.975683   -8.644853
     14          1           0       -4.374413   -1.385326   -8.097763
     15          7           0       -6.729507   -3.340463   -9.271538
     16          1           0       -7.455387   -4.063784   -9.260465
     17          6           0       -6.321446   -2.656977  -10.350889
     18          1           0       -6.725581   -2.765714  -11.334083
     19          7           0       -5.338082   -1.808664   -9.997252
     20          7           0       -5.650174   -1.470791   -4.330521
     21          1           0       -5.441797   -2.407760   -4.016912
     22          6           0       -4.726674   -0.466853   -3.834513
     23          1           0       -4.561247    0.281467   -4.611512
     24          6           0       -3.440973   -1.211706   -3.465116
     25          6           0       -5.309886    0.265811   -2.599278
     26          1           0       -5.498344   -0.495052   -1.829053
     27          8           0       -3.483454   -2.369840   -3.073114
     28          6           0       -4.406217    1.358021   -2.063112
     29          1           0       -3.437362    0.989694   -1.732864
     30          1           0       -4.904370    1.845180   -1.223893
     31          1           0       -4.259515    2.108436   -2.846773
     32          8           0       -6.522058    0.925089   -2.944284
     33          1           0       -7.168833    0.254132   -3.190354
     34          7           0       -2.285976   -0.504656   -3.575540
     35          1           0       -2.349976    0.489473   -3.731882
     36          6           0       -1.058785   -0.972879   -2.955095
     37          1           0       -1.257356   -1.984097   -2.604574
     38          6           0       -0.729951   -0.098310   -1.747899
     39          6           0        0.115133   -0.978607   -3.929664
     40          1           0        0.986759   -1.389511   -3.412272
     41          1           0        0.366430    0.051651   -4.188039
     42          8           0       -0.823184    1.139815   -1.785587
     43          6           0       -0.113860   -1.797132   -5.203986
     44          1           0       -0.906082   -1.317762   -5.785591
     45          6           0        1.158011   -1.793859   -6.045176
     46          1           0        1.973111   -2.273493   -5.497599
     47          1           0        1.467408   -0.774837   -6.290257
     48          1           0        1.014778   -2.336785   -6.982600
     49          6           0       -0.547599   -3.222084   -4.879790
     50          1           0        0.222688   -3.722209   -4.282021
     51          1           0       -0.686070   -3.799881   -5.797502
     52          1           0       -1.480649   -3.251799   -4.322415
     53          7           0       -0.302675   -0.779075   -0.654025
     54          1           0       -0.162394   -1.772352   -0.713395
     55          6           0        0.227579   -0.089478    0.508342
     56          1           0       -0.234547    0.901472    0.490158
     57          6           0        1.737881    0.072594    0.341961
     58          6           0       -0.109294   -0.827088    1.788394
     59          1           0        0.291306   -0.299568    2.662506
     60          1           0        0.336222   -1.823899    1.768963
     61          1           0       -1.191941   -0.918388    1.879964
     62          8           0        2.553076   -0.673054    0.886456
     63          7           0        2.133266    1.085643   -0.469155
     64          1           0        1.430321    1.701081   -0.843374
     65          6           0        3.503969    1.583715   -0.337822
     66          1           0        4.129600    0.695140   -0.242131
     67          6           0        3.588196    2.407509    0.949673
     68          6           0        3.928775    2.391999   -1.562994
     69          1           0        3.645572    1.815285   -2.445269
     70          1           0        3.366415    3.326280   -1.573541
     71          8           0        3.373627    3.622570    0.973341
     72          6           0        5.417057    2.648614   -1.575244
     73          6           0        5.980340    3.725454   -0.880676
     74          1           0        5.329565    4.424009   -0.370718
     75          6           0        6.284090    1.780804   -2.243909
     76          1           0        5.876693    0.947589   -2.802305
     77          6           0        7.359614    3.908343   -0.840338
     78          1           0        7.793372    4.738587   -0.303333
     79          6           0        7.665862    1.965990   -2.218378
     80          1           0        8.312671    1.275995   -2.749440
     81          8           0        9.549085    3.272583   -1.438214
     82          1           0       10.011256    2.597489   -1.941874
     83          6           0        8.204796    3.034496   -1.508822
     84          7           0        3.845957    1.693872    2.062272
     85          1           0        3.830031    0.684226    1.990873
     86          6           0        3.754162    2.301320    3.381261
     87          1           0        2.981845    3.077973    3.329878
     88          6           0        5.111580    2.942661    3.726125
     89          6           0        3.372906    1.273351    4.438757
     90          1           0        3.305723    1.775170    5.404109
     91          1           0        4.119436    0.482911    4.510688
     92          8           0        5.840783    2.529969    4.612031
     93          6           0        1.985125    0.677292    4.109714
     94          8           0        1.056017    1.485885    3.986031
     95          8           0        1.941122   -0.567035    4.050133
     96          7           0        5.470215    3.979339    2.933389
     97          1           0        4.837872    4.290308    2.207937
     98          6           0        6.745368    4.611695    3.127655
     99          1           0        7.543077    3.928762    2.811320
    100          6           0        6.964185    4.989562    4.618344
    101          6           0        6.818708    5.940688    2.394042
    102          1           0        5.896382    6.489645    2.611110
    103          1           0        6.847952    5.761964    1.310450
    104          8           0        8.076793    4.673315    5.088899
    105          6           0        8.011197    6.774463    2.850830
    106          1           0        8.022591    7.711606    2.286961
    107          1           0        7.880984    7.042888    3.904910
    108          6           0        9.342084    6.064568    2.655317
    109          1           0        9.361152    5.143499    3.244400
    110          1           0        9.461385    5.782092    1.603914
    111          6           0       10.505092    6.936433    3.078874
    112          1           0       10.392447    7.180225    4.139144
    113          1           0       10.473290    7.876305    2.524058
    114          7           0       11.819559    6.279799    2.865302
    115          1           0       12.596001    6.843821    3.212264
    116          1           0       11.987435    6.104295    1.875085
    117          1           0       11.854691    5.379997    3.342243
    118          8           0        6.062528    5.635771    5.165083
    119          1           0       -4.835258   -1.161886  -10.609948
 ---------------------------------------------------------------------

 SCF Done:  E(RB3LYP) =  -2933.53552228     A.U. after    4 cycles

 Alpha  occ. eigenvalues --  -19.28301 -19.23751 -19.22556 -19.21452 -19.17741
 Alpha  occ. eigenvalues --  -19.13635 -19.12351 -19.08511 -19.06419 -19.05469
 Alpha  occ. eigenvalues --  -19.05160 -19.04947 -14.64846 -14.59092 -14.57058
 Alpha  occ. eigenvalues --  -14.55609 -14.50909 -14.45728 -14.41786 -14.38255
 Alpha  occ. eigenvalues --  -14.35677 -14.32828 -10.45563 -10.44516 -10.40741
 Alpha  occ. eigenvalues --  -10.40605 -10.39710 -10.39451 -10.39402 -10.34827
 Alpha  occ. eigenvalues --  -10.34556 -10.33947 -10.33623 -10.30574 -10.30570
 Alpha  occ. eigenvalues --  -10.28972 -10.27796 -10.26047 -10.25644 -10.25271
 Alpha  occ. eigenvalues --  -10.25227 -10.24966 -10.24925 -10.24812 -10.24072
 Alpha  occ. eigenvalues --  -10.23935 -10.22777 -10.22554 -10.22005 -10.21933
 Alpha  occ. eigenvalues --  -10.21871 -10.21731 -10.21582 -10.21260 -10.21175
 Alpha  occ. eigenvalues --  -10.20557 -10.20475 -10.19807 -10.16904 -10.13994
 Alpha  occ. eigenvalues --   -1.22210  -1.20776  -1.18939  -1.14977  -1.13881
 Alpha  occ. eigenvalues --   -1.11650  -1.09724  -1.09252  -1.08284  -1.07121
 Alpha  occ. eigenvalues --   -1.05854  -1.04176  -1.02300  -1.01123  -0.99386
 Alpha  occ. eigenvalues --   -0.99178  -0.98786  -0.98031  -0.94793  -0.93384
 Alpha  occ. eigenvalues --   -0.92291  -0.90423  -0.90207  -0.89757  -0.89595
 Alpha  occ. eigenvalues --   -0.88349  -0.88277  -0.87868  -0.86118  -0.83431
 Alpha  occ. eigenvalues --   -0.83272  -0.81723  -0.80996  -0.80706  -0.79011
 Alpha  occ. eigenvalues --   -0.78761  -0.78403  -0.77681  -0.77671  -0.76326
 Alpha  occ. eigenvalues --   -0.75464  -0.74529  -0.74173  -0.73716  -0.73157
 Alpha  occ. eigenvalues --   -0.72662  -0.72038  -0.71530  -0.70600  -0.69396
 Alpha  occ. eigenvalues --   -0.68520  -0.68207  -0.67913  -0.67061  -0.66196
 Alpha  occ. eigenvalues --   -0.65943  -0.65274  -0.65091  -0.64029  -0.63453
 Alpha  occ. eigenvalues --   -0.63116  -0.62981  -0.62317  -0.62073  -0.61484
 Alpha  occ. eigenvalues --   -0.61113  -0.60640  -0.60530  -0.60103  -0.59884
 Alpha  occ. eigenvalues --   -0.59808  -0.58834  -0.58416  -0.57649  -0.57605
 Alpha  occ. eigenvalues --   -0.57273  -0.56152  -0.55769  -0.55463  -0.55014
 Alpha  occ. eigenvalues --   -0.54905  -0.54598  -0.54248  -0.52314  -0.52243
 Alpha  occ. eigenvalues --   -0.51954  -0.51706  -0.51146  -0.50995  -0.50198
 Alpha  occ. eigenvalues --   -0.50062  -0.49846  -0.49228  -0.48896  -0.48781
 Alpha  occ. eigenvalues --   -0.48345  -0.48234  -0.47657  -0.47465  -0.46854
 Alpha  occ. eigenvalues --   -0.46558  -0.46431  -0.46393  -0.45824  -0.45685
 Alpha  occ. eigenvalues --   -0.45148  -0.45049  -0.44930  -0.44823  -0.44022
 Alpha  occ. eigenvalues --   -0.43666  -0.43478  -0.43337  -0.43153  -0.42945
 Alpha  occ. eigenvalues --   -0.42846  -0.42637  -0.42052  -0.41363  -0.41260
 Alpha  occ. eigenvalues --   -0.40787  -0.40682  -0.40618  -0.40209  -0.40013
 Alpha  occ. eigenvalues --   -0.39898  -0.39719  -0.39490  -0.39377  -0.39165
 Alpha  occ. eigenvalues --   -0.38970  -0.38470  -0.38191  -0.37749  -0.37442
 Alpha  occ. eigenvalues --   -0.37328  -0.36893  -0.36861  -0.36606  -0.36369
 Alpha  occ. eigenvalues --   -0.36170  -0.35782  -0.35525  -0.35372  -0.35261
 Alpha  occ. eigenvalues --   -0.34796  -0.34223  -0.32574  -0.32139  -0.31941
 Alpha  occ. eigenvalues --   -0.31823  -0.30995  -0.29295  -0.27935  -0.26852
 Alpha  occ. eigenvalues --   -0.26481  -0.25689  -0.24614  -0.23304  -0.21653
 Alpha  occ. eigenvalues --   -0.21069  -0.20512  -0.19008  -0.18724  -0.18480
 Alpha  occ. eigenvalues --   -0.18111
 Alpha virt. eigenvalues --   -0.17535  -0.16148  -0.14951  -0.13238  -0.11271
 Alpha virt. eigenvalues --   -0.09252  -0.08742  -0.08209  -0.07668  -0.05433
 Alpha virt. eigenvalues --   -0.04917  -0.04736  -0.04529  -0.03896  -0.03197

 Mulliken charges:
               1
     1  N   -0.683323
     2  H    0.416527
     3  H    0.426740
     4  H    0.328387
     5  C   -0.127056
     6  H    0.231103
     7  C    0.602492
     8  C   -0.384533
     9  H    0.199941
    10  H    0.242418
    11  O   -0.499254
    12  C    0.269817
    13  C    0.021499
    14  H    0.222469
    15  N   -0.617049
    16  H    0.361089
    17  C    0.211449
    18  H    0.225509
    19  N   -0.564379
    20  N   -0.613376
    21  H    0.357296
    22  C   -0.074798
    23  H    0.185892
    24  C    0.609928
    25  C    0.130978
    26  H    0.143642
    27  O   -0.532067
    28  C   -0.481522
    29  H    0.191495
    30  H    0.195145
    31  H    0.158523
    32  O   -0.599510
    33  H    0.383795
    34  N   -0.585874
    35  H    0.351801
    36  C   -0.095989
    37  H    0.189658
    38  C    0.632785
    39  C   -0.265111
    40  H    0.159422
    41  H    0.156915
    42  O   -0.562411
    43  C   -0.064237
    44  H    0.101823
    45  C   -0.441900
    46  H    0.155691
    47  H    0.148411
    48  H    0.138272
    49  C   -0.472933
    50  H    0.153441
    51  H    0.130805
    52  H    0.165602
    53  N   -0.575331
    54  H    0.337887
    55  C   -0.084203
    56  H    0.194035
    57  C    0.631526
    58  C   -0.465226
    59  H    0.262174
    60  H    0.148482
    61  H    0.118882
    62  O   -0.519830
    63  N   -0.610706
    64  H    0.345873
    65  C   -0.045101
    66  H    0.177130
    67  C    0.639278
    68  C   -0.368739
    69  H    0.132613
    70  H    0.167961
    71  O   -0.569275
    72  C    0.149735
    73  C   -0.188784
    74  H    0.163318
    75  C   -0.184489
    76  H    0.119369
    77  C   -0.160047
    78  H    0.128815
    79  C   -0.191827
    80  H    0.114618
    81  O   -0.660688
    82  H    0.406091
    83  C    0.351298
    84  N   -0.596668
    85  H    0.376634
    86  C   -0.086521
    87  H    0.197493
    88  C    0.647449
    89  C   -0.355681
    90  H    0.171645
    91  H    0.148996
    92  O   -0.508668
    93  C    0.591882
    94  O   -0.557817
    95  O   -0.526656
    96  N   -0.641480
    97  H    0.358476
    98  C    0.037110
    99  H    0.129141
   100  C    0.610018
   101  C   -0.325503
   102  H    0.178761
   103  H    0.129463
   104  O   -0.594702
   105  C   -0.286875
   106  H    0.119061
   107  H    0.208209
   108  C   -0.291336
   109  H    0.214303
   110  H    0.136940
   111  C   -0.232668
   112  H    0.240819
   113  H    0.204360
   114  N   -0.715632
   115  H    0.420164
   116  H    0.420332
   117  H    0.435136
   118  O   -0.547980
   119  H    0.391517
 Sum of Mulliken charges =   1.00000

 Dipole moment (field-independent basis, Debye):
    X=            -18.3560    Y=             -7.2225    Z=            -60.8106  Tot=             63.9299
 Quadrupole moment (field-independent basis, Debye-Ang):
   XX=            355.0116   YY=           -235.3337   ZZ=            -64.3166
   XY=            301.8997   XZ=            301.4882   YZ=            110.5217

 Normal termination of Gaussian 16 at Sun Jun 19 13:53:55 2022.
