 Gaussian 16, Revision C.01,
 Gaussian 16:  ES64L-G16RevC.01  3-Jul-2019

 ----------------------------------------------------------------------
 # B3LYP/6-31G* empiricaldispersion=gd3 guess=read geom=check nosymm in
 tegral(ultrafinegrid)
 ----------------------------------------------------------------------

 ------------------------------------------------------
 Candidate Structure: Conf:962 Charge calc in gas phase
 ------------------------------------------------------
 Structure from the checkpoint file:  "conf-962.chk"
 Charge =  1 Multiplicity = 1

                          Input orientation:
 ---------------------------------------------------------------------
 Center     Atomic      Atomic             Coordinates (Angstroms)
 Number     Number       Type             X           Y           Z
 ---------------------------------------------------------------------
      1          7           0       -4.306212   -0.884859   -7.857991
      2          1           0       -5.105151   -0.294738   -8.127785
      3          1           0       -3.581680   -0.248325   -7.447188
      4          1           0       -3.947177   -1.367786   -8.695626
      5          6           0       -4.646700   -1.798110   -6.694757
      6          1           0       -5.640437   -2.226603   -6.840326
      7          6           0       -4.531022   -0.871206   -5.488924
      8          6           0       -3.548630   -2.915695   -6.643193
      9          1           0       -2.575224   -2.412225   -6.573050
     10          1           0       -3.553800   -3.507136   -7.566062
     11          8           0       -3.577661   -0.054448   -5.519482
     12          6           0       -3.716263   -3.819879   -5.472602
     13          6           0       -4.260140   -5.067696   -5.349437
     14          1           0       -4.654061   -5.742337   -6.093090
     15          7           0       -3.341776   -3.420000   -4.193116
     16          1           0       -2.963018   -2.481538   -3.933497
     17          6           0       -3.659808   -4.384023   -3.301977
     18          1           0       -3.535427   -4.324272   -2.233397
     19          7           0       -4.212188   -5.399302   -4.008207
     20          7           0       -5.383476   -1.041981   -4.454296
     21          1           0       -6.141481   -1.709248   -4.527613
     22          6           0       -5.183283   -0.401862   -3.145499
     23          1           0       -4.780341    0.598529   -3.341534
     24          6           0       -4.140127   -1.228404   -2.352305
     25          6           0       -6.530000   -0.296262   -2.401038
     26          1           0       -6.866355   -1.312943   -2.167535
     27          8           0       -4.441116   -1.961947   -1.427762
     28          6           0       -6.405289    0.513264   -1.113402
     29          1           0       -5.699874    0.051935   -0.417894
     30          1           0       -7.385710    0.576531   -0.634246
     31          1           0       -6.058201    1.532637   -1.328792
     32          8           0       -7.523398    0.220261   -3.281161
     33          1           0       -7.327108    1.160031   -3.438967
     34          7           0       -2.861010   -1.198939   -2.894588
     35          1           0       -2.716733   -0.386141   -3.492601
     36          6           0       -1.708910   -1.416663   -1.996653
     37          1           0       -1.821769   -2.390097   -1.512112
     38          6           0       -1.738572   -0.296222   -0.930261
     39          6           0       -0.386653   -1.305664   -2.777736
     40          1           0        0.431972   -1.321727   -2.051084
     41          1           0       -0.358016   -0.300335   -3.221956
     42          8           0       -2.236129    0.790823   -1.205998
     43          6           0       -0.124014   -2.360343   -3.865681
     44          1           0       -0.967811   -2.346980   -4.578832
     45          6           0        1.142379   -1.981366   -4.650597
     46          1           0        2.014474   -1.958893   -3.987020
     47          1           0        1.046852   -0.989306   -5.107759
     48          1           0        1.346128   -2.707640   -5.446423
     49          6           0        0.013055   -3.772395   -3.276875
     50          1           0        0.866470   -3.811887   -2.590037
     51          1           0        0.186251   -4.514252   -4.064868
     52          1           0       -0.876808   -4.087461   -2.717876
     53          7           0       -1.167873   -0.630567    0.255427
     54          1           0       -0.604360   -1.475598    0.224939
     55          6           0       -0.553097    0.384680    1.111492
     56          1           0       -1.211146    1.257264    1.139965
     57          6           0        0.819313    0.754367    0.503087
     58          6           0       -0.338556   -0.189264    2.521428
     59          1           0        0.160049    0.535722    3.171789
     60          1           0        0.307879   -1.073780    2.477004
     61          1           0       -1.295492   -0.472210    2.970341
     62          8           0        1.345428    0.010834   -0.321707
     63          7           0        1.407194    1.882096    0.989814
     64          1           0        1.029033    2.240422    1.862560
     65          6           0        2.884140    1.947975    0.931198
     66          1           0        3.176019    1.586047   -0.054902
     67          6           0        3.353656    0.992968    2.052605
     68          6           0        3.379244    3.380608    1.177643
     69          1           0        2.851446    4.061973    0.499314
     70          1           0        3.096236    3.643244    2.205158
     71          8           0        3.160520    1.323080    3.233981
     72          6           0        4.877227    3.520101    0.988327
     73          6           0        5.783763    3.009586    1.931314
     74          1           0        5.408097    2.512981    2.820180
     75          6           0        5.396539    4.120055   -0.164354
     76          1           0        4.716202    4.517411   -0.915384
     77          6           0        7.156931    3.087067    1.721783
     78          1           0        7.849909    2.609846    2.404954
     79          6           0        6.772327    4.232844   -0.371891
     80          1           0        7.153918    4.715385   -1.270931
     81          8           0        9.024489    3.789030    0.443152
     82          1           0        9.227618    4.164767   -0.428217
     83          6           0        7.656059    3.713733    0.577817
     84          7           0        3.824293   -0.181825    1.633743
     85          1           0        4.085090   -0.367708    0.648420
     86          6           0        4.400409   -1.175656    2.528400
     87          1           0        3.761843   -1.274122    3.414269
     88          6           0        5.791014   -0.690920    2.998105
     89          6           0        4.476041   -2.523670    1.787909
     90          1           0        3.451478   -2.827890    1.532860
     91          1           0        4.919215   -3.279060    2.440241
     92          8           0        6.541378   -0.077556    2.235546
     93          6           0        5.242088   -2.475797    0.402710
     94          8           0        6.108255   -3.354887    0.238402
     95          8           0        4.842809   -1.590823   -0.414961
     96          7           0        6.086942   -0.944069    4.291012
     97          1           0        5.571571   -1.594704    4.884834
     98          6           0        7.380702   -0.593339    4.845844
     99          1           0        8.164664   -0.925047    4.152038
    100          6           0        7.564776   -1.317072    6.220363
    101          6           0        7.487641    0.934889    5.002858
    102          1           0        6.947712    1.256225    5.903476
    103          1           0        6.993427    1.396279    4.143768
    104          8           0        8.631314   -1.025400    6.830730
    105          6           0        8.944009    1.388728    5.047056
    106          1           0        9.438088    0.893686    5.891286
    107          1           0        9.440805    1.044249    4.127399
    108          6           0        9.070429    2.915748    5.129384
    109          1           0        8.557060    3.377507    4.272502
    110          1           0        8.582075    3.287313    6.043112
    111          6           0       10.533610    3.314055    5.114790
    112          1           0       11.034285    2.996456    4.196407
    113          1           0       11.084820    2.921365    5.972946
    114          7           0       10.666650    4.842229    5.164124
    115          1           0       11.642446    5.162055    5.142690
    116          1           0       10.227446    5.210006    6.016939
    117          1           0       10.174291    5.259335    4.363601
    118          8           0        6.641638   -2.081063    6.586297
    119          1           0       -4.547166   -6.263650   -3.603835
 ---------------------------------------------------------------------

 SCF Done:  E(RB3LYP) =  -2933.58935729     A.U. after    4 cycles

 Alpha  occ. eigenvalues --  -19.27792 -19.25747 -19.25506 -19.20767 -19.19887
 Alpha  occ. eigenvalues --  -19.16382 -19.11097 -19.08756 -19.06188 -19.05213
 Alpha  occ. eigenvalues --  -19.05010 -19.04724 -14.63666 -14.59274 -14.57476
 Alpha  occ. eigenvalues --  -14.54594 -14.52125 -14.47907 -14.43073 -14.39812
 Alpha  occ. eigenvalues --  -14.34012 -14.32457 -10.44373 -10.44274 -10.43043
 Alpha  occ. eigenvalues --  -10.41974 -10.40451 -10.40002 -10.39100 -10.36680
 Alpha  occ. eigenvalues --  -10.36242 -10.35298 -10.35165 -10.33198 -10.33076
 Alpha  occ. eigenvalues --  -10.29216 -10.28283 -10.28094 -10.27115 -10.27005
 Alpha  occ. eigenvalues --  -10.26984 -10.26520 -10.26001 -10.25772 -10.24818
 Alpha  occ. eigenvalues --  -10.24683 -10.23724 -10.23669 -10.22759 -10.21705
 Alpha  occ. eigenvalues --  -10.21353 -10.21339 -10.21281 -10.21063 -10.20818
 Alpha  occ. eigenvalues --  -10.20362 -10.20301 -10.18904 -10.17950 -10.16988
 Alpha  occ. eigenvalues --   -1.20889  -1.20438  -1.17536  -1.16433  -1.13114
 Alpha  occ. eigenvalues --   -1.13085  -1.11690  -1.08438  -1.08229  -1.08149
 Alpha  occ. eigenvalues --   -1.07556  -1.04393  -1.02795  -1.00482  -0.99814
 Alpha  occ. eigenvalues --   -0.98442  -0.98267  -0.97736  -0.96068  -0.93175
 Alpha  occ. eigenvalues --   -0.91393  -0.90576  -0.89691  -0.89438  -0.89384
 Alpha  occ. eigenvalues --   -0.88546  -0.88048  -0.87316  -0.85792  -0.85227
 Alpha  occ. eigenvalues --   -0.82834  -0.82713  -0.81076  -0.80271  -0.79529
 Alpha  occ. eigenvalues --   -0.78383  -0.76996  -0.76719  -0.76528  -0.76233
 Alpha  occ. eigenvalues --   -0.76212  -0.75389  -0.74351  -0.73599  -0.73486
 Alpha  occ. eigenvalues --   -0.72586  -0.72134  -0.71728  -0.70981  -0.70944
 Alpha  occ. eigenvalues --   -0.69704  -0.68413  -0.67630  -0.67422  -0.66292
 Alpha  occ. eigenvalues --   -0.66161  -0.65814  -0.65241  -0.64349  -0.64211
 Alpha  occ. eigenvalues --   -0.63441  -0.63144  -0.62803  -0.62117  -0.61932
 Alpha  occ. eigenvalues --   -0.61668  -0.61127  -0.60985  -0.60048  -0.59374
 Alpha  occ. eigenvalues --   -0.59005  -0.58704  -0.58458  -0.57971  -0.57433
 Alpha  occ. eigenvalues --   -0.57080  -0.56489  -0.56155  -0.55751  -0.55316
 Alpha  occ. eigenvalues --   -0.54980  -0.54900  -0.54675  -0.54022  -0.53449
 Alpha  occ. eigenvalues --   -0.52909  -0.52454  -0.52136  -0.51897  -0.51064
 Alpha  occ. eigenvalues --   -0.50784  -0.50608  -0.49992  -0.49213  -0.48991
 Alpha  occ. eigenvalues --   -0.48873  -0.48322  -0.48147  -0.48094  -0.47894
 Alpha  occ. eigenvalues --   -0.47618  -0.47353  -0.47089  -0.46840  -0.46549
 Alpha  occ. eigenvalues --   -0.45681  -0.45637  -0.45332  -0.45117  -0.44575
 Alpha  occ. eigenvalues --   -0.44431  -0.44257  -0.44128  -0.43481  -0.43418
 Alpha  occ. eigenvalues --   -0.43115  -0.42869  -0.42830  -0.42575  -0.42284
 Alpha  occ. eigenvalues --   -0.42282  -0.41925  -0.41480  -0.41339  -0.41218
 Alpha  occ. eigenvalues --   -0.41062  -0.40926  -0.40638  -0.40232  -0.40003
 Alpha  occ. eigenvalues --   -0.39830  -0.38873  -0.38613  -0.38558  -0.38193
 Alpha  occ. eigenvalues --   -0.37765  -0.37424  -0.37298  -0.37212  -0.36575
 Alpha  occ. eigenvalues --   -0.36372  -0.35794  -0.35454  -0.35155  -0.34663
 Alpha  occ. eigenvalues --   -0.34326  -0.34062  -0.33702  -0.33378  -0.32960
 Alpha  occ. eigenvalues --   -0.32160  -0.31236  -0.30779  -0.29606  -0.26937
 Alpha  occ. eigenvalues --   -0.25317  -0.24921  -0.23930  -0.22672  -0.22365
 Alpha  occ. eigenvalues --   -0.20625  -0.20017  -0.19327  -0.18998  -0.18549
 Alpha  occ. eigenvalues --   -0.18216
 Alpha virt. eigenvalues --   -0.17469  -0.16530  -0.14320  -0.13651  -0.12442
 Alpha virt. eigenvalues --   -0.10022  -0.08848  -0.07374  -0.06762  -0.06134
 Alpha virt. eigenvalues --   -0.05926  -0.04223  -0.03807  -0.03495  -0.03190

 Mulliken charges:
               1
     1  N   -0.724362
     2  H    0.415038
     3  H    0.432471
     4  H    0.400989
     5  C   -0.112704
     6  H    0.208842
     7  C    0.600317
     8  C   -0.391240
     9  H    0.222215
    10  H    0.198425
    11  O   -0.573871
    12  C    0.323373
    13  C   -0.002602
    14  H    0.220728
    15  N   -0.625971
    16  H    0.459681
    17  C    0.274245
    18  H    0.267637
    19  N   -0.559375
    20  N   -0.594751
    21  H    0.351695
    22  C   -0.088372
    23  H    0.203791
    24  C    0.649044
    25  C    0.116367
    26  H    0.159422
    27  O   -0.494420
    28  C   -0.479641
    29  H    0.196339
    30  H    0.185367
    31  H    0.154597
    32  O   -0.621250
    33  H    0.397107
    34  N   -0.716440
    35  H    0.379628
    36  C   -0.084140
    37  H    0.160703
    38  C    0.646298
    39  C   -0.301366
    40  H    0.232634
    41  H    0.157393
    42  O   -0.541828
    43  C   -0.082462
    44  H    0.068795
    45  C   -0.451206
    46  H    0.204510
    47  H    0.142715
    48  H    0.141447
    49  C   -0.452839
    50  H    0.197530
    51  H    0.149075
    52  H    0.105313
    53  N   -0.566474
    54  H    0.339165
    55  C   -0.096261
    56  H    0.184967
    57  C    0.623769
    58  C   -0.467583
    59  H    0.190614
    60  H    0.175924
    61  H    0.166398
    62  O   -0.515425
    63  N   -0.591995
    64  H    0.333670
    65  C   -0.049394
    66  H    0.188372
    67  C    0.623448
    68  C   -0.367464
    69  H    0.136083
    70  H    0.159987
    71  O   -0.593901
    72  C    0.148741
    73  C   -0.184289
    74  H    0.179789
    75  C   -0.186357
    76  H    0.117066
    77  C   -0.161261
    78  H    0.149474
    79  C   -0.190567
    80  H    0.110133
    81  O   -0.666250
    82  H    0.404617
    83  C    0.341091
    84  N   -0.590766
    85  H    0.395661
    86  C   -0.076008
    87  H    0.145443
    88  C    0.653774
    89  C   -0.359622
    90  H    0.126454
    91  H    0.158417
    92  O   -0.551167
    93  C    0.590711
    94  O   -0.514321
    95  O   -0.596839
    96  N   -0.622714
    97  H    0.343680
    98  C   -0.036538
    99  H    0.152495
   100  C    0.576593
   101  C   -0.274567
   102  H    0.135003
   103  H    0.166383
   104  O   -0.568214
   105  C   -0.282159
   106  H    0.198636
   107  H    0.147966
   108  C   -0.295989
   109  H    0.156019
   110  H    0.155655
   111  C   -0.208999
   112  H    0.227867
   113  H    0.227492
   114  N   -0.731423
   115  H    0.418500
   116  H    0.419953
   117  H    0.425965
   118  O   -0.569920
   119  H    0.395600
 Sum of Mulliken charges =   1.00000

 Dipole moment (field-independent basis, Debye):
    X=            -23.2346    Y=              9.4094    Z=            -36.2334  Tot=             44.0595
 Quadrupole moment (field-independent basis, Debye-Ang):
   XX=            -48.8585   YY=           -194.9259   ZZ=           -108.2350
   XY=            333.1303   XZ=            225.6527   YZ=            202.0670

 Normal termination of Gaussian 16 at Sun Jun 19 13:54:13 2022.
