 Gaussian 16, Revision C.01,
 Gaussian 16:  ES64L-G16RevC.01  3-Jul-2019

 ----------------------------------------------------------------------
 # B3LYP/6-31G* empiricaldispersion=gd3 guess=read geom=check nosymm in
 tegral(ultrafinegrid)
 ----------------------------------------------------------------------

 ------------------------------------------------------
 Candidate Structure: Conf:472 Charge calc in gas phase
 ------------------------------------------------------
 Structure from the checkpoint file:  "conf-472.chk"
 Charge =  1 Multiplicity = 1

                          Input orientation:
 ---------------------------------------------------------------------
 Center     Atomic      Atomic             Coordinates (Angstroms)
 Number     Number       Type             X           Y           Z
 ---------------------------------------------------------------------
      1          7           0       -7.786705   -5.917101   -4.597535
      2          1           0       -8.594747   -5.629966   -4.039910
      3          1           0       -7.917425   -5.442418   -5.495044
      4          1           0       -7.782008   -6.934285   -4.712190
      5          6           0       -6.509422   -5.414011   -3.986745
      6          1           0       -6.398875   -5.881471   -3.004127
      7          6           0       -6.687772   -3.887565   -3.895446
      8          6           0       -5.298413   -5.806091   -4.870537
      9          1           0       -4.402569   -5.399964   -4.395073
     10          1           0       -5.395741   -5.309198   -5.845966
     11          8           0       -7.569634   -3.374276   -4.585122
     12          6           0       -5.165088   -7.281304   -5.043124
     13          6           0       -4.480309   -8.205327   -4.310378
     14          1           0       -3.816758   -8.059712   -3.468723
     15          7           0       -5.913737   -8.001782   -6.009047
     16          1           0       -6.307415   -7.615546   -6.854944
     17          6           0       -5.632326   -9.357191   -5.854859
     18          1           0       -5.912920  -10.150881   -6.520190
     19          7           0       -4.748234   -9.445221   -4.813908
     20          7           0       -5.830808   -3.266455   -3.081220
     21          1           0       -5.057780   -3.774859   -2.653170
     22          6           0       -5.606126   -1.819410   -3.032519
     23          1           0       -6.114277   -1.343752   -3.874770
     24          6           0       -4.080405   -1.685934   -3.090650
     25          6           0       -6.188153   -1.219660   -1.723529
     26          1           0       -5.707068   -1.735612   -0.878368
     27          8           0       -3.397825   -2.538520   -2.517720
     28          6           0       -5.959517    0.280887   -1.625721
     29          1           0       -4.899553    0.551544   -1.609140
     30          1           0       -6.431444    0.650400   -0.712461
     31          1           0       -6.440457    0.781734   -2.474327
     32          8           0       -7.595102   -1.419944   -1.698056
     33          1           0       -7.765889   -2.370703   -1.631598
     34          7           0       -3.573174   -0.648923   -3.790583
     35          1           0       -4.196951    0.127387   -3.978833
     36          6           0       -2.158235   -0.287667   -3.635348
     37          1           0       -1.597505   -1.223789   -3.630675
     38          6           0       -1.996361    0.446088   -2.295819
     39          6           0       -1.722221    0.611837   -4.796855
     40          1           0       -2.386660    1.485263   -4.809421
     41          1           0       -1.882084    0.064347   -5.734803
     42          8           0       -2.717461    1.413816   -2.032393
     43          6           0       -0.264239    1.099953   -4.728369
     44          1           0       -0.125999    1.626483   -3.773734
     45          6           0        0.746580   -0.051941   -4.786246
     46          1           0        0.657283   -0.599948   -5.732615
     47          1           0        0.616014   -0.765522   -3.965532
     48          1           0        1.769461    0.332671   -4.716179
     49          6           0       -0.008403    2.103322   -5.860568
     50          1           0       -0.144504    1.627650   -6.839626
     51          1           0        1.015147    2.489874   -5.817708
     52          1           0       -0.690892    2.957617   -5.798693
     53          7           0       -1.033421   -0.028849   -1.494501
     54          1           0       -0.484796   -0.849831   -1.732525
     55          6           0       -0.616351    0.606056   -0.256926
     56          1           0       -0.560060    1.687282   -0.425074
     57          6           0        0.779562    0.029459    0.037552
     58          6           0       -1.599481    0.326265    0.888123
     59          1           0       -1.267515    0.814299    1.809120
     60          1           0       -1.675592   -0.750882    1.067412
     61          1           0       -2.584559    0.714271    0.615560
     62          8           0        1.134976   -1.033650   -0.483169
     63          7           0        1.528464    0.739493    0.887191
     64          1           0        1.232047    1.638141    1.259975
     65          6           0        2.896169    0.402006    1.229905
     66          1           0        2.933531   -0.616096    1.631576
     67          6           0        3.319403    1.411110    2.308686
     68          6           0        3.848661    0.473321   -0.005394
     69          1           0        4.882459    0.452027    0.356393
     70          1           0        3.671195   -0.425084   -0.599843
     71          8           0        2.687443    2.458345    2.479624
     72          6           0        3.582808    1.699477   -0.843002
     73          6           0        2.782674    1.617539   -1.990800
     74          1           0        2.395588    0.649528   -2.296852
     75          6           0        4.058146    2.959157   -0.460406
     76          1           0        4.695898    3.034466    0.414787
     77          6           0        2.449758    2.752337   -2.728176
     78          1           0        1.827278    2.688408   -3.613717
     79          6           0        3.723683    4.103015   -1.185312
     80          1           0        4.084314    5.077633   -0.857473
     81          8           0        2.533345    5.094307   -3.062115
     82          1           0        2.828542    5.893798   -2.604227
     83          6           0        2.910965    4.003016   -2.316856
     84          7           0        4.419301    1.053762    2.982836
     85          1           0        4.966016    0.223779    2.724229
     86          6           0        5.178584    1.965150    3.814182
     87          1           0        4.492363    2.650367    4.318986
     88          6           0        6.167091    2.764331    2.944822
     89          6           0        6.009243    1.133661    4.820740
     90          1           0        5.331897    0.475179    5.374252
     91          1           0        6.542724    1.796138    5.508308
     92          8           0        6.467600    2.405073    1.803883
     93          6           0        7.016126    0.279579    4.016900
     94          8           0        8.226272    0.578001    4.081219
     95          8           0        6.530526   -0.644297    3.298128
     96          7           0        6.702971    3.852969    3.543999
     97          1           0        6.594727    3.987094    4.556468
     98          6           0        8.038793    4.301219    3.190223
     99          1           0        8.620425    3.450094    2.811899
    100          6           0        8.711319    4.816246    4.515561
    101          6           0        8.076953    5.407846    2.138514
    102          1           0        9.108308    5.781157    2.163030
    103          1           0        7.419355    6.235967    2.435489
    104          8           0        9.856019    5.301046    4.373727
    105          6           0        7.701853    4.904184    0.742028
    106          1           0        8.359043    4.069404    0.467927
    107          1           0        6.693601    4.483023    0.749916
    108          6           0        7.806798    5.994400   -0.334523
    109          1           0        7.440598    5.611929   -1.298873
    110          1           0        7.183127    6.857927   -0.062442
    111          6           0        9.253685    6.440064   -0.483672
    112          1           0        9.904799    5.598084   -0.732380
    113          1           0        9.627755    6.901954    0.431609
    114          7           0        9.409164    7.471028   -1.589357
    115          1           0       10.380088    7.785065   -1.695331
    116          1           0        8.832063    8.295897   -1.393750
    117          1           0        9.101758    7.087429   -2.489236
    118          8           0        8.032427    4.698573    5.562811
    119          1           0       -4.321832  -10.307033   -4.494792
 ---------------------------------------------------------------------

 SCF Done:  E(RB3LYP) =  -2933.57564494     A.U. after    4 cycles

 Alpha  occ. eigenvalues --  -19.27704 -19.23888 -19.22458 -19.20973 -19.16969
 Alpha  occ. eigenvalues --  -19.15339 -19.12464 -19.10994 -19.08244 -19.07336
 Alpha  occ. eigenvalues --  -19.07200 -19.06348 -14.65096 -14.60364 -14.56094
 Alpha  occ. eigenvalues --  -14.55660 -14.50976 -14.45878 -14.41160 -14.38637
 Alpha  occ. eigenvalues --  -14.34879 -14.33257 -10.45252 -10.44262 -10.40724
 Alpha  occ. eigenvalues --  -10.39890 -10.39528 -10.39272 -10.39262 -10.35707
 Alpha  occ. eigenvalues --  -10.34537 -10.34214 -10.33783 -10.32252 -10.30399
 Alpha  occ. eigenvalues --  -10.29188 -10.27912 -10.27758 -10.27491 -10.27337
 Alpha  occ. eigenvalues --  -10.25435 -10.25066 -10.25018 -10.24772 -10.24695
 Alpha  occ. eigenvalues --  -10.24114 -10.22854 -10.22580 -10.22579 -10.22545
 Alpha  occ. eigenvalues --  -10.22095 -10.21480 -10.21247 -10.21101 -10.20840
 Alpha  occ. eigenvalues --  -10.20580 -10.20311 -10.20071 -10.19654 -10.16959
 Alpha  occ. eigenvalues --   -1.21692  -1.19124  -1.17978  -1.14549  -1.14417
 Alpha  occ. eigenvalues --   -1.11625  -1.09022  -1.08858  -1.07435  -1.07262
 Alpha  occ. eigenvalues --   -1.07177  -1.04287  -1.02540  -1.02152  -1.00328
 Alpha  occ. eigenvalues --   -0.99704  -0.98735  -0.97760  -0.95483  -0.92789
 Alpha  occ. eigenvalues --   -0.92652  -0.91690  -0.90938  -0.89908  -0.89212
 Alpha  occ. eigenvalues --   -0.89207  -0.87569  -0.87401  -0.85533  -0.83096
 Alpha  occ. eigenvalues --   -0.82760  -0.81615  -0.80691  -0.80474  -0.79624
 Alpha  occ. eigenvalues --   -0.79242  -0.77556  -0.77294  -0.77055  -0.76709
 Alpha  occ. eigenvalues --   -0.75423  -0.74239  -0.73855  -0.73685  -0.73009
 Alpha  occ. eigenvalues --   -0.72713  -0.72375  -0.72209  -0.70758  -0.69900
 Alpha  occ. eigenvalues --   -0.68971  -0.67838  -0.67484  -0.67214  -0.66818
 Alpha  occ. eigenvalues --   -0.66640  -0.64823  -0.64645  -0.63411  -0.62830
 Alpha  occ. eigenvalues --   -0.62703  -0.62351  -0.61984  -0.61861  -0.61661
 Alpha  occ. eigenvalues --   -0.61553  -0.61426  -0.60665  -0.60256  -0.59801
 Alpha  occ. eigenvalues --   -0.59596  -0.58706  -0.57915  -0.57686  -0.56939
 Alpha  occ. eigenvalues --   -0.56747  -0.56440  -0.56156  -0.55499  -0.55236
 Alpha  occ. eigenvalues --   -0.54799  -0.54574  -0.53197  -0.52548  -0.52456
 Alpha  occ. eigenvalues --   -0.51826  -0.51226  -0.50672  -0.50592  -0.49939
 Alpha  occ. eigenvalues --   -0.49621  -0.49335  -0.49240  -0.48665  -0.48455
 Alpha  occ. eigenvalues --   -0.48288  -0.48222  -0.47811  -0.47706  -0.47238
 Alpha  occ. eigenvalues --   -0.46676  -0.46525  -0.46235  -0.46181  -0.46107
 Alpha  occ. eigenvalues --   -0.45582  -0.45413  -0.45204  -0.45003  -0.44328
 Alpha  occ. eigenvalues --   -0.43978  -0.43761  -0.43646  -0.43367  -0.43179
 Alpha  occ. eigenvalues --   -0.42720  -0.42554  -0.42368  -0.42222  -0.41918
 Alpha  occ. eigenvalues --   -0.41770  -0.41648  -0.41119  -0.40805  -0.40723
 Alpha  occ. eigenvalues --   -0.40602  -0.40465  -0.39996  -0.39693  -0.39289
 Alpha  occ. eigenvalues --   -0.39229  -0.38964  -0.38444  -0.38380  -0.38340
 Alpha  occ. eigenvalues --   -0.38189  -0.37630  -0.37393  -0.36821  -0.36107
 Alpha  occ. eigenvalues --   -0.35955  -0.35900  -0.35562  -0.35561  -0.35328
 Alpha  occ. eigenvalues --   -0.35075  -0.34947  -0.34828  -0.33733  -0.32495
 Alpha  occ. eigenvalues --   -0.31161  -0.30720  -0.29444  -0.28491  -0.27557
 Alpha  occ. eigenvalues --   -0.26654  -0.26005  -0.25058  -0.24247  -0.24075
 Alpha  occ. eigenvalues --   -0.22391  -0.21644  -0.21026  -0.20621  -0.19779
 Alpha  occ. eigenvalues --   -0.19270
 Alpha virt. eigenvalues --   -0.18740  -0.15519  -0.14005  -0.12371  -0.10984
 Alpha virt. eigenvalues --   -0.09584  -0.08872  -0.08395  -0.07943  -0.07258
 Alpha virt. eigenvalues --   -0.05125  -0.04503  -0.04363  -0.04267  -0.03853

 Mulliken charges:
               1
     1  N   -0.715419
     2  H    0.432275
     3  H    0.420872
     4  H    0.415839
     5  C   -0.137547
     6  H    0.222691
     7  C    0.630598
     8  C   -0.383350
     9  H    0.239311
    10  H    0.198435
    11  O   -0.517826
    12  C    0.270502
    13  C    0.029773
    14  H    0.221110
    15  N   -0.659902
    16  H    0.357452
    17  C    0.187177
    18  H    0.229188
    19  N   -0.548649
    20  N   -0.616053
    21  H    0.361864
    22  C   -0.086677
    23  H    0.192788
    24  C    0.629459
    25  C    0.132965
    26  H    0.140892
    27  O   -0.546952
    28  C   -0.496424
    29  H    0.208485
    30  H    0.186657
    31  H    0.154740
    32  O   -0.600699
    33  H    0.385104
    34  N   -0.593267
    35  H    0.350828
    36  C   -0.067851
    37  H    0.170213
    38  C    0.634447
    39  C   -0.272969
    40  H    0.151968
    41  H    0.135893
    42  O   -0.557906
    43  C   -0.094800
    44  H    0.163318
    45  C   -0.458726
    46  H    0.134437
    47  H    0.145461
    48  H    0.169133
    49  C   -0.451413
    50  H    0.136241
    51  H    0.163757
    52  H    0.151871
    53  N   -0.602522
    54  H    0.361930
    55  C   -0.040205
    56  H    0.184103
    57  C    0.637758
    58  C   -0.448311
    59  H    0.167905
    60  H    0.154401
    61  H    0.171524
    62  O   -0.568263
    63  N   -0.623095
    64  H    0.357484
    65  C   -0.030898
    66  H    0.178934
    67  C    0.623863
    68  C   -0.390150
    69  H    0.205605
    70  H    0.167247
    71  O   -0.569354
    72  C    0.149398
    73  C   -0.218628
    74  H    0.135884
    75  C   -0.180242
    76  H    0.196418
    77  C   -0.174429
    78  H    0.132870
    79  C   -0.210864
    80  H    0.100240
    81  O   -0.653569
    82  H    0.400129
    83  C    0.341541
    84  N   -0.603968
    85  H    0.381805
    86  C   -0.106890
    87  H    0.172658
    88  C    0.639400
    89  C   -0.358096
    90  H    0.154931
    91  H    0.178643
    92  O   -0.553702
    93  C    0.577733
    94  O   -0.477114
    95  O   -0.548142
    96  N   -0.602312
    97  H    0.359503
    98  C   -0.071653
    99  H    0.179078
   100  C    0.603023
   101  C   -0.279647
   102  H    0.146771
   103  H    0.129033
   104  O   -0.537927
   105  C   -0.265446
   106  H    0.158514
   107  H    0.199704
   108  C   -0.292741
   109  H    0.148177
   110  H    0.150440
   111  C   -0.216007
   112  H    0.226200
   113  H    0.241724
   114  N   -0.726705
   115  H    0.424598
   116  H    0.421367
   117  H    0.418511
   118  O   -0.566089
   119  H    0.388607
 Sum of Mulliken charges =   1.00000

 Dipole moment (field-independent basis, Debye):
    X=            -35.8117    Y=            -23.7535    Z=            -50.2980  Tot=             66.1558
 Quadrupole moment (field-independent basis, Debye-Ang):
   XX=            -90.9923   YY=            128.8284   ZZ=           -278.6975
   XY=            428.4749   XZ=            -42.5634   YZ=             93.2035

 Normal termination of Gaussian 16 at Sun Jun 19 13:53:58 2022.
