 Gaussian 16, Revision C.01,
 Gaussian 16:  ES64L-G16RevC.01  3-Jul-2019

 ----------------------------------------------------------------------
 # B3LYP/6-31G* empiricaldispersion=gd3 guess=read geom=check nosymm in
 tegral(ultrafinegrid)
 ----------------------------------------------------------------------

 ------------------------------------------------------
 Candidate Structure: Conf:669 Charge calc in gas phase
 ------------------------------------------------------
 Structure from the checkpoint file:  "conf-669.chk"
 Charge =  1 Multiplicity = 1

                          Input orientation:
 ---------------------------------------------------------------------
 Center     Atomic      Atomic             Coordinates (Angstroms)
 Number     Number       Type             X           Y           Z
 ---------------------------------------------------------------------
      1          7           0       -7.988320   -4.698197   -4.839986
      2          1           0       -8.720824   -4.700536   -4.128543
      3          1           0       -8.067871   -3.822220   -5.365144
      4          1           0       -8.089058   -5.498632   -5.466287
      5          6           0       -6.647493   -4.693002   -4.232591
      6          1           0       -6.640048   -5.339776   -3.352673
      7          6           0       -6.317379   -3.257127   -3.821306
      8          6           0       -5.589161   -5.191886   -5.227044
      9          1           0       -4.601134   -5.143990   -4.770300
     10          1           0       -5.586365   -4.530411   -6.095406
     11          8           0       -6.899835   -2.300973   -4.315012
     12          6           0       -5.859055   -6.599236   -5.708781
     13          6           0       -6.455622   -7.010060   -6.859312
     14          1           0       -6.824597   -6.421879   -7.697049
     15          7           0       -5.584762   -7.739533   -4.962592
     16          1           0       -5.127826   -7.771410   -4.044833
     17          6           0       -6.020880   -8.806165   -5.653676
     18          1           0       -5.939116   -9.821254   -5.327959
     19          7           0       -6.563450   -8.387656   -6.813083
     20          7           0       -5.310742   -3.129743   -2.923752
     21          1           0       -4.907327   -3.943125   -2.489348
     22          6           0       -4.819560   -1.847971   -2.463482
     23          1           0       -5.123835   -1.097370   -3.187178
     24          6           0       -3.305497   -1.936415   -2.376311
     25          6           0       -5.386094   -1.473332   -1.077925
     26          1           0       -4.841530   -0.587645   -0.719606
     27          8           0       -2.757277   -2.851414   -1.756413
     28          6           0       -6.864013   -1.158612   -1.156808
     29          1           0       -7.041979   -0.286435   -1.794088
     30          1           0       -7.250391   -0.961319   -0.157706
     31          1           0       -7.408483   -2.003302   -1.577688
     32          8           0       -5.244884   -2.545648   -0.157015
     33          1           0       -4.305936   -2.760268   -0.095982
     34          7           0       -2.609204   -0.976450   -3.018885
     35          1           0       -3.094881   -0.180940   -3.400442
     36          6           0       -1.162030   -0.905706   -2.885678
     37          1           0       -0.820196   -1.939337   -2.799506
     38          6           0       -0.816057   -0.148113   -1.612711
     39          6           0       -0.524693   -0.256901   -4.096398
     40          1           0       -0.895119    0.767779   -4.187037
     41          1           0       -0.857269   -0.811217   -4.977707
     42          8           0       -0.669772    1.070851   -1.578189
     43          6           0        1.010531   -0.243095   -4.072706
     44          1           0        1.323295    0.480523   -3.306828
     45          6           0        1.602832   -1.602009   -3.718414
     46          1           0        1.147567   -2.391465   -4.321834
     47          1           0        1.455312   -1.840780   -2.662849
     48          1           0        2.680117   -1.611479   -3.903632
     49          6           0        1.510507    0.232902   -5.435621
     50          1           0        1.283742   -0.513664   -6.198325
     51          1           0        2.590711    0.401466   -5.425444
     52          1           0        1.025626    1.170218   -5.718907
     53          7           0       -0.713768   -0.925677   -0.502311
     54          1           0       -0.732233   -1.920524   -0.659888
     55          6           0        0.154920   -0.492209    0.587493
     56          1           0       -0.149762    0.521744    0.853557
     57          6           0        1.622388   -0.471139    0.100160
     58          6           0        0.022303   -1.462673    1.754486
     59          1           0        0.715273   -1.224072    2.568738
     60          1           0        0.288329   -2.462749    1.404898
     61          1           0       -1.001278   -1.470273    2.122658
     62          8           0        2.157629   -1.512125   -0.361088
     63          7           0        2.231443    0.746890    0.225808
     64          1           0        1.747738    1.443036    0.767046
     65          6           0        3.666215    0.932647    0.057416
     66          1           0        3.974071    0.160810   -0.653030
     67          6           0        4.337519    0.698030    1.418512
     68          6           0        3.980931    2.333824   -0.448009
     69          1           0        3.605628    3.046052    0.294103
     70          1           0        5.069815    2.449871   -0.460470
     71          8           0        4.795250    1.632085    2.084195
     72          6           0        3.438088    2.652476   -1.812777
     73          6           0        4.281085    2.666199   -2.922717
     74          1           0        5.331622    2.439573   -2.804215
     75          6           0        2.087029    2.946048   -2.014336
     76          1           0        1.397459    2.922161   -1.179960
     77          6           0        3.801773    2.976940   -4.194829
     78          1           0        4.459553    2.984833   -5.054552
     79          6           0        1.592438    3.261517   -3.282458
     80          1           0        0.528381    3.432207   -3.421863
     81          8           0        2.028419    3.561674   -5.646078
     82          1           0        1.118980    3.869927   -5.591124
     83          6           0        2.460212    3.282633   -4.371276
     84          7           0        4.332874   -0.564625    1.892010
     85          1           0        3.904359   -1.305531    1.346434
     86          6           0        4.789419   -0.838301    3.245268
     87          1           0        4.343485   -0.090116    3.908958
     88          6           0        6.314763   -0.716843    3.299621
     89          6           0        4.361594   -2.236002    3.673281
     90          1           0        4.610604   -2.393955    4.723267
     91          1           0        4.851225   -2.991270    3.062516
     92          8           0        7.034809   -1.349461    2.544797
     93          6           0        2.819490   -2.328462    3.519689
     94          8           0        2.395658   -3.207470    2.759808
     95          8           0        2.188474   -1.510355    4.211945
     96          7           0        6.792831    0.118317    4.248117
     97          1           0        6.239414    0.520322    4.991903
     98          6           0        8.181338    0.462549    4.350561
     99          1           0        8.794080   -0.438121    4.470829
    100          6           0        8.295344    1.351751    5.636578
    101          6           0        8.705777    1.255184    3.150336
    102          1           0        8.542959    0.633449    2.268494
    103          1           0        9.784165    1.393021    3.263729
    104          8           0        9.408843    1.809919    5.897721
    105          6           0        8.001881    2.606065    2.985007
    106          1           0        6.968945    2.505527    3.313436
    107          1           0        8.462795    3.354052    3.635126
    108          6           0        8.007339    3.068444    1.536087
    109          1           0        9.037085    3.168020    1.184339
    110          1           0        7.535584    2.285078    0.929327
    111          6           0        7.285102    4.385555    1.294197
    112          1           0        7.247830    4.592549    0.221365
    113          1           0        7.851209    5.201204    1.752540
    114          7           0        5.907470    4.371455    1.842726
    115          1           0        5.305081    5.067337    1.404083
    116          1           0        5.923207    4.550924    2.847031
    117          1           0        5.484406    3.451377    1.723728
    118          8           0        7.223510    1.481510    6.266562
    119          1           0       -6.984857   -8.970208   -7.539090
 ---------------------------------------------------------------------

 SCF Done:  E(RB3LYP) =  -2933.59831534     A.U. after    4 cycles

 Alpha  occ. eigenvalues --  -19.28978 -19.23954 -19.23345 -19.23246 -19.18385
 Alpha  occ. eigenvalues --  -19.17524 -19.16879 -19.10328 -19.07961 -19.07736
 Alpha  occ. eigenvalues --  -19.06537 -19.06271 -14.65855 -14.57997 -14.57718
 Alpha  occ. eigenvalues --  -14.55125 -14.52046 -14.47383 -14.42389 -14.41463
 Alpha  occ. eigenvalues --  -14.39385 -14.33363 -10.46296 -10.45539 -10.42583
 Alpha  occ. eigenvalues --  -10.42414 -10.41924 -10.40794 -10.40203 -10.35649
 Alpha  occ. eigenvalues --  -10.34954 -10.34748 -10.34025 -10.33478 -10.33167
 Alpha  occ. eigenvalues --  -10.30774 -10.30280 -10.29170 -10.27744 -10.27418
 Alpha  occ. eigenvalues --  -10.27239 -10.26219 -10.25390 -10.25109 -10.24830
 Alpha  occ. eigenvalues --  -10.24769 -10.24694 -10.24586 -10.24457 -10.24139
 Alpha  occ. eigenvalues --  -10.23932 -10.23892 -10.23447 -10.21968 -10.21658
 Alpha  occ. eigenvalues --  -10.21156 -10.19858 -10.19371 -10.18430 -10.17798
 Alpha  occ. eigenvalues --   -1.23164  -1.22357  -1.19798  -1.15588  -1.11948
 Alpha  occ. eigenvalues --   -1.11444  -1.10706  -1.10294  -1.09808  -1.09098
 Alpha  occ. eigenvalues --   -1.08211  -1.07115  -1.03626  -1.02846  -1.01116
 Alpha  occ. eigenvalues --   -1.00794  -1.00616  -0.98754  -0.98349  -0.95511
 Alpha  occ. eigenvalues --   -0.95229  -0.92596  -0.92218  -0.91309  -0.90551
 Alpha  occ. eigenvalues --   -0.89989  -0.88088  -0.86963  -0.86787  -0.85453
 Alpha  occ. eigenvalues --   -0.84834  -0.83835  -0.82094  -0.80610  -0.80381
 Alpha  occ. eigenvalues --   -0.80367  -0.80136  -0.79756  -0.79060  -0.78676
 Alpha  occ. eigenvalues --   -0.77401  -0.75631  -0.74672  -0.73499  -0.73256
 Alpha  occ. eigenvalues --   -0.72503  -0.72074  -0.71871  -0.70736  -0.69565
 Alpha  occ. eigenvalues --   -0.69265  -0.68978  -0.68878  -0.68507  -0.67952
 Alpha  occ. eigenvalues --   -0.67703  -0.66808  -0.65884  -0.65057  -0.64663
 Alpha  occ. eigenvalues --   -0.64606  -0.63927  -0.63710  -0.63478  -0.62878
 Alpha  occ. eigenvalues --   -0.62759  -0.62348  -0.62094  -0.61394  -0.61132
 Alpha  occ. eigenvalues --   -0.60300  -0.60010  -0.59468  -0.59073  -0.58769
 Alpha  occ. eigenvalues --   -0.58621  -0.57878  -0.57469  -0.56881  -0.55974
 Alpha  occ. eigenvalues --   -0.55557  -0.54967  -0.54659  -0.54156  -0.53830
 Alpha  occ. eigenvalues --   -0.53467  -0.52835  -0.52701  -0.52257  -0.52083
 Alpha  occ. eigenvalues --   -0.51403  -0.50668  -0.50399  -0.50269  -0.49844
 Alpha  occ. eigenvalues --   -0.49496  -0.48851  -0.48774  -0.48474  -0.48285
 Alpha  occ. eigenvalues --   -0.48196  -0.48095  -0.47480  -0.47350  -0.47154
 Alpha  occ. eigenvalues --   -0.46826  -0.46298  -0.46088  -0.46044  -0.45811
 Alpha  occ. eigenvalues --   -0.45428  -0.44854  -0.44681  -0.44483  -0.44180
 Alpha  occ. eigenvalues --   -0.43881  -0.43789  -0.43292  -0.43053  -0.42983
 Alpha  occ. eigenvalues --   -0.42654  -0.42524  -0.42267  -0.42125  -0.41945
 Alpha  occ. eigenvalues --   -0.41372  -0.41135  -0.40784  -0.40528  -0.39932
 Alpha  occ. eigenvalues --   -0.39795  -0.39388  -0.39342  -0.39117  -0.38949
 Alpha  occ. eigenvalues --   -0.38706  -0.38203  -0.38023  -0.37854  -0.37588
 Alpha  occ. eigenvalues --   -0.37389  -0.37301  -0.36901  -0.36781  -0.36194
 Alpha  occ. eigenvalues --   -0.35506  -0.35261  -0.34914  -0.34161  -0.33588
 Alpha  occ. eigenvalues --   -0.33097  -0.32739  -0.31494  -0.30722  -0.30134
 Alpha  occ. eigenvalues --   -0.29472  -0.29371  -0.27577  -0.24385  -0.24106
 Alpha  occ. eigenvalues --   -0.22784  -0.22042  -0.20797  -0.20712  -0.20427
 Alpha  occ. eigenvalues --   -0.19735
 Alpha virt. eigenvalues --   -0.19107  -0.16531  -0.15253  -0.14459  -0.11420
 Alpha virt. eigenvalues --   -0.10243  -0.09533  -0.08545  -0.07694  -0.06322
 Alpha virt. eigenvalues --   -0.06279  -0.06121  -0.05643  -0.05209  -0.04828

 Mulliken charges:
               1
     1  N   -0.697297
     2  H    0.426299
     3  H    0.420269
     4  H    0.370422
     5  C   -0.144561
     6  H    0.219143
     7  C    0.644844
     8  C   -0.382846
     9  H    0.229564
    10  H    0.217108
    11  O   -0.511261
    12  C    0.297852
    13  C   -0.016416
    14  H    0.215803
    15  N   -0.611659
    16  H    0.383547
    17  C    0.221754
    18  H    0.237351
    19  N   -0.554902
    20  N   -0.578615
    21  H    0.349159
    22  C   -0.097074
    23  H    0.185972
    24  C    0.625612
    25  C    0.138407
    26  H    0.159964
    27  O   -0.551522
    28  C   -0.442694
    29  H    0.158267
    30  H    0.191824
    31  H    0.126123
    32  O   -0.632526
    33  H    0.417301
    34  N   -0.599946
    35  H    0.341779
    36  C   -0.070396
    37  H    0.187024
    38  C    0.624573
    39  C   -0.270561
    40  H    0.139978
    41  H    0.122691
    42  O   -0.536826
    43  C   -0.094390
    44  H    0.175851
    45  C   -0.472997
    46  H    0.117435
    47  H    0.183478
    48  H    0.157405
    49  C   -0.441306
    50  H    0.127234
    51  H    0.158039
    52  H    0.133778
    53  N   -0.576279
    54  H    0.349018
    55  C   -0.066475
    56  H    0.149635
    57  C    0.640795
    58  C   -0.483601
    59  H    0.233433
    60  H    0.185786
    61  H    0.134079
    62  O   -0.542204
    63  N   -0.580948
    64  H    0.340925
    65  C   -0.060989
    66  H    0.203330
    67  C    0.662070
    68  C   -0.399480
    69  H    0.124039
    70  H    0.147080
    71  O   -0.576231
    72  C    0.184330
    73  C   -0.198354
    74  H    0.130173
    75  C   -0.171230
    76  H    0.135825
    77  C   -0.161414
    78  H    0.148318
    79  C   -0.203221
    80  H    0.131199
    81  O   -0.644824
    82  H    0.407070
    83  C    0.363863
    84  N   -0.599846
    85  H    0.375204
    86  C   -0.043836
    87  H    0.179281
    88  C    0.623039
    89  C   -0.354102
    90  H    0.173592
    91  H    0.166218
    92  O   -0.545024
    93  C    0.560503
    94  O   -0.537312
    95  O   -0.569145
    96  N   -0.607708
    97  H    0.356541
    98  C   -0.059241
    99  H    0.160301
   100  C    0.584986
   101  C   -0.268543
   102  H    0.155492
   103  H    0.158437
   104  O   -0.520115
   105  C   -0.297934
   106  H    0.153076
   107  H    0.161455
   108  C   -0.299007
   109  H    0.178777
   110  H    0.169101
   111  C   -0.213430
   112  H    0.196898
   113  H    0.207539
   114  N   -0.758832
   115  H    0.405000
   116  H    0.427169
   117  H    0.461429
   118  O   -0.579744
   119  H    0.396010
 Sum of Mulliken charges =   1.00000

 Dipole moment (field-independent basis, Debye):
    X=            -51.2458    Y=            -21.0038    Z=            -49.9274  Tot=             74.5656
 Quadrupole moment (field-independent basis, Debye-Ang):
   XX=           -127.4884   YY=            -37.2740   ZZ=           -277.3175
   XY=            329.0768   XZ=            124.5233   YZ=            225.8533

 Normal termination of Gaussian 16 at Sun Jun 19 13:54:19 2022.
