 Gaussian 16, Revision C.01,
 Gaussian 16:  ES64L-G16RevC.01  3-Jul-2019

 ----------------------------------------------------------------------
 # B3LYP/6-31G* empiricaldispersion=gd3 guess=read geom=check nosymm in
 tegral(ultrafinegrid)
 ----------------------------------------------------------------------

 ------------------------------------------------------
 Candidate Structure: Conf:110 Charge calc in gas phase
 ------------------------------------------------------
 Structure from the checkpoint file:  "conf-110.chk"
 Charge =  1 Multiplicity = 1

                          Input orientation:
 ---------------------------------------------------------------------
 Center     Atomic      Atomic             Coordinates (Angstroms)
 Number     Number       Type             X           Y           Z
 ---------------------------------------------------------------------
      1          7           0       -6.924949   -1.854849   -9.044763
      2          1           0       -7.841697   -1.468570   -8.768039
      3          1           0       -6.425884   -1.071022   -9.494224
      4          1           0       -7.057716   -2.622539   -9.723136
      5          6           0       -6.141856   -2.295553   -7.831991
      6          1           0       -6.696742   -3.106623   -7.352742
      7          6           0       -6.037211   -1.049477   -6.923848
      8          6           0       -4.737136   -2.806997   -8.234952
      9          1           0       -4.214693   -3.083948   -7.314154
     10          1           0       -4.170681   -1.978050   -8.681467
     11          8           0       -6.235245    0.059770   -7.419538
     12          6           0       -4.757421   -3.990316   -9.150102
     13          6           0       -4.736891   -5.319091   -8.866481
     14          1           0       -4.646770   -5.816764   -7.912203
     15          7           0       -4.920803   -3.877292  -10.541620
     16          1           0       -4.820275   -3.023291  -11.078702
     17          6           0       -4.996577   -5.142501  -11.110920
     18          1           0       -4.791208   -5.371288  -12.140513
     19          7           0       -4.856501   -6.020444  -10.053615
     20          7           0       -5.687802   -1.333302   -5.663787
     21          1           0       -5.432951   -2.283576   -5.391123
     22          6           0       -5.227980   -0.368273   -4.662956
     23          1           0       -5.016152    0.587284   -5.150177
     24          6           0       -3.973238   -1.033655   -4.077021
     25          6           0       -6.314226   -0.118061   -3.583138
     26          1           0       -6.565598   -1.090259   -3.130047
     27          8           0       -3.970332   -2.267557   -3.964042
     28          6           0       -5.843555    0.855592   -2.511069
     29          1           0       -4.980000    0.478405   -1.958069
     30          1           0       -6.661481    1.032803   -1.808599
     31          1           0       -5.576598    1.816047   -2.966072
     32          8           0       -7.459802    0.464763   -4.188630
     33          1           0       -7.847299   -0.183860   -4.795814
     34          7           0       -2.959154   -0.224022   -3.741628
     35          1           0       -3.115803    0.780799   -3.689052
     36          6           0       -1.830083   -0.670093   -2.929383
     37          1           0       -2.048356   -1.682535   -2.582236
     38          6           0       -1.712944    0.289615   -1.738317
     39          6           0       -0.510125   -0.653749   -3.724201
     40          1           0        0.319221   -0.837567   -3.028938
     41          1           0       -0.367437    0.364321   -4.110846
     42          8           0       -2.079683    1.460056   -1.841740
     43          6           0       -0.444824   -1.658692   -4.889679
     44          1           0       -1.285156   -1.449027   -5.570599
     45          6           0        0.867506   -1.446592   -5.659779
     46          1           0        1.729131   -1.599929   -4.999289
     47          1           0        0.934659   -0.429723   -6.064786
     48          1           0        0.956340   -2.150930   -6.495472
     49          6           0       -0.560443   -3.112886   -4.408259
     50          1           0        0.225116   -3.339324   -3.676657
     51          1           0       -0.438782   -3.808817   -5.247366
     52          1           0       -1.532627   -3.315461   -3.947847
     53          7           0       -1.155017   -0.262109   -0.631601
     54          1           0       -0.786493   -1.199022   -0.766709
     55          6           0       -0.321569    0.509591    0.293777
     56          1           0       -0.834574    1.449046    0.519581
     57          6           0        1.033255    0.784892   -0.380549
     58          6           0       -0.091573   -0.313184    1.567687
     59          1           0        0.564515    0.195577    2.283194
     60          1           0        0.414770   -1.255573    1.348445
     61          1           0       -1.051749   -0.521560    2.049646
     62          8           0        1.612803   -0.096408   -1.015717
     63          7           0        1.559876    2.027073   -0.152001
     64          1           0        1.094376    2.551232    0.582454
     65          6           0        3.021121    2.201795   -0.188162
     66          1           0        3.394676    1.566611   -0.994024
     67          6           0        3.590843    1.685036    1.149629
     68          6           0        3.421224    3.658707   -0.451657
     69          1           0        2.982740    3.969615   -1.407008
     70          1           0        2.996408    4.287449    0.337850
     71          8           0        3.832484    2.446552    2.084667
     72          6           0        4.931102    3.793520   -0.445580
     73          6           0        5.591464    4.269252    0.695408
     74          1           0        5.004541    4.588450    1.548560
     75          6           0        5.710203    3.330406   -1.510217
     76          1           0        5.224956    2.945926   -2.404350
     77          6           0        6.978154    4.262685    0.783048
     78          1           0        7.472270    4.576965    1.696888
     79          6           0        7.104949    3.329961   -1.442381
     80          1           0        7.693052    2.956553   -2.278355
     81          8           0        9.110720    3.770004   -0.134875
     82          1           0        9.505849    3.373218   -0.927048
     83          6           0        7.737141    3.783076   -0.284196
     84          7           0        3.720435    0.334682    1.193287
     85          1           0        3.610591   -0.159125    0.314103
     86          6           0        4.618599   -0.312484    2.142895
     87          1           0        4.507500    0.197910    3.100722
     88          6           0        6.042050   -0.211411    1.576827
     89          6           0        4.272221   -1.792660    2.301589
     90          1           0        4.924767   -2.228710    3.064581
     91          1           0        4.426084   -2.326658    1.361237
     92          8           0        6.268487   -0.441601    0.393854
     93          6           0        2.760250   -1.937845    2.753441
     94          8           0        2.085119   -2.650565    1.971720
     95          8           0        2.464376   -1.315489    3.794138
     96          7           0        7.009591    0.168598    2.473783
     97          1           0        6.751042    0.016075    3.443750
     98          6           0        8.389134   -0.164386    2.200762
     99          1           0        8.565783   -0.031369    1.132519
    100          6           0        8.710234   -1.730352    2.525533
    101          6           0        9.349234    0.694877    3.013752
    102          1           0       10.359121    0.331426    2.796971
    103          1           0        9.177415    0.529397    4.088511
    104          8           0        9.879819   -2.015142    2.195292
    105          6           0        9.235604    2.190303    2.696812
    106          1           0        9.335603    2.359593    1.617456
    107          1           0        8.240520    2.559196    2.973024
    108          6           0       10.319046    2.989794    3.434652
    109          1           0       10.282842    2.760511    4.510082
    110          1           0       11.310316    2.675213    3.074428
    111          6           0       10.156839    4.486495    3.221402
    112          1           0        9.236876    4.867440    3.674286
    113          1           0       10.153992    4.740464    2.158210
    114          7           0       11.310394    5.243839    3.879755
    115          1           0       11.247486    6.259937    3.745343
    116          1           0       12.209011    4.929102    3.494495
    117          1           0       11.333811    5.059777    4.890200
    118          8           0        7.780073   -2.353098    3.057979
    119          1           0       -4.864548   -7.027226  -10.137507
 ---------------------------------------------------------------------

 SCF Done:  E(RB3LYP) =  -2933.55945811     A.U. after    3 cycles

 Alpha  occ. eigenvalues --  -19.26757 -19.23257 -19.23087 -19.21243 -19.17452
 Alpha  occ. eigenvalues --  -19.15212 -19.12379 -19.10295 -19.06768 -19.06590
 Alpha  occ. eigenvalues --  -19.06582 -19.05845 -14.64467 -14.60856 -14.53883
 Alpha  occ. eigenvalues --  -14.53472 -14.49886 -14.44642 -14.40432 -14.39541
 Alpha  occ. eigenvalues --  -14.35492 -14.34904 -10.44322 -10.43305 -10.38351
 Alpha  occ. eigenvalues --  -10.38255 -10.38177 -10.38038 -10.37731 -10.36558
 Alpha  occ. eigenvalues --  -10.34112 -10.33628 -10.33192 -10.31911 -10.29428
 Alpha  occ. eigenvalues --  -10.29223 -10.28711 -10.28555 -10.27101 -10.26572
 Alpha  occ. eigenvalues --  -10.25474 -10.24939 -10.24583 -10.24316 -10.23845
 Alpha  occ. eigenvalues --  -10.23770 -10.23099 -10.22529 -10.22431 -10.22368
 Alpha  occ. eigenvalues --  -10.22281 -10.22212 -10.22168 -10.22136 -10.21872
 Alpha  occ. eigenvalues --  -10.21600 -10.21137 -10.20398 -10.18527 -10.15994
 Alpha  occ. eigenvalues --   -1.20303  -1.17055  -1.16641  -1.14730  -1.13206
 Alpha  occ. eigenvalues --   -1.10934  -1.10521  -1.09103  -1.06867  -1.06246
 Alpha  occ. eigenvalues --   -1.05066  -1.04058  -1.02168  -1.01072  -0.99428
 Alpha  occ. eigenvalues --   -0.98684  -0.97383  -0.97293  -0.95807  -0.92243
 Alpha  occ. eigenvalues --   -0.91935  -0.91298  -0.91039  -0.90622  -0.89794
 Alpha  occ. eigenvalues --   -0.88750  -0.88165  -0.86387  -0.84196  -0.82577
 Alpha  occ. eigenvalues --   -0.81702  -0.81516  -0.80666  -0.80281  -0.78642
 Alpha  occ. eigenvalues --   -0.78170  -0.77778  -0.76913  -0.76404  -0.75577
 Alpha  occ. eigenvalues --   -0.75070  -0.74489  -0.73315  -0.73278  -0.72820
 Alpha  occ. eigenvalues --   -0.72596  -0.71313  -0.70738  -0.69010  -0.68789
 Alpha  occ. eigenvalues --   -0.68348  -0.67265  -0.66809  -0.66028  -0.65792
 Alpha  occ. eigenvalues --   -0.65739  -0.64349  -0.64018  -0.63559  -0.63002
 Alpha  occ. eigenvalues --   -0.62060  -0.61784  -0.61746  -0.60978  -0.60928
 Alpha  occ. eigenvalues --   -0.60241  -0.60209  -0.59777  -0.59165  -0.58713
 Alpha  occ. eigenvalues --   -0.58686  -0.58346  -0.58084  -0.57302  -0.56812
 Alpha  occ. eigenvalues --   -0.56547  -0.55847  -0.55467  -0.54888  -0.54604
 Alpha  occ. eigenvalues --   -0.54134  -0.53720  -0.52832  -0.52716  -0.52367
 Alpha  occ. eigenvalues --   -0.51302  -0.50979  -0.50583  -0.50441  -0.50018
 Alpha  occ. eigenvalues --   -0.49952  -0.49485  -0.49295  -0.48732  -0.48498
 Alpha  occ. eigenvalues --   -0.48174  -0.47695  -0.47343  -0.46855  -0.46424
 Alpha  occ. eigenvalues --   -0.46278  -0.46201  -0.46066  -0.45906  -0.45819
 Alpha  occ. eigenvalues --   -0.45197  -0.44990  -0.44905  -0.44498  -0.44419
 Alpha  occ. eigenvalues --   -0.43961  -0.43869  -0.43632  -0.43100  -0.42431
 Alpha  occ. eigenvalues --   -0.42119  -0.42014  -0.41907  -0.41629  -0.41354
 Alpha  occ. eigenvalues --   -0.41241  -0.40952  -0.40826  -0.40203  -0.39815
 Alpha  occ. eigenvalues --   -0.39740  -0.39189  -0.39137  -0.38931  -0.38833
 Alpha  occ. eigenvalues --   -0.38365  -0.38211  -0.38115  -0.37977  -0.37843
 Alpha  occ. eigenvalues --   -0.37726  -0.37688  -0.37182  -0.36920  -0.36665
 Alpha  occ. eigenvalues --   -0.36653  -0.36576  -0.35881  -0.35748  -0.35271
 Alpha  occ. eigenvalues --   -0.34703  -0.34143  -0.33399  -0.33369  -0.32124
 Alpha  occ. eigenvalues --   -0.31706  -0.30848  -0.30256  -0.28534  -0.28164
 Alpha  occ. eigenvalues --   -0.26965  -0.26423  -0.25518  -0.24898  -0.23578
 Alpha  occ. eigenvalues --   -0.21779  -0.21331  -0.20506  -0.19606  -0.18465
 Alpha  occ. eigenvalues --   -0.17618
 Alpha virt. eigenvalues --   -0.17007  -0.14771  -0.13203  -0.11497  -0.10964
 Alpha virt. eigenvalues --   -0.08834  -0.08028  -0.07360  -0.06906  -0.06022
 Alpha virt. eigenvalues --   -0.04947  -0.04733  -0.03990  -0.03672  -0.03511

 Mulliken charges:
               1
     1  N   -0.716912
     2  H    0.427929
     3  H    0.419863
     4  H    0.407701
     5  C   -0.131391
     6  H    0.221738
     7  C    0.626726
     8  C   -0.389139
     9  H    0.241886
    10  H    0.199246
    11  O   -0.514464
    12  C    0.297844
    13  C    0.016101
    14  H    0.214645
    15  N   -0.655074
    16  H    0.351650
    17  C    0.163943
    18  H    0.211501
    19  N   -0.559392
    20  N   -0.616579
    21  H    0.362219
    22  C   -0.083069
    23  H    0.193400
    24  C    0.623028
    25  C    0.133444
    26  H    0.138714
    27  O   -0.556092
    28  C   -0.470800
    29  H    0.178847
    30  H    0.186661
    31  H    0.167830
    32  O   -0.601623
    33  H    0.386521
    34  N   -0.583896
    35  H    0.358631
    36  C   -0.107344
    37  H    0.189641
    38  C    0.622161
    39  C   -0.273425
    40  H    0.199963
    41  H    0.142670
    42  O   -0.539052
    43  C   -0.062437
    44  H    0.092362
    45  C   -0.444517
    46  H    0.170022
    47  H    0.138848
    48  H    0.132066
    49  C   -0.469077
    50  H    0.167206
    51  H    0.127241
    52  H    0.162685
    53  N   -0.568116
    54  H    0.348853
    55  C   -0.091643
    56  H    0.162611
    57  C    0.634761
    58  C   -0.487721
    59  H    0.192913
    60  H    0.225861
    61  H    0.152242
    62  O   -0.536748
    63  N   -0.588579
    64  H    0.336719
    65  C   -0.072861
    66  H    0.183975
    67  C    0.627081
    68  C   -0.347529
    69  H    0.147713
    70  H    0.151395
    71  O   -0.544259
    72  C    0.144140
    73  C   -0.150618
    74  H    0.154244
    75  C   -0.177034
    76  H    0.131751
    77  C   -0.152829
    78  H    0.091777
    79  C   -0.175122
    80  H    0.125676
    81  O   -0.677525
    82  H    0.414726
    83  C    0.352064
    84  N   -0.577679
    85  H    0.358040
    86  C   -0.083330
    87  H    0.178872
    88  C    0.631966
    89  C   -0.351725
    90  H    0.191330
    91  H    0.161349
    92  O   -0.543304
    93  C    0.594350
    94  O   -0.546042
    95  O   -0.550559
    96  N   -0.571048
    97  H    0.327381
    98  C   -0.068248
    99  H    0.170058
   100  C    0.599179
   101  C   -0.283051
   102  H    0.167974
   103  H    0.128195
   104  O   -0.548047
   105  C   -0.282081
   106  H    0.184069
   107  H    0.162793
   108  C   -0.287296
   109  H    0.157053
   110  H    0.153840
   111  C   -0.224312
   112  H    0.221882
   113  H    0.245507
   114  N   -0.728535
   115  H    0.421826
   116  H    0.422059
   117  H    0.422462
   118  O   -0.545100
   119  H    0.381610
 Sum of Mulliken charges =   1.00000

 Dipole moment (field-independent basis, Debye):
    X=            -12.7771    Y=             10.8935    Z=            -46.2944  Tot=             49.2453
 Quadrupole moment (field-independent basis, Debye-Ang):
   XX=            150.8266   YY=           -198.4284   ZZ=            152.1545
   XY=            396.9492   XZ=            391.3414   YZ=            279.0680

 Normal termination of Gaussian 16 at Sun Jun 19 13:48:47 2022.
