 Gaussian 16, Revision C.01,
 Gaussian 16:  ES64L-G16RevC.01  3-Jul-2019

 ----------------------------------------------------------------------
 # B3LYP/6-31G* empiricaldispersion=gd3 guess=read geom=check nosymm in
 tegral(ultrafinegrid)
 ----------------------------------------------------------------------

 ------------------------------------------------------
 Candidate Structure: Conf:746 Charge calc in gas phase
 ------------------------------------------------------
 Structure from the checkpoint file:  "conf-746.chk"
 Charge =  1 Multiplicity = 1

                          Input orientation:
 ---------------------------------------------------------------------
 Center     Atomic      Atomic             Coordinates (Angstroms)
 Number     Number       Type             X           Y           Z
 ---------------------------------------------------------------------
      1          7           0       -3.329442    0.590747   -8.680219
      2          1           0       -4.212792    0.934324   -9.061974
      3          1           0       -2.906175    1.345143   -8.129967
      4          1           0       -2.699949    0.301505   -9.430699
      5          6           0       -3.538479   -0.523259   -7.738833
      6          1           0       -4.331616   -1.177107   -8.100748
      7          6           0       -3.921100    0.070515   -6.394171
      8          6           0       -2.246038   -1.336830   -7.570259
      9          1           0       -2.393444   -2.116739   -6.819566
     10          1           0       -1.463800   -0.663013   -7.206052
     11          8           0       -3.521109    1.179738   -6.060085
     12          6           0       -1.763342   -1.951985   -8.863860
     13          6           0       -0.805353   -1.502361   -9.717137
     14          1           0       -0.150952   -0.637382   -9.630078
     15          7           0       -2.319167   -3.089248   -9.438449
     16          1           0       -3.064573   -3.670149   -9.039625
     17          6           0       -1.709247   -3.302716  -10.616437
     18          1           0       -1.925748   -4.112101  -11.280780
     19          7           0       -0.784470   -2.343724  -10.813709
     20          7           0       -4.676805   -0.720350   -5.579455
     21          1           0       -4.672635   -1.706688   -5.791789
     22          6           0       -4.777268   -0.370873   -4.162268
     23          1           0       -4.744299    0.719821   -4.127151
     24          6           0       -3.575073   -0.969324   -3.429393
     25          6           0       -6.122099   -0.829329   -3.596751
     26          1           0       -6.152775   -1.927908   -3.629272
     27          8           0       -3.652076   -1.942204   -2.691448
     28          6           0       -6.356117   -0.331819   -2.182963
     29          1           0       -5.595160   -0.709146   -1.498777
     30          1           0       -7.342121   -0.654479   -1.845901
     31          1           0       -6.329819    0.760271   -2.184890
     32          8           0       -7.175262   -0.279089   -4.380918
     33          1           0       -6.941681   -0.422545   -5.303649
     34          7           0       -2.385607   -0.385415   -3.734310
     35          1           0       -2.377423    0.510527   -4.205819
     36          6           0       -1.200520   -0.745095   -2.986502
     37          1           0       -1.333221   -1.777253   -2.667493
     38          6           0       -1.093837    0.157153   -1.773607
     39          6           0        0.039768   -0.612395   -3.866922
     40          1           0        0.011372    0.379919   -4.329793
     41          1           0       -0.050628   -1.345912   -4.673432
     42          8           0       -1.037670    1.375089   -1.890170
     43          6           0        1.401231   -0.780351   -3.189031
     44          1           0        1.512642    0.059645   -2.487074
     45          6           0        1.543244   -2.091965   -2.428013
     46          1           0        1.425277   -2.931077   -3.118442
     47          1           0        0.818624   -2.205109   -1.625163
     48          1           0        2.539351   -2.153243   -1.984385
     49          6           0        2.490355   -0.678866   -4.250350
     50          1           0        2.431058   -1.538302   -4.918783
     51          1           0        3.483617   -0.668861   -3.789738
     52          1           0        2.380973    0.224921   -4.857083
     53          7           0       -1.049925   -0.469398   -0.566775
     54          1           0       -0.963812   -1.471044   -0.566034
     55          6           0       -0.533256    0.246082    0.601744
     56          1           0       -0.970650    1.244353    0.553685
     57          6           0        0.989242    0.343736    0.460831
     58          6           0       -0.935258   -0.482573    1.869061
     59          1           0       -0.611825    0.074538    2.752124
     60          1           0       -0.478085   -1.472354    1.899106
     61          1           0       -2.021467   -0.588737    1.904013
     62          8           0        1.737233   -0.581087    0.756549
     63          7           0        1.446159    1.492440   -0.086086
     64          1           0        0.768363    2.114489   -0.501035
     65          6           0        2.827998    1.611569   -0.510817
     66          1           0        3.029800    0.877376   -1.302848
     67          6           0        3.750199    1.288906    0.656328
     68          6           0        3.104558    3.025756   -1.019979
     69          1           0        2.963143    3.717299   -0.190827
     70          1           0        4.156294    3.081563   -1.311669
     71          8           0        3.750183    1.944610    1.691793
     72          6           0        2.207051    3.395207   -2.166248
     73          6           0        1.270960    4.418178   -2.030932
     74          1           0        1.221982    4.969860   -1.098870
     75          6           0        2.238790    2.684606   -3.368722
     76          1           0        2.943019    1.877199   -3.483301
     77          6           0        0.383252    4.735785   -3.056940
     78          1           0       -0.343642    5.528754   -2.946137
     79          6           0        1.373601    3.003358   -4.409008
     80          1           0        1.412041    2.453951   -5.341633
     81          8           0       -0.452299    4.364173   -5.237855
     82          1           0       -0.316308    3.781904   -5.991161
     83          6           0        0.433272    4.021227   -4.251124
     84          7           0        4.577375    0.244448    0.440568
     85          1           0        4.346463   -0.462003   -0.262381
     86          6           0        5.292778   -0.349869    1.543989
     87          1           0        4.568875   -0.712923    2.284373
     88          6           0        6.203215    0.697577    2.181523
     89          6           0        6.130339   -1.497083    0.997823
     90          1           0        6.702001   -1.997456    1.778434
     91          1           0        6.820467   -1.078770    0.262701
     92          8           0        7.035850    1.306630    1.531324
     93          6           0        5.253955   -2.554143    0.305923
     94          8           0        5.436340   -3.730866    0.615476
     95          8           0        4.452260   -2.139096   -0.574991
     96          7           0        6.024514    0.889522    3.503640
     97          1           0        5.451811    0.318516    4.107113
     98          6           0        6.730341    1.904228    4.227593
     99          1           0        7.804152    1.855431    4.000544
    100          6           0        6.477931    1.581212    5.730942
    101          6           0        6.227798    3.313361    3.885054
    102          1           0        5.201873    3.428520    4.254712
    103          1           0        6.167925    3.370384    2.797223
    104          8           0        5.676483    0.649730    5.946835
    105          6           0        7.146205    4.410393    4.406472
    106          1           0        7.279419    4.314682    5.485969
    107          1           0        8.131423    4.249951    3.956305
    108          6           0        6.625701    5.793563    4.060839
    109          1           0        6.525992    5.891695    2.975857
    110          1           0        5.621834    5.908726    4.482959
    111          6           0        7.493203    6.920821    4.588446
    112          1           0        7.639992    6.779098    5.662718
    113          1           0        6.986342    7.878573    4.458517
    114          7           0        8.822141    6.976015    3.926491
    115          1           0        9.405797    7.726002    4.297741
    116          1           0        8.727902    7.121491    2.921521
    117          1           0        9.331943    6.103368    4.057078
    118          8           0        7.089603    2.270049    6.558642
    119          1           0       -0.170390   -2.240764  -11.623823
 ---------------------------------------------------------------------

 SCF Done:  E(RB3LYP) =  -2933.54031455     A.U. after    4 cycles

 Alpha  occ. eigenvalues --  -19.28882 -19.23841 -19.22887 -19.20970 -19.17182
 Alpha  occ. eigenvalues --  -19.13423 -19.10393 -19.09772 -19.07795 -19.07640
 Alpha  occ. eigenvalues --  -19.06756 -19.06297 -14.65169 -14.60487 -14.57697
 Alpha  occ. eigenvalues --  -14.57158 -14.51900 -14.44745 -14.41338 -14.38131
 Alpha  occ. eigenvalues --  -14.32636 -14.32488 -10.45586 -10.44907 -10.42010
 Alpha  occ. eigenvalues --  -10.41893 -10.41340 -10.40014 -10.38118 -10.36065
 Alpha  occ. eigenvalues --  -10.34018 -10.33845 -10.32703 -10.30508 -10.30049
 Alpha  occ. eigenvalues --  -10.29657 -10.27516 -10.27282 -10.26831 -10.26405
 Alpha  occ. eigenvalues --  -10.25253 -10.24990 -10.24660 -10.24394 -10.24392
 Alpha  occ. eigenvalues --  -10.24275 -10.23773 -10.23574 -10.23485 -10.23384
 Alpha  occ. eigenvalues --  -10.23361 -10.22941 -10.22312 -10.22253 -10.21312
 Alpha  occ. eigenvalues --  -10.21192 -10.20200 -10.19596 -10.19269 -10.16986
 Alpha  occ. eigenvalues --   -1.22731  -1.21885  -1.19395  -1.15365  -1.13374
 Alpha  occ. eigenvalues --   -1.12033  -1.11206  -1.09545  -1.09338  -1.07865
 Alpha  occ. eigenvalues --   -1.05895  -1.02910  -1.01836  -1.01373  -1.00936
 Alpha  occ. eigenvalues --   -1.00727  -0.99921  -0.97775  -0.94998  -0.94643
 Alpha  occ. eigenvalues --   -0.92384  -0.92283  -0.90382  -0.90150  -0.89994
 Alpha  occ. eigenvalues --   -0.89393  -0.89081  -0.87285  -0.85992  -0.84381
 Alpha  occ. eigenvalues --   -0.83150  -0.82299  -0.81736  -0.80745  -0.79946
 Alpha  occ. eigenvalues --   -0.79818  -0.79688  -0.79132  -0.78046  -0.77671
 Alpha  occ. eigenvalues --   -0.75801  -0.74769  -0.74718  -0.74245  -0.73551
 Alpha  occ. eigenvalues --   -0.72350  -0.72341  -0.72092  -0.70895  -0.70116
 Alpha  occ. eigenvalues --   -0.69257  -0.69126  -0.68426  -0.68101  -0.67624
 Alpha  occ. eigenvalues --   -0.67245  -0.66271  -0.64985  -0.64380  -0.64051
 Alpha  occ. eigenvalues --   -0.63346  -0.63177  -0.62707  -0.62347  -0.62235
 Alpha  occ. eigenvalues --   -0.62066  -0.61905  -0.61271  -0.60620  -0.60554
 Alpha  occ. eigenvalues --   -0.59950  -0.59701  -0.59218  -0.57746  -0.57468
 Alpha  occ. eigenvalues --   -0.56990  -0.56268  -0.55969  -0.55676  -0.55216
 Alpha  occ. eigenvalues --   -0.54735  -0.54461  -0.53867  -0.53049  -0.52333
 Alpha  occ. eigenvalues --   -0.52004  -0.51963  -0.51473  -0.50918  -0.50624
 Alpha  occ. eigenvalues --   -0.50127  -0.49937  -0.49843  -0.49748  -0.49124
 Alpha  occ. eigenvalues --   -0.48841  -0.48534  -0.47906  -0.47583  -0.47379
 Alpha  occ. eigenvalues --   -0.47053  -0.46691  -0.46453  -0.46295  -0.46028
 Alpha  occ. eigenvalues --   -0.45198  -0.44842  -0.44689  -0.44466  -0.44364
 Alpha  occ. eigenvalues --   -0.44240  -0.43776  -0.43612  -0.43595  -0.43276
 Alpha  occ. eigenvalues --   -0.43134  -0.42792  -0.42679  -0.42413  -0.42122
 Alpha  occ. eigenvalues --   -0.41826  -0.41625  -0.41487  -0.41229  -0.40808
 Alpha  occ. eigenvalues --   -0.40629  -0.40554  -0.39991  -0.39608  -0.39374
 Alpha  occ. eigenvalues --   -0.39139  -0.38919  -0.38578  -0.37971  -0.37833
 Alpha  occ. eigenvalues --   -0.37670  -0.37561  -0.37479  -0.37349  -0.36980
 Alpha  occ. eigenvalues --   -0.36827  -0.36262  -0.36020  -0.35646  -0.35262
 Alpha  occ. eigenvalues --   -0.35129  -0.34774  -0.33774  -0.33467  -0.32566
 Alpha  occ. eigenvalues --   -0.31885  -0.30649  -0.30134  -0.28491  -0.26860
 Alpha  occ. eigenvalues --   -0.26664  -0.25172  -0.24448  -0.23590  -0.23161
 Alpha  occ. eigenvalues --   -0.22242  -0.21927  -0.20845  -0.20631  -0.20206
 Alpha  occ. eigenvalues --   -0.19524
 Alpha virt. eigenvalues --   -0.18814  -0.16661  -0.14909  -0.14046  -0.11250
 Alpha virt. eigenvalues --   -0.10505  -0.09973  -0.08637  -0.07812  -0.07114
 Alpha virt. eigenvalues --   -0.06023  -0.05522  -0.05012  -0.04430  -0.04208

 Mulliken charges:
               1
     1  N   -0.691365
     2  H    0.417925
     3  H    0.418385
     4  H    0.361927
     5  C   -0.144275
     6  H    0.208410
     7  C    0.633860
     8  C   -0.389502
     9  H    0.224449
    10  H    0.223130
    11  O   -0.510799
    12  C    0.302969
    13  C   -0.012524
    14  H    0.216496
    15  N   -0.614309
    16  H    0.378967
    17  C    0.223482
    18  H    0.235277
    19  N   -0.552724
    20  N   -0.618394
    21  H    0.338686
    22  C   -0.114927
    23  H    0.215748
    24  C    0.620717
    25  C    0.140901
    26  H    0.134607
    27  O   -0.503678
    28  C   -0.463104
    29  H    0.186548
    30  H    0.181309
    31  H    0.160365
    32  O   -0.617748
    33  H    0.382294
    34  N   -0.626090
    35  H    0.355074
    36  C   -0.063447
    37  H    0.180158
    38  C    0.634329
    39  C   -0.264262
    40  H    0.127990
    41  H    0.097188
    42  O   -0.545921
    43  C   -0.105968
    44  H    0.169327
    45  C   -0.467661
    46  H    0.112271
    47  H    0.125705
    48  H    0.247127
    49  C   -0.457656
    50  H    0.124941
    51  H    0.186382
    52  H    0.119939
    53  N   -0.579630
    54  H    0.347073
    55  C   -0.065379
    56  H    0.168809
    57  C    0.631113
    58  C   -0.465903
    59  H    0.179456
    60  H    0.183049
    61  H    0.149404
    62  O   -0.512916
    63  N   -0.607084
    64  H    0.351943
    65  C   -0.035001
    66  H    0.151814
    67  C    0.648213
    68  C   -0.386769
    69  H    0.171537
    70  H    0.169610
    71  O   -0.563488
    72  C    0.152656
    73  C   -0.198698
    74  H    0.137005
    75  C   -0.177619
    76  H    0.149433
    77  C   -0.145604
    78  H    0.140076
    79  C   -0.195119
    80  H    0.086319
    81  O   -0.645432
    82  H    0.385193
    83  C    0.351687
    84  N   -0.614463
    85  H    0.384611
    86  C   -0.040767
    87  H    0.165860
    88  C    0.659203
    89  C   -0.377911
    90  H    0.164401
    91  H    0.170638
    92  O   -0.564259
    93  C    0.585951
    94  O   -0.491736
    95  O   -0.581062
    96  N   -0.603609
    97  H    0.361755
    98  C   -0.047228
    99  H    0.134153
   100  C    0.586635
   101  C   -0.259976
   102  H    0.155491
   103  H    0.165314
   104  O   -0.557614
   105  C   -0.291695
   106  H    0.198697
   107  H    0.098569
   108  C   -0.286830
   109  H    0.151314
   110  H    0.200282
   111  C   -0.228884
   112  H    0.231902
   113  H    0.210403
   114  N   -0.713437
   115  H    0.423469
   116  H    0.422265
   117  H    0.435107
   118  O   -0.541444
   119  H    0.396620
 Sum of Mulliken charges =   1.00000

 Dipole moment (field-independent basis, Debye):
    X=             -9.9076    Y=             20.3509    Z=            -57.5200  Tot=             61.8132
 Quadrupole moment (field-independent basis, Debye-Ang):
   XX=           -183.7631   YY=           -165.7052   ZZ=            169.3645
   XY=            264.4092   XZ=            161.2894   YZ=            172.3896

 Normal termination of Gaussian 16 at Sun Jun 19 13:54:26 2022.
