 Gaussian 16, Revision C.01,
 Gaussian 16:  ES64L-G16RevC.01  3-Jul-2019

 ----------------------------------------------------------------------
 # B3LYP/6-31G* empiricaldispersion=gd3 guess=read geom=check nosymm in
 tegral(ultrafinegrid)
 ----------------------------------------------------------------------

 ------------------------------------------------------
 Candidate Structure: Conf:549 Charge calc in gas phase
 ------------------------------------------------------
 Structure from the checkpoint file:  "conf-549.chk"
 Charge =  1 Multiplicity = 1

                          Input orientation:
 ---------------------------------------------------------------------
 Center     Atomic      Atomic             Coordinates (Angstroms)
 Number     Number       Type             X           Y           Z
 ---------------------------------------------------------------------
      1          7           0       -6.807094   -1.310568   -8.221616
      2          1           0       -7.453569   -0.781377   -7.632394
      3          1           0       -6.242497   -0.636289   -8.744169
      4          1           0       -7.349753   -1.865863   -8.882347
      5          6           0       -5.913430   -2.163947   -7.398601
      6          1           0       -6.518737   -2.799663   -6.744925
      7          6           0       -5.035416   -1.250110   -6.539087
      8          6           0       -5.028269   -3.032684   -8.287559
      9          1           0       -4.430510   -2.361106   -8.904748
     10          1           0       -5.659238   -3.631276   -8.945199
     11          8           0       -4.179040   -0.503854   -7.049276
     12          6           0       -4.094538   -3.922174   -7.503162
     13          6           0       -2.898599   -3.605366   -6.950888
     14          1           0       -2.374040   -2.656025   -6.974618
     15          7           0       -4.365204   -5.239915   -7.156109
     16          1           0       -5.191194   -5.777661   -7.423221
     17          6           0       -3.333236   -5.706322   -6.423115
     18          1           0       -3.273502   -6.699578   -6.038977
     19          7           0       -2.425106   -4.717587   -6.278019
     20          7           0       -5.284394   -1.309952   -5.204378
     21          1           0       -6.111759   -1.787858   -4.883799
     22          6           0       -4.732371   -0.293898   -4.321139
     23          1           0       -4.523217    0.574544   -4.954172
     24          6           0       -3.435426   -0.812031   -3.700039
     25          6           0       -5.755409    0.099152   -3.251926
     26          1           0       -5.964080   -0.783411   -2.643897
     27          8           0       -3.402189   -1.362038   -2.597061
     28          6           0       -5.280192    1.247860   -2.376841
     29          1           0       -4.362253    0.987620   -1.844148
     30          1           0       -6.053243    1.493412   -1.646452
     31          1           0       -5.088532    2.127028   -2.995742
     32          8           0       -6.994386    0.442790   -3.862568
     33          1           0       -6.862912    1.281419   -4.312591
     34          7           0       -2.322810   -0.632867   -4.442999
     35          1           0       -2.419314   -0.249997   -5.372814
     36          6           0       -1.004189   -0.847233   -3.864286
     37          1           0       -1.106663   -1.727132   -3.226840
     38          6           0       -0.632630    0.340573   -2.973029
     39          6           0        0.056261   -1.086982   -4.922861
     40          1           0        0.215734   -0.155396   -5.469650
     41          1           0       -0.335264   -1.822122   -5.634223
     42          8           0        0.161349    1.210139   -3.319928
     43          6           0        1.393258   -1.599336   -4.375901
     44          1           0        1.753284   -0.869252   -3.637894
     45          6           0        1.250757   -2.947529   -3.676843
     46          1           0        0.846554   -3.695686   -4.366493
     47          1           0        0.595050   -2.888196   -2.807816
     48          1           0        2.223454   -3.302199   -3.328659
     49          6           0        2.414680   -1.672767   -5.506557
     50          1           0        2.094465   -2.389821   -6.266381
     51          1           0        3.391032   -1.989935   -5.133432
     52          1           0        2.539486   -0.699895   -5.986291
     53          7           0       -1.257162    0.387390   -1.768795
     54          1           0       -1.839219   -0.401242   -1.516802
     55          6           0       -0.600176    1.089526   -0.681032
     56          1           0       -0.356599    2.092493   -1.047837
     57          6           0        0.726482    0.378350   -0.330731
     58          6           0       -1.530976    1.179527    0.521887
     59          1           0       -1.076463    1.757101    1.327955
     60          1           0       -1.758873    0.180475    0.900241
     61          1           0       -2.461329    1.664374    0.221231
     62          8           0        0.987158   -0.760318   -0.708263
     63          7           0        1.571119    1.101842    0.443282
     64          1           0        1.377648    2.049686    0.721361
     65          6           0        2.861385    0.585929    0.837656
     66          1           0        2.725282   -0.408180    1.274696
     67          6           0        3.395612    1.552408    1.895330
     68          6           0        3.819812    0.432414   -0.360306
     69          1           0        4.792291    0.099299    0.021574
     70          1           0        3.417693   -0.353314   -0.999457
     71          8           0        2.931144    2.671694    2.051151
     72          6           0        3.964315    1.701357   -1.143164
     73          6           0        3.165466    1.987177   -2.254827
     74          1           0        2.426134    1.273287   -2.599904
     75          6           0        4.883323    2.671795   -0.752512
     76          1           0        5.514683    2.464009    0.105598
     77          6           0        3.276054    3.199947   -2.936800
     78          1           0        2.646787    3.407948   -3.791016
     79          6           0        5.001315    3.892164   -1.414861
     80          1           0        5.718796    4.623152   -1.055212
     81          8           0        4.258681    5.326323   -3.215683
     82          1           0        4.922762    5.884637   -2.803219
     83          6           0        4.191757    4.153838   -2.516611
     84          7           0        4.428542    1.090965    2.638687
     85          1           0        4.936103    0.243319    2.405794
     86          6           0        5.095329    1.947772    3.592734
     87          1           0        4.353437    2.642828    3.986361
     88          6           0        6.232117    2.732215    2.927566
     89          6           0        5.715553    1.100686    4.712705
     90          1           0        4.966994    0.410196    5.104801
     91          1           0        6.113159    1.742122    5.506457
     92          8           0        6.785131    2.382799    1.899487
     93          6           0        6.872067    0.347674    4.032916
     94          8           0        8.021541    0.691209    4.328282
     95          8           0        6.519510   -0.537444    3.219012
     96          7           0        6.597151    3.852652    3.617181
     97          1           0        6.419213    3.886557    4.615379
     98          6           0        7.860562    4.486254    3.355167
     99          1           0        8.528249    3.790659    2.825029
    100          6           0        8.470139    4.801103    4.762965
    101          6           0        7.769291    5.789616    2.566629
    102          1           0        8.773617    6.220197    2.571584
    103          1           0        7.112979    6.493383    3.086221
    104          8           0        9.577230    5.338349    4.781718
    105          6           0        7.275711    5.582851    1.142540
    106          1           0        7.908688    4.834823    0.650357
    107          1           0        6.268881    5.159993    1.177610
    108          6           0        7.268383    6.859163    0.317041
    109          1           0        6.767652    6.677879   -0.640346
    110          1           0        6.686412    7.628400    0.836002
    111          6           0        8.653002    7.401976    0.032979
    112          1           0        9.251593    6.629683   -0.456391
    113          1           0        9.151076    7.648458    0.972754
    114          7           0        8.615656    8.620183   -0.815147
    115          1           0        9.548810    8.976127   -1.022663
    116          1           0        8.097436    9.367212   -0.354799
    117          1           0        8.152941    8.430414   -1.702522
    118          8           0        7.752835    4.443077    5.728244
    119          1           0       -1.534201   -4.755765   -5.776002
 ---------------------------------------------------------------------

 SCF Done:  E(RB3LYP) =  -2933.53812294     A.U. after    3 cycles

 Alpha  occ. eigenvalues --  -19.26964 -19.25796 -19.21798 -19.20789 -19.17545
 Alpha  occ. eigenvalues --  -19.14745 -19.11948 -19.09979 -19.07357 -19.06730
 Alpha  occ. eigenvalues --  -19.05770 -19.05477 -14.65247 -14.61325 -14.57212
 Alpha  occ. eigenvalues --  -14.56902 -14.51011 -14.46138 -14.40762 -14.37992
 Alpha  occ. eigenvalues --  -14.34157 -14.32199 -10.44064 -10.44001 -10.42391
 Alpha  occ. eigenvalues --  -10.40684 -10.39366 -10.39341 -10.39051 -10.36089
 Alpha  occ. eigenvalues --  -10.34931 -10.34804 -10.34424 -10.31618 -10.30608
 Alpha  occ. eigenvalues --  -10.28641 -10.28416 -10.27721 -10.26921 -10.26578
 Alpha  occ. eigenvalues --  -10.26207 -10.26079 -10.24753 -10.24548 -10.23552
 Alpha  occ. eigenvalues --  -10.23346 -10.23275 -10.23215 -10.22923 -10.22669
 Alpha  occ. eigenvalues --  -10.21275 -10.20513 -10.19994 -10.19923 -10.19853
 Alpha  occ. eigenvalues --  -10.19725 -10.19719 -10.19295 -10.19222 -10.15529
 Alpha  occ. eigenvalues --   -1.21401  -1.21072  -1.17771  -1.16173  -1.14217
 Alpha  occ. eigenvalues --   -1.13560  -1.09630  -1.09118  -1.08576  -1.07065
 Alpha  occ. eigenvalues --   -1.06662  -1.04414  -1.02453  -1.02242  -0.99888
 Alpha  occ. eigenvalues --   -0.99729  -0.99425  -0.97722  -0.94851  -0.93366
 Alpha  occ. eigenvalues --   -0.91878  -0.91701  -0.90447  -0.90443  -0.90047
 Alpha  occ. eigenvalues --   -0.88912  -0.88323  -0.86794  -0.85866  -0.83819
 Alpha  occ. eigenvalues --   -0.83727  -0.82148  -0.81494  -0.80739  -0.79818
 Alpha  occ. eigenvalues --   -0.79295  -0.78941  -0.77288  -0.76938  -0.76024
 Alpha  occ. eigenvalues --   -0.75826  -0.74980  -0.74509  -0.74411  -0.74119
 Alpha  occ. eigenvalues --   -0.73213  -0.72923  -0.72817  -0.72133  -0.70462
 Alpha  occ. eigenvalues --   -0.69495  -0.68732  -0.68434  -0.67318  -0.67234
 Alpha  occ. eigenvalues --   -0.66902  -0.64891  -0.64361  -0.64050  -0.63681
 Alpha  occ. eigenvalues --   -0.63413  -0.63158  -0.62394  -0.62017  -0.61915
 Alpha  occ. eigenvalues --   -0.61790  -0.61177  -0.60874  -0.59845  -0.59482
 Alpha  occ. eigenvalues --   -0.59401  -0.58425  -0.58195  -0.57830  -0.57004
 Alpha  occ. eigenvalues --   -0.56565  -0.56421  -0.56352  -0.55605  -0.55269
 Alpha  occ. eigenvalues --   -0.55131  -0.54525  -0.53862  -0.53049  -0.52817
 Alpha  occ. eigenvalues --   -0.52464  -0.52050  -0.51356  -0.50873  -0.50037
 Alpha  occ. eigenvalues --   -0.50012  -0.49601  -0.49107  -0.48927  -0.48883
 Alpha  occ. eigenvalues --   -0.48678  -0.48481  -0.48114  -0.47709  -0.47341
 Alpha  occ. eigenvalues --   -0.46996  -0.46749  -0.46560  -0.46383  -0.46252
 Alpha  occ. eigenvalues --   -0.45855  -0.45526  -0.45301  -0.44655  -0.44470
 Alpha  occ. eigenvalues --   -0.44088  -0.43661  -0.43521  -0.43301  -0.43231
 Alpha  occ. eigenvalues --   -0.43042  -0.42976  -0.42621  -0.42216  -0.41714
 Alpha  occ. eigenvalues --   -0.41595  -0.41551  -0.41339  -0.41293  -0.41165
 Alpha  occ. eigenvalues --   -0.40821  -0.40313  -0.39607  -0.39485  -0.39275
 Alpha  occ. eigenvalues --   -0.38890  -0.38722  -0.38649  -0.38536  -0.38432
 Alpha  occ. eigenvalues --   -0.38292  -0.37831  -0.36966  -0.36567  -0.36394
 Alpha  occ. eigenvalues --   -0.35973  -0.35408  -0.35195  -0.35089  -0.34742
 Alpha  occ. eigenvalues --   -0.34421  -0.34364  -0.34255  -0.33003  -0.32178
 Alpha  occ. eigenvalues --   -0.31812  -0.30604  -0.28515  -0.28092  -0.26418
 Alpha  occ. eigenvalues --   -0.26222  -0.25428  -0.24386  -0.23518  -0.23237
 Alpha  occ. eigenvalues --   -0.21414  -0.21145  -0.19945  -0.19418  -0.19019
 Alpha  occ. eigenvalues --   -0.18500
 Alpha virt. eigenvalues --   -0.17904  -0.16921  -0.14103  -0.13764  -0.11495
 Alpha virt. eigenvalues --   -0.10523  -0.10122  -0.09302  -0.08906  -0.07186
 Alpha virt. eigenvalues --   -0.05871  -0.05343  -0.04949  -0.04677  -0.03801

 Mulliken charges:
               1
     1  N   -0.664854
     2  H    0.393701
     3  H    0.419176
     4  H    0.373311
     5  C   -0.152678
     6  H    0.198062
     7  C    0.585921
     8  C   -0.356280
     9  H    0.222988
    10  H    0.176056
    11  O   -0.552827
    12  C    0.307693
    13  C    0.032733
    14  H    0.238136
    15  N   -0.616999
    16  H    0.378207
    17  C    0.255146
    18  H    0.241331
    19  N   -0.565520
    20  N   -0.574803
    21  H    0.344127
    22  C   -0.086013
    23  H    0.173012
    24  C    0.652156
    25  C    0.100720
    26  H    0.174946
    27  O   -0.539260
    28  C   -0.480735
    29  H    0.195448
    30  H    0.187014
    31  H    0.141927
    32  O   -0.631636
    33  H    0.390760
    34  N   -0.626253
    35  H    0.347783
    36  C   -0.056613
    37  H    0.182808
    38  C    0.638307
    39  C   -0.276581
    40  H    0.166096
    41  H    0.076675
    42  O   -0.520919
    43  C   -0.094480
    44  H    0.197401
    45  C   -0.449523
    46  H    0.079611
    47  H    0.178391
    48  H    0.173411
    49  C   -0.443586
    50  H    0.114174
    51  H    0.164430
    52  H    0.155085
    53  N   -0.601804
    54  H    0.357818
    55  C   -0.065166
    56  H    0.187369
    57  C    0.643698
    58  C   -0.469744
    59  H    0.182162
    60  H    0.162165
    61  H    0.154583
    62  O   -0.560480
    63  N   -0.615895
    64  H    0.349798
    65  C   -0.022271
    66  H    0.175314
    67  C    0.618644
    68  C   -0.391433
    69  H    0.185881
    70  H    0.166717
    71  O   -0.558468
    72  C    0.167853
    73  C   -0.220724
    74  H    0.162750
    75  C   -0.213643
    76  H    0.211863
    77  C   -0.169736
    78  H    0.122600
    79  C   -0.213398
    80  H    0.102091
    81  O   -0.652392
    82  H    0.383649
    83  C    0.334626
    84  N   -0.609059
    85  H    0.372864
    86  C   -0.101440
    87  H    0.169256
    88  C    0.635359
    89  C   -0.353965
    90  H    0.145901
    91  H    0.173548
    92  O   -0.535321
    93  C    0.584198
    94  O   -0.468069
    95  O   -0.555748
    96  N   -0.602741
    97  H    0.364222
    98  C   -0.072584
    99  H    0.175474
   100  C    0.607839
   101  C   -0.278403
   102  H    0.139603
   103  H    0.133705
   104  O   -0.529749
   105  C   -0.268966
   106  H    0.163946
   107  H    0.197454
   108  C   -0.287690
   109  H    0.125665
   110  H    0.157414
   111  C   -0.230644
   112  H    0.228495
   113  H    0.243882
   114  N   -0.712942
   115  H    0.428063
   116  H    0.425553
   117  H    0.418122
   118  O   -0.571254
   119  H    0.406401
 Sum of Mulliken charges =   1.00000

 Dipole moment (field-independent basis, Debye):
    X=            -38.2205    Y=              2.2539    Z=            -64.8628  Tot=             75.3198
 Quadrupole moment (field-independent basis, Debye-Ang):
   XX=           -159.7872   YY=            -23.2481   ZZ=           -103.5010
   XY=            267.4043   XZ=             71.8112   YZ=             53.3961

 Normal termination of Gaussian 16 at Sun Jun 19 13:53:36 2022.
