 Gaussian 16, Revision C.01,
 Gaussian 16:  ES64L-G16RevC.01  3-Jul-2019

 ----------------------------------------------------------------------
 # B3LYP/6-31G* empiricaldispersion=gd3 guess=read geom=check nosymm in
 tegral(ultrafinegrid)
 ----------------------------------------------------------------------

 ------------------------------------------------------
 Candidate Structure: Conf:966 Charge calc in gas phase
 ------------------------------------------------------
 Structure from the checkpoint file:  "conf-966.chk"
 Charge =  1 Multiplicity = 1

                          Input orientation:
 ---------------------------------------------------------------------
 Center     Atomic      Atomic             Coordinates (Angstroms)
 Number     Number       Type             X           Y           Z
 ---------------------------------------------------------------------
      1          7           0       -7.007958   -6.598418   -4.160171
      2          1           0       -7.662937   -6.485758   -3.385960
      3          1           0       -7.291296   -5.938400   -4.886528
      4          1           0       -7.083100   -7.548012   -4.524989
      5          6           0       -5.634377   -6.289512   -3.724010
      6          1           0       -5.342621   -6.977893   -2.922028
      7          6           0       -5.611189   -4.862720   -3.175327
      8          6           0       -4.624301   -6.464135   -4.874926
      9          1           0       -4.696959   -7.488137   -5.248185
     10          1           0       -3.610652   -6.323354   -4.489931
     11          8           0       -6.568819   -4.112559   -3.296685
     12          6           0       -4.873636   -5.516265   -6.024115
     13          6           0       -5.347996   -5.770392   -7.273949
     14          1           0       -5.599553   -6.718666   -7.743102
     15          7           0       -4.707962   -4.148792   -5.905863
     16          1           0       -4.380040   -3.638373   -5.083861
     17          6           0       -5.110549   -3.598008   -7.053946
     18          1           0       -5.157719   -2.543296   -7.241287
     19          7           0       -5.501298   -4.554332   -7.915612
     20          7           0       -4.427566   -4.472226   -2.636325
     21          1           0       -3.763267   -5.177511   -2.356051
     22          6           0       -4.261467   -3.183234   -1.993157
     23          1           0       -4.966309   -2.487728   -2.441254
     24          6           0       -2.831901   -2.726624   -2.231860
     25          6           0       -4.506532   -3.254970   -0.468953
     26          1           0       -4.103011   -2.337666   -0.016179
     27          8           0       -1.880174   -3.425045   -1.863248
     28          6           0       -5.979439   -3.360894   -0.139739
     29          1           0       -6.520903   -2.482181   -0.503092
     30          1           0       -6.108353   -3.440131    0.939018
     31          1           0       -6.418383   -4.244556   -0.601828
     32          8           0       -3.872028   -4.394143    0.095237
     33          1           0       -2.924390   -4.294609   -0.052557
     34          7           0       -2.665909   -1.537272   -2.832812
     35          1           0       -3.467468   -0.949601   -2.987640
     36          6           0       -1.346099   -0.941785   -3.016957
     37          1           0       -0.662520   -1.777861   -3.190184
     38          6           0       -0.890181   -0.237607   -1.729100
     39          6           0       -1.346995    0.021427   -4.192436
     40          1           0       -0.445858    0.632235   -4.152165
     41          1           0       -2.179554    0.714358   -4.048479
     42          8           0       -0.629537    0.963279   -1.684868
     43          6           0       -1.434342   -0.625196   -5.573333
     44          1           0       -2.294568   -1.302874   -5.588729
     45          6           0       -1.650271    0.458929   -6.625229
     46          1           0       -0.819947    1.169320   -6.609728
     47          1           0       -2.573456    1.013619   -6.444346
     48          1           0       -1.705667    0.035459   -7.630485
     49          6           0       -0.178485   -1.426609   -5.901982
     50          1           0        0.696239   -0.768053   -5.935530
     51          1           0       -0.270189   -1.906597   -6.879415
     52          1           0        0.008520   -2.214058   -5.164893
     53          7           0       -0.821378   -1.023010   -0.619632
     54          1           0       -0.815805   -2.030463   -0.722604
     55          6           0       -0.246164   -0.480659    0.597491
     56          1           0       -0.444797    0.591981    0.576735
     57          6           0        1.264085   -0.727899    0.597251
     58          6           0       -0.869077   -1.127510    1.825382
     59          1           0       -0.490041   -0.655521    2.735255
     60          1           0       -0.615619   -2.187752    1.858622
     61          1           0       -1.953159   -1.018045    1.794075
     62          8           0        1.726071   -1.846569    0.430633
     63          7           0        2.029495    0.372859    0.804394
     64          1           0        1.615804    1.226491    1.145139
     65          6           0        3.464332    0.292747    0.946010
     66          1           0        3.723305   -0.760362    1.067310
     67          6           0        3.853771    1.120295    2.170445
     68          6           0        4.186319    0.861080   -0.292789
     69          1           0        3.857050    1.896240   -0.413682
     70          1           0        5.261959    0.885638   -0.097605
     71          8           0        3.196757    2.085285    2.521513
     72          6           0        3.910466    0.069628   -1.540490
     73          6           0        4.825147   -0.868721   -2.021229
     74          1           0        5.766763   -1.011912   -1.506116
     75          6           0        2.710378    0.235163   -2.240498
     76          1           0        1.981471    0.957112   -1.892849
     77          6           0        4.560882   -1.626053   -3.161013
     78          1           0        5.273635   -2.349883   -3.534161
     79          6           0        2.429510   -0.531089   -3.372896
     80          1           0        1.474218   -0.415075   -3.871423
     81          8           0        3.130907   -2.228276   -4.948687
     82          1           0        2.245515   -2.025346   -5.283984
     83          6           0        3.357778   -1.462484   -3.838883
     84          7           0        4.998459    0.748595    2.799674
     85          1           0        5.628987    0.072927    2.378283
     86          6           0        5.653119    1.679332    3.695364
     87          1           0        4.878016    2.179148    4.277101
     88          6           0        6.460757    2.715798    2.897603
     89          6           0        6.635469    0.934667    4.608276
     90          1           0        6.134459    0.081299    5.068633
     91          1           0        7.035402    1.612127    5.370818
     92          8           0        6.836345    2.536588    1.754987
     93          6           0        7.778589    0.476282    3.682417
     94          8           0        8.871013    1.041301    3.808584
     95          8           0        7.468199   -0.432453    2.878608
     96          7           0        6.745501    3.849064    3.607157
     97          1           0        6.759666    3.798569    4.620298
     98          6           0        7.818876    4.704918    3.178656
     99          1           0        8.491768    4.141585    2.512369
    100          6           0        8.599385    5.078770    4.487889
    101          6           0        7.373717    5.986509    2.476252
    102          1           0        8.273673    6.582328    2.304624
    103          1           0        6.720071    6.568761    3.132576
    104          8           0        9.568099    5.826527    4.366089
    105          6           0        6.670068    5.699244    1.157278
    106          1           0        7.288489    5.007202    0.580518
    107          1           0        5.726945    5.190877    1.351022
    108          6           0        6.405775    6.954239    0.345157
    109          1           0        5.854577    7.675817    0.956239
    110          1           0        7.357912    7.424777    0.079398
    111          6           0        5.607046    6.688446   -0.917544
    112          1           0        5.454022    7.617976   -1.468328
    113          1           0        4.618544    6.312417   -0.641574
    114          7           0        6.269396    5.692120   -1.800115
    115          1           0        5.837944    5.646307   -2.723348
    116          1           0        6.221611    4.759258   -1.393190
    117          1           0        7.255475    5.918416   -1.918072
    118          8           0        8.145819    4.538494    5.525788
    119          1           0       -5.852224   -4.407066   -8.863705
 ---------------------------------------------------------------------

 SCF Done:  E(RB3LYP) =  -2933.54501270     A.U. after    4 cycles

 Alpha  occ. eigenvalues --  -19.28520 -19.25197 -19.24790 -19.22530 -19.19450
 Alpha  occ. eigenvalues --  -19.14981 -19.12850 -19.10894 -19.07595 -19.07263
 Alpha  occ. eigenvalues --  -19.06155 -19.06001 -14.66155 -14.60046 -14.57214
 Alpha  occ. eigenvalues --  -14.56208 -14.52286 -14.49619 -14.42760 -14.39172
 Alpha  occ. eigenvalues --  -14.34804 -14.32385 -10.45839 -10.45096 -10.41859
 Alpha  occ. eigenvalues --  -10.41377 -10.41177 -10.40816 -10.40102 -10.36865
 Alpha  occ. eigenvalues --  -10.36624 -10.36065 -10.35742 -10.33402 -10.32215
 Alpha  occ. eigenvalues --  -10.29419 -10.29385 -10.28975 -10.28453 -10.28163
 Alpha  occ. eigenvalues --  -10.28131 -10.27639 -10.27538 -10.26895 -10.26856
 Alpha  occ. eigenvalues --  -10.25463 -10.23957 -10.23637 -10.23560 -10.23261
 Alpha  occ. eigenvalues --  -10.23199 -10.22760 -10.22547 -10.22492 -10.22267
 Alpha  occ. eigenvalues --  -10.22218 -10.21730 -10.19540 -10.19445 -10.15826
 Alpha  occ. eigenvalues --   -1.22985  -1.21491  -1.19811  -1.17152  -1.14990
 Alpha  occ. eigenvalues --   -1.13203  -1.11402  -1.10699  -1.09100  -1.08534
 Alpha  occ. eigenvalues --   -1.07462  -1.05776  -1.05339  -1.03036  -1.00260
 Alpha  occ. eigenvalues --   -1.00099  -0.99904  -0.99276  -0.96006  -0.94382
 Alpha  occ. eigenvalues --   -0.92387  -0.92380  -0.92134  -0.90896  -0.90595
 Alpha  occ. eigenvalues --   -0.89971  -0.89281  -0.89190  -0.86821  -0.86436
 Alpha  occ. eigenvalues --   -0.83958  -0.83646  -0.83030  -0.81861  -0.81649
 Alpha  occ. eigenvalues --   -0.80515  -0.79129  -0.78895  -0.78545  -0.78073
 Alpha  occ. eigenvalues --   -0.77716  -0.76251  -0.75838  -0.75234  -0.74510
 Alpha  occ. eigenvalues --   -0.74163  -0.73104  -0.72850  -0.72470  -0.72082
 Alpha  occ. eigenvalues --   -0.71016  -0.69982  -0.68965  -0.68641  -0.68000
 Alpha  occ. eigenvalues --   -0.67641  -0.66677  -0.66336  -0.65957  -0.64827
 Alpha  occ. eigenvalues --   -0.64298  -0.64015  -0.63668  -0.63037  -0.62791
 Alpha  occ. eigenvalues --   -0.62586  -0.61954  -0.61728  -0.61462  -0.61220
 Alpha  occ. eigenvalues --   -0.60986  -0.60143  -0.59578  -0.59161  -0.58701
 Alpha  occ. eigenvalues --   -0.58467  -0.58157  -0.57695  -0.56936  -0.56657
 Alpha  occ. eigenvalues --   -0.55957  -0.55707  -0.55361  -0.54749  -0.54018
 Alpha  occ. eigenvalues --   -0.53731  -0.53537  -0.52871  -0.52446  -0.52065
 Alpha  occ. eigenvalues --   -0.51483  -0.51308  -0.51094  -0.50360  -0.50200
 Alpha  occ. eigenvalues --   -0.49906  -0.49790  -0.49395  -0.49196  -0.49036
 Alpha  occ. eigenvalues --   -0.48875  -0.48468  -0.48339  -0.48220  -0.47753
 Alpha  occ. eigenvalues --   -0.47613  -0.46653  -0.46489  -0.46228  -0.46045
 Alpha  occ. eigenvalues --   -0.45724  -0.45579  -0.44927  -0.44781  -0.44703
 Alpha  occ. eigenvalues --   -0.44594  -0.44234  -0.43583  -0.43541  -0.43203
 Alpha  occ. eigenvalues --   -0.43121  -0.43075  -0.42749  -0.42646  -0.42201
 Alpha  occ. eigenvalues --   -0.41959  -0.41836  -0.41750  -0.41452  -0.41303
 Alpha  occ. eigenvalues --   -0.40535  -0.40187  -0.39625  -0.39447  -0.39138
 Alpha  occ. eigenvalues --   -0.38752  -0.38648  -0.38308  -0.38076  -0.37652
 Alpha  occ. eigenvalues --   -0.37608  -0.37317  -0.36975  -0.36514  -0.36308
 Alpha  occ. eigenvalues --   -0.35506  -0.34958  -0.34739  -0.33687  -0.33359
 Alpha  occ. eigenvalues --   -0.32647  -0.32609  -0.29481  -0.29026  -0.28731
 Alpha  occ. eigenvalues --   -0.27237  -0.26288  -0.25475  -0.24834  -0.24036
 Alpha  occ. eigenvalues --   -0.21800  -0.21525  -0.20313  -0.19740  -0.19358
 Alpha  occ. eigenvalues --   -0.18806
 Alpha virt. eigenvalues --   -0.18234  -0.15964  -0.15443  -0.14208  -0.11657
 Alpha virt. eigenvalues --   -0.10258  -0.10236  -0.09969  -0.09683  -0.07392
 Alpha virt. eigenvalues --   -0.06890  -0.05945  -0.05228  -0.04484  -0.04227

 Mulliken charges:
               1
     1  N   -0.680285
     2  H    0.422348
     3  H    0.399966
     4  H    0.401384
     5  C   -0.147631
     6  H    0.240943
     7  C    0.596968
     8  C   -0.378762
     9  H    0.197879
    10  H    0.223680
    11  O   -0.523303
    12  C    0.289041
    13  C   -0.013220
    14  H    0.210936
    15  N   -0.598468
    16  H    0.382566
    17  C    0.217455
    18  H    0.222748
    19  N   -0.554628
    20  N   -0.597947
    21  H    0.356381
    22  C   -0.097968
    23  H    0.175546
    24  C    0.628156
    25  C    0.127178
    26  H    0.159836
    27  O   -0.553457
    28  C   -0.442985
    29  H    0.157486
    30  H    0.192501
    31  H    0.135714
    32  O   -0.628890
    33  H    0.417300
    34  N   -0.598699
    35  H    0.339345
    36  C   -0.095978
    37  H    0.205978
    38  C    0.641473
    39  C   -0.280834
    40  H    0.197430
    41  H    0.141310
    42  O   -0.522304
    43  C   -0.075477
    44  H    0.080749
    45  C   -0.444773
    46  H    0.164824
    47  H    0.143698
    48  H    0.144955
    49  C   -0.478594
    50  H    0.167248
    51  H    0.155499
    52  H    0.154762
    53  N   -0.612345
    54  H    0.364182
    55  C   -0.062497
    56  H    0.174296
    57  C    0.631686
    58  C   -0.463779
    59  H    0.182131
    60  H    0.169706
    61  H    0.140896
    62  O   -0.532259
    63  N   -0.597620
    64  H    0.340185
    65  C   -0.066041
    66  H    0.198151
    67  C    0.617346
    68  C   -0.362779
    69  H    0.118074
    70  H    0.194033
    71  O   -0.556140
    72  C    0.172231
    73  C   -0.191568
    74  H    0.155456
    75  C   -0.202346
    76  H    0.145251
    77  C   -0.158292
    78  H    0.143129
    79  C   -0.210445
    80  H    0.091313
    81  O   -0.660783
    82  H    0.408215
    83  C    0.337323
    84  N   -0.592891
    85  H    0.367591
    86  C   -0.102888
    87  H    0.170768
    88  C    0.628895
    89  C   -0.356225
    90  H    0.150675
    91  H    0.175357
    92  O   -0.559489
    93  C    0.580369
    94  O   -0.471894
    95  O   -0.556422
    96  N   -0.604644
    97  H    0.365647
    98  C   -0.082276
    99  H    0.170528
   100  C    0.612168
   101  C   -0.255307
   102  H    0.157022
   103  H    0.141797
   104  O   -0.511189
   105  C   -0.286521
   106  H    0.126406
   107  H    0.166978
   108  C   -0.290270
   109  H    0.194113
   110  H    0.159802
   111  C   -0.224250
   112  H    0.209112
   113  H    0.224150
   114  N   -0.715273
   115  H    0.420113
   116  H    0.447279
   117  H    0.426727
   118  O   -0.564370
   119  H    0.392620
 Sum of Mulliken charges =   1.00000

 Dipole moment (field-independent basis, Debye):
    X=            -53.9346    Y=            -22.9047    Z=            -56.2909  Tot=             81.2541
 Quadrupole moment (field-independent basis, Debye-Ang):
   XX=           -331.8638   YY=            -72.7164   ZZ=           -207.0954
   XY=            240.7074   XZ=             -2.1549   YZ=             70.5715

 Normal termination of Gaussian 16 at Sun Jun 19 13:54:05 2022.
