 Gaussian 16, Revision C.01,
 Gaussian 16:  ES64L-G16RevC.01  3-Jul-2019

 ----------------------------------------------------------------------
 # B3LYP/6-31G* empiricaldispersion=gd3 guess=read geom=check nosymm in
 tegral(ultrafinegrid)
 ----------------------------------------------------------------------

 ------------------------------------------------------
 Candidate Structure: Conf:586 Charge calc in gas phase
 ------------------------------------------------------
 Structure from the checkpoint file:  "conf-586.chk"
 Charge =  1 Multiplicity = 1

                          Input orientation:
 ---------------------------------------------------------------------
 Center     Atomic      Atomic             Coordinates (Angstroms)
 Number     Number       Type             X           Y           Z
 ---------------------------------------------------------------------
      1          7           0        3.866131   -3.326077   -8.117439
      2          1           0        4.650286   -2.690677   -7.961985
      3          1           0        4.088287   -4.209174   -7.649940
      4          1           0        3.721005   -3.482515   -9.114640
      5          6           0        2.631800   -2.834472   -7.483883
      6          1           0        2.516313   -1.759708   -7.653527
      7          6           0        2.737214   -3.119458   -5.992620
      8          6           0        1.413334   -3.564109   -8.053172
      9          1           0        0.503608   -3.212434   -7.564910
     10          1           0        1.497234   -4.629698   -7.828660
     11          8           0        3.461690   -4.022615   -5.576774
     12          6           0        1.265540   -3.405547   -9.547386
     13          6           0        1.729012   -2.450560  -10.395294
     14          1           0        2.315524   -1.560643  -10.199787
     15          7           0        0.563235   -4.329738  -10.310907
     16          1           0        0.108913   -5.170008   -9.945517
     17          6           0        0.619393   -3.939377  -11.595945
     18          1           0        0.176518   -4.441867  -12.427485
     19          7           0        1.322308   -2.794701  -11.673681
     20          7           0        1.956045   -2.390097   -5.172874
     21          1           0        1.294786   -1.713151   -5.525748
     22          6           0        1.815748   -2.690786   -3.761900
     23          1           0        1.929450   -3.769662   -3.620313
     24          6           0        0.406173   -2.231561   -3.382103
     25          6           0        2.918442   -1.993607   -2.923062
     26          1           0        2.792687   -0.910077   -3.024199
     27          8           0       -0.163638   -1.343575   -4.003223
     28          6           0        2.860072   -2.379068   -1.452512
     29          1           0        1.936262   -2.048463   -0.986492
     30          1           0        3.694092   -1.902685   -0.928200
     31          1           0        2.966682   -3.463174   -1.336059
     32          8           0        4.198280   -2.304902   -3.444922
     33          1           0        4.117578   -3.129433   -3.937998
     34          7           0       -0.174240   -2.878128   -2.340975
     35          1           0        0.403727   -3.449777   -1.746386
     36          6           0       -1.444325   -2.400313   -1.793575
     37          1           0       -2.068027   -2.169076   -2.658686
     38          6           0       -1.186803   -1.122458   -0.994223
     39          6           0       -2.086734   -3.485994   -0.944055
     40          1           0       -1.393111   -3.759146   -0.144625
     41          1           0       -2.213852   -4.364957   -1.581393
     42          8           0       -0.804941   -1.154183    0.171191
     43          6           0       -3.443066   -3.128001   -0.326411
     44          1           0       -3.276073   -2.313956    0.386510
     45          6           0       -4.447300   -2.656540   -1.371711
     46          1           0       -4.603225   -3.433396   -2.127458
     47          1           0       -4.121541   -1.744054   -1.876269
     48          1           0       -5.412618   -2.450168   -0.902388
     49          6           0       -3.982604   -4.333332    0.438718
     50          1           0       -4.166776   -5.163725   -0.246712
     51          1           0       -4.922735   -4.090530    0.938973
     52          1           0       -3.273427   -4.667731    1.198813
     53          7           0       -1.410343    0.024013   -1.691287
     54          1           0       -1.447100   -0.085884   -2.695642
     55          6           0       -0.865030    1.310680   -1.288240
     56          1           0       -1.295618    2.035590   -1.981045
     57          6           0        0.650649    1.330473   -1.525436
     58          6           0       -1.206107    1.730416    0.136912
     59          1           0       -0.858877    2.752477    0.307995
     60          1           0       -0.707374    1.083163    0.857677
     61          1           0       -2.283632    1.688281    0.302430
     62          8           0        1.313596    0.314118   -1.608613
     63          7           0        1.200418    2.571011   -1.658791
     64          1           0        0.677265    3.335970   -1.271272
     65          6           0        2.647044    2.666468   -1.514615
     66          1           0        3.085841    1.971886   -2.229686
     67          6           0        3.040761    2.242904   -0.103371
     68          6           0        3.121467    4.088754   -1.821496
     69          1           0        2.673132    4.374259   -2.774673
     70          1           0        2.738796    4.762638   -1.050837
     71          8           0        2.317285    2.408416    0.866518
     72          6           0        4.622354    4.168604   -1.905798
     73          6           0        5.385459    4.675705   -0.854822
     74          1           0        4.890373    5.035901    0.034199
     75          6           0        5.291838    3.688788   -3.030478
     76          1           0        4.707237    3.269005   -3.843377
     77          6           0        6.775605    4.708441   -0.929435
     78          1           0        7.370989    5.091357   -0.113240
     79          6           0        6.681271    3.729475   -3.123824
     80          1           0        7.173739    3.355035   -4.013746
     81          8           0        8.792464    4.309607   -2.082852
     82          1           0        9.111993    3.960537   -2.919093
     83          6           0        7.425931    4.245681   -2.064936
     84          7           0        4.266273    1.658298   -0.022391
     85          1           0        4.886120    1.746765   -0.807620
     86          6           0        4.803761    1.294718    1.269612
     87          1           0        3.941252    1.070726    1.901630
     88          6           0        5.596484    2.448121    1.882435
     89          6           0        5.732327    0.097897    1.210480
     90          1           0        6.566875    0.263743    0.525017
     91          1           0        5.193661   -0.803875    0.899862
     92          8           0        6.794380    2.599129    1.685179
     93          6           0        6.281526   -0.109133    2.637384
     94          8           0        7.273018   -0.840483    2.749328
     95          8           0        5.637862    0.468642    3.553552
     96          7           0        4.873900    3.293675    2.646905
     97          1           0        3.972174    3.035412    3.030933
     98          6           0        5.548636    4.233894    3.497433
     99          1           0        6.460047    3.762484    3.900156
    100          6           0        4.568709    4.506334    4.677728
    101          6           0        5.926876    5.524492    2.772587
    102          1           0        5.024527    6.121619    2.605227
    103          1           0        6.309978    5.241197    1.787008
    104          8           0        4.910889    5.352901    5.511697
    105          6           0        6.984936    6.337319    3.503388
    106          1           0        6.645384    6.566761    4.515420
    107          1           0        7.872658    5.706404    3.608306
    108          6           0        7.331921    7.617380    2.763980
    109          1           0        7.702664    7.378705    1.761003
    110          1           0        6.419493    8.207201    2.631974
    111          6           0        8.354437    8.479080    3.480603
    112          1           0        8.007968    8.662058    4.501405
    113          1           0        8.436547    9.451611    2.992168
    114          7           0        9.696526    7.843908    3.536963
    115          1           0       10.376454    8.424404    4.028563
    116          1           0       10.058156    7.663245    2.600852
    117          1           0        9.657223    6.948332    4.021479
    118          8           0        3.536490    3.804669    4.666769
    119          1           0        1.538397   -2.263419  -12.519445
 ---------------------------------------------------------------------

 SCF Done:  E(RB3LYP) =  -2933.53769698     A.U. after    1 cycles

 Alpha  occ. eigenvalues --  -19.27795 -19.21957 -19.21719 -19.20409 -19.16570
 Alpha  occ. eigenvalues --  -19.15659 -19.12450 -19.08449 -19.06255 -19.06164
 Alpha  occ. eigenvalues --  -19.05458 -19.04877 -14.64382 -14.60088 -14.56026
 Alpha  occ. eigenvalues --  -14.55915 -14.50254 -14.44706 -14.40308 -14.39947
 Alpha  occ. eigenvalues --  -14.36308 -14.31118 -10.45008 -10.44538 -10.41343
 Alpha  occ. eigenvalues --  -10.40454 -10.40316 -10.39670 -10.38480 -10.35787
 Alpha  occ. eigenvalues --  -10.33609 -10.33010 -10.32860 -10.30681 -10.29327
 Alpha  occ. eigenvalues --  -10.29201 -10.28856 -10.27844 -10.27350 -10.26498
 Alpha  occ. eigenvalues --  -10.25006 -10.23825 -10.23659 -10.23503 -10.23362
 Alpha  occ. eigenvalues --  -10.23290 -10.23032 -10.23020 -10.22501 -10.22495
 Alpha  occ. eigenvalues --  -10.22446 -10.22133 -10.22046 -10.21977 -10.21286
 Alpha  occ. eigenvalues --  -10.20931 -10.20176 -10.19308 -10.18597 -10.15234
 Alpha  occ. eigenvalues --   -1.21981  -1.20626  -1.18548  -1.14973  -1.14112
 Alpha  occ. eigenvalues --   -1.10206  -1.09226  -1.09042  -1.08071  -1.07561
 Alpha  occ. eigenvalues --   -1.06372  -1.04751  -1.01148  -1.01015  -0.99514
 Alpha  occ. eigenvalues --   -0.99119  -0.98880  -0.97154  -0.96925  -0.93586
 Alpha  occ. eigenvalues --   -0.93009  -0.90689  -0.90327  -0.89808  -0.89619
 Alpha  occ. eigenvalues --   -0.88368  -0.88042  -0.86831  -0.85337  -0.83854
 Alpha  occ. eigenvalues --   -0.83135  -0.81824  -0.81411  -0.79748  -0.79672
 Alpha  occ. eigenvalues --   -0.78950  -0.78670  -0.78466  -0.77215  -0.76919
 Alpha  occ. eigenvalues --   -0.75431  -0.74465  -0.73751  -0.73139  -0.73100
 Alpha  occ. eigenvalues --   -0.72899  -0.71888  -0.71567  -0.70561  -0.69881
 Alpha  occ. eigenvalues --   -0.68756  -0.67823  -0.67615  -0.67506  -0.67327
 Alpha  occ. eigenvalues --   -0.66663  -0.66331  -0.64789  -0.63425  -0.63284
 Alpha  occ. eigenvalues --   -0.62954  -0.62774  -0.61924  -0.61867  -0.61233
 Alpha  occ. eigenvalues --   -0.61102  -0.60975  -0.60737  -0.60383  -0.59833
 Alpha  occ. eigenvalues --   -0.59273  -0.59058  -0.58646  -0.58564  -0.57356
 Alpha  occ. eigenvalues --   -0.57072  -0.56024  -0.55594  -0.55072  -0.54733
 Alpha  occ. eigenvalues --   -0.54623  -0.54065  -0.53686  -0.52935  -0.52141
 Alpha  occ. eigenvalues --   -0.51954  -0.51412  -0.51188  -0.50915  -0.50536
 Alpha  occ. eigenvalues --   -0.49546  -0.49205  -0.49069  -0.48693  -0.48430
 Alpha  occ. eigenvalues --   -0.48025  -0.47730  -0.47601  -0.46888  -0.46655
 Alpha  occ. eigenvalues --   -0.46563  -0.46388  -0.46193  -0.45769  -0.45679
 Alpha  occ. eigenvalues --   -0.45405  -0.44903  -0.44613  -0.44273  -0.44112
 Alpha  occ. eigenvalues --   -0.43825  -0.43609  -0.43076  -0.42974  -0.42731
 Alpha  occ. eigenvalues --   -0.42505  -0.42451  -0.42341  -0.41986  -0.41702
 Alpha  occ. eigenvalues --   -0.41493  -0.41322  -0.41139  -0.41009  -0.40527
 Alpha  occ. eigenvalues --   -0.40173  -0.39834  -0.39724  -0.39356  -0.38722
 Alpha  occ. eigenvalues --   -0.38354  -0.37948  -0.37850  -0.37793  -0.37695
 Alpha  occ. eigenvalues --   -0.37519  -0.37365  -0.36988  -0.36722  -0.36646
 Alpha  occ. eigenvalues --   -0.36131  -0.35797  -0.35651  -0.34853  -0.34548
 Alpha  occ. eigenvalues --   -0.33678  -0.33304  -0.33064  -0.32084  -0.32040
 Alpha  occ. eigenvalues --   -0.31473  -0.30642  -0.29480  -0.29115  -0.28176
 Alpha  occ. eigenvalues --   -0.27247  -0.26536  -0.25652  -0.22963  -0.21961
 Alpha  occ. eigenvalues --   -0.20794  -0.20358  -0.19408  -0.19224  -0.18481
 Alpha  occ. eigenvalues --   -0.17957
 Alpha virt. eigenvalues --   -0.17300  -0.14991  -0.14127  -0.13328  -0.10071
 Alpha virt. eigenvalues --   -0.09670  -0.08466  -0.07495  -0.07006  -0.06685
 Alpha virt. eigenvalues --   -0.05725  -0.04778  -0.04457  -0.04038  -0.03430

 Mulliken charges:
               1
     1  N   -0.685862
     2  H    0.419402
     3  H    0.422091
     4  H    0.364856
     5  C   -0.158978
     6  H    0.226277
     7  C    0.644288
     8  C   -0.355492
     9  H    0.240197
    10  H    0.199600
    11  O   -0.537709
    12  C    0.292442
    13  C   -0.022433
    14  H    0.197234
    15  N   -0.611605
    16  H    0.380990
    17  C    0.211797
    18  H    0.227717
    19  N   -0.563833
    20  N   -0.584199
    21  H    0.354996
    22  C   -0.138532
    23  H    0.179351
    24  C    0.652501
    25  C    0.175214
    26  H    0.172124
    27  O   -0.558334
    28  C   -0.489417
    29  H    0.196538
    30  H    0.210657
    31  H    0.123849
    32  O   -0.649686
    33  H    0.412348
    34  N   -0.602797
    35  H    0.351422
    36  C   -0.070231
    37  H    0.160912
    38  C    0.651549
    39  C   -0.274464
    40  H    0.162897
    41  H    0.126932
    42  O   -0.519101
    43  C   -0.086902
    44  H    0.165685
    45  C   -0.452205
    46  H    0.130310
    47  H    0.142022
    48  H    0.156035
    49  C   -0.445239
    50  H    0.133732
    51  H    0.153056
    52  H    0.155450
    53  N   -0.587390
    54  H    0.345477
    55  C   -0.087646
    56  H    0.145376
    57  C    0.641892
    58  C   -0.444049
    59  H    0.151809
    60  H    0.232511
    61  H    0.156079
    62  O   -0.520460
    63  N   -0.598677
    64  H    0.337855
    65  C   -0.061183
    66  H    0.159653
    67  C    0.637452
    68  C   -0.372182
    69  H    0.147251
    70  H    0.166861
    71  O   -0.532255
    72  C    0.143677
    73  C   -0.187724
    74  H    0.160769
    75  C   -0.193411
    76  H    0.106183
    77  C   -0.130025
    78  H    0.136613
    79  C   -0.190194
    80  H    0.107189
    81  O   -0.644070
    82  H    0.405419
    83  C    0.349482
    84  N   -0.607803
    85  H    0.325388
    86  C   -0.040471
    87  H    0.202172
    88  C    0.641359
    89  C   -0.390150
    90  H    0.140578
    91  H    0.134380
    92  O   -0.575190
    93  C    0.622622
    94  O   -0.516034
    95  O   -0.514087
    96  N   -0.613283
    97  H    0.378849
    98  C   -0.049040
    99  H    0.156585
   100  C    0.586781
   101  C   -0.272888
   102  H    0.134948
   103  H    0.153719
   104  O   -0.562411
   105  C   -0.289705
   106  H    0.202273
   107  H    0.107371
   108  C   -0.290614
   109  H    0.146756
   110  H    0.195964
   111  C   -0.227615
   112  H    0.233160
   113  H    0.209095
   114  N   -0.713756
   115  H    0.423410
   116  H    0.422941
   117  H    0.437594
   118  O   -0.551421
   119  H    0.388795
 Sum of Mulliken charges =   1.00000

 Dipole moment (field-independent basis, Debye):
    X=             20.2652    Y=              0.9849    Z=            -64.6560  Tot=             67.7646
 Quadrupole moment (field-independent basis, Debye-Ang):
   XX=           -108.3863   YY=            -69.1403   ZZ=            138.5905
   XY=            219.7087   XZ=           -103.6532   YZ=            221.6743

 Normal termination of Gaussian 16 at Sun Jun 19 13:52:19 2022.
