 Gaussian 16, Revision C.01,
 Gaussian 16:  ES64L-G16RevC.01  3-Jul-2019

 ----------------------------------------------------------------------
 # B3LYP/6-31G* empiricaldispersion=gd3 guess=read geom=check nosymm in
 tegral(ultrafinegrid)
 ----------------------------------------------------------------------

 ------------------------------------------------------
 Candidate Structure: Conf:399 Charge calc in gas phase
 ------------------------------------------------------
 Structure from the checkpoint file:  "conf-399.chk"
 Charge =  1 Multiplicity = 1

                          Input orientation:
 ---------------------------------------------------------------------
 Center     Atomic      Atomic             Coordinates (Angstroms)
 Number     Number       Type             X           Y           Z
 ---------------------------------------------------------------------
      1          7           0       -4.117440    0.390167   -8.240675
      2          1           0       -4.726460    1.205107   -8.149778
      3          1           0       -3.196967    0.664743   -7.889269
      4          1           0       -4.037998    0.144298   -9.226003
      5          6           0       -4.610877   -0.742067   -7.436744
      6          1           0       -5.666996   -0.915417   -7.662212
      7          6           0       -4.476528   -0.382864   -5.954982
      8          6           0       -3.828170   -2.018821   -7.774627
      9          1           0       -2.769262   -1.839260   -7.572902
     10          1           0       -3.944681   -2.217045   -8.841383
     11          8           0       -3.674968    0.455779   -5.563898
     12          6           0       -4.292417   -3.202525   -6.976697
     13          6           0       -3.758394   -3.782698   -5.869296
     14          1           0       -2.838414   -3.550123   -5.344896
     15          7           0       -5.541843   -3.766744   -7.149174
     16          1           0       -6.212184   -3.533495   -7.886973
     17          6           0       -5.738067   -4.643254   -6.156468
     18          1           0       -6.675301   -5.141952   -5.971541
     19          7           0       -4.662518   -4.680015   -5.353019
     20          7           0       -5.316714   -1.039809   -5.114044
     21          1           0       -5.815042   -1.862912   -5.431688
     22          6           0       -5.114554   -0.966177   -3.685029
     23          1           0       -4.806402    0.055408   -3.456468
     24          6           0       -3.952180   -1.915647   -3.263402
     25          6           0       -6.419248   -1.280795   -2.938545
     26          1           0       -6.155053   -1.496876   -1.897878
     27          8           0       -4.140297   -3.135656   -3.153619
     28          6           0       -7.405710   -0.135023   -3.023014
     29          1           0       -7.002751    0.767776   -2.556280
     30          1           0       -8.333283   -0.409709   -2.518846
     31          1           0       -7.634788    0.086615   -4.066965
     32          8           0       -7.060104   -2.415761   -3.512321
     33          1           0       -6.554980   -3.195113   -3.260070
     34          7           0       -2.737205   -1.291303   -3.166617
     35          1           0       -2.707268   -0.293038   -3.313697
     36          6           0       -1.652496   -1.799276   -2.341036
     37          1           0       -1.988865   -2.747639   -1.910881
     38          6           0       -1.404373   -0.789917   -1.227771
     39          6           0       -0.376820   -2.008032   -3.147443
     40          1           0        0.416927   -2.314354   -2.463556
     41          1           0       -0.074799   -1.041500   -3.559260
     42          8           0       -1.676458    0.388155   -1.351949
     43          6           0       -0.496994   -3.030066   -4.277769
     44          1           0       -1.222516   -2.635365   -5.005511
     45          6           0        0.844731   -3.175822   -4.984949
     46          1           0        1.600782   -3.540922   -4.285825
     47          1           0        1.187348   -2.217936   -5.383597
     48          1           0        0.784499   -3.882195   -5.816184
     49          6           0       -0.990274   -4.375999   -3.762053
     50          1           0       -0.290215   -4.769287   -3.017872
     51          1           0       -1.043923   -5.103134   -4.578282
     52          1           0       -1.975856   -4.311249   -3.303292
     53          7           0       -0.826106   -1.299725   -0.094121
     54          1           0       -0.377413   -2.194661   -0.190423
     55          6           0       -0.113079   -0.396732    0.796666
     56          1           0       -0.674516    0.536363    0.820793
     57          6           0        1.283879   -0.127650    0.227714
     58          6           0       -0.008075   -0.998994    2.192142
     59          1           0        0.537637   -0.326838    2.860301
     60          1           0        0.526327   -1.951487    2.148864
     61          1           0       -1.004065   -1.174246    2.599795
     62          8           0        1.863721   -0.919194   -0.493322
     63          7           0        1.840783    1.061090    0.602381
     64          1           0        1.454325    1.496262    1.419905
     65          6           0        3.270471    1.249019    0.429851
     66          1           0        3.509346    0.901389   -0.574895
     67          6           0        4.010033    0.412858    1.471696
     68          6           0        3.644517    2.721225    0.605002
     69          1           0        3.357169    3.020400    1.614057
     70          1           0        4.733034    2.799272    0.549535
     71          8           0        3.647131    0.443815    2.645011
     72          6           0        3.001595    3.614366   -0.421643
     73          6           0        3.372462    3.536033   -1.763336
     74          1           0        4.145112    2.832151   -2.053724
     75          6           0        2.001256    4.522052   -0.073326
     76          1           0        1.693156    4.611725    0.961622
     77          6           0        2.778841    4.339315   -2.731436
     78          1           0        3.075550    4.275621   -3.770819
     79          6           0        1.387456    5.328163   -1.031056
     80          1           0        0.612270    6.026427   -0.734599
     81          8           0        1.222005    5.994864   -3.353459
     82          1           0        0.549579    6.565694   -2.973466
     83          6           0        1.778465    5.234438   -2.363380
     84          7           0        5.065951   -0.290105    1.018849
     85          1           0        5.182360   -0.443461    0.017089
     86          6           0        5.776037   -1.253210    1.835962
     87          1           0        5.101228   -2.072328    2.113232
     88          6           0        6.302093   -0.599229    3.110911
     89          6           0        6.958314   -1.786075    1.027090
     90          1           0        7.523302   -2.535308    1.581971
     91          1           0        7.602725   -0.937592    0.790707
     92          8           0        6.899218    0.463449    3.101432
     93          6           0        6.445877   -2.424332   -0.283082
     94          8           0        6.677423   -3.630088   -0.439630
     95          8           0        5.873366   -1.651041   -1.086756
     96          7           0        6.074882   -1.306563    4.248272
     97          1           0        5.941936   -2.312179    4.255119
     98          6           0        6.617679   -0.874383    5.502352
     99          1           0        7.506963   -0.254603    5.328780
    100          6           0        7.003022   -2.176133    6.274711
    101          6           0        5.621828   -0.089429    6.359661
    102          1           0        6.117522    0.149730    7.303345
    103          1           0        4.759480   -0.721844    6.594522
    104          8           0        7.608207   -2.031162    7.337810
    105          6           0        5.153684    1.171572    5.651405
    106          1           0        6.025161    1.775328    5.378855
    107          1           0        4.664081    0.899894    4.724088
    108          6           0        4.197401    2.005533    6.482434
    109          1           0        3.347566    1.390896    6.792232
    110          1           0        4.690977    2.357984    7.392080
    111          6           0        3.680766    3.192497    5.699617
    112          1           0        3.185575    2.832651    4.792132
    113          1           0        4.526834    3.806508    5.383333
    114          7           0        2.724852    4.018059    6.478669
    115          1           0        2.375601    4.815243    5.946019
    116          1           0        3.162933    4.382343    7.324225
    117          1           0        1.918647    3.465702    6.769213
    118          8           0        6.640822   -3.235228    5.713744
    119          1           0       -4.557961   -5.140595   -4.447449
 ---------------------------------------------------------------------

 SCF Done:  E(RB3LYP) =  -2933.55494513     A.U. after    3 cycles

 Alpha  occ. eigenvalues --  -19.28712 -19.26597 -19.25042 -19.22703 -19.20379
 Alpha  occ. eigenvalues --  -19.16729 -19.12747 -19.09160 -19.06157 -19.05819
 Alpha  occ. eigenvalues --  -19.04805 -19.04637 -14.66502 -14.61140 -14.56554
 Alpha  occ. eigenvalues --  -14.55971 -14.51837 -14.47462 -14.43210 -14.40252
 Alpha  occ. eigenvalues --  -14.34495 -14.31974 -10.45755 -10.45259 -10.41611
 Alpha  occ. eigenvalues --  -10.41497 -10.40076 -10.39924 -10.38572 -10.37007
 Alpha  occ. eigenvalues --  -10.36098 -10.35941 -10.35608 -10.33364 -10.32577
 Alpha  occ. eigenvalues --  -10.29504 -10.29420 -10.29118 -10.28378 -10.28039
 Alpha  occ. eigenvalues --  -10.27147 -10.26845 -10.26021 -10.26002 -10.25968
 Alpha  occ. eigenvalues --  -10.24725 -10.24590 -10.23996 -10.23806 -10.23441
 Alpha  occ. eigenvalues --  -10.23398 -10.23225 -10.23010 -10.22997 -10.22700
 Alpha  occ. eigenvalues --  -10.21659 -10.20814 -10.18792 -10.18547 -10.15922
 Alpha  occ. eigenvalues --   -1.23047  -1.21142  -1.19868  -1.16232  -1.15959
 Alpha  occ. eigenvalues --   -1.14294  -1.12867  -1.11026  -1.09122  -1.08714
 Alpha  occ. eigenvalues --   -1.08143  -1.04757  -1.03957  -1.01606  -1.00155
 Alpha  occ. eigenvalues --   -1.00027  -0.99216  -0.99068  -0.97180  -0.93427
 Alpha  occ. eigenvalues --   -0.92221  -0.91283  -0.91119  -0.90208  -0.90002
 Alpha  occ. eigenvalues --   -0.89789  -0.89672  -0.88534  -0.86724  -0.86035
 Alpha  occ. eigenvalues --   -0.84065  -0.83460  -0.82756  -0.81712  -0.80682
 Alpha  occ. eigenvalues --   -0.80346  -0.79813  -0.79580  -0.77913  -0.77424
 Alpha  occ. eigenvalues --   -0.76893  -0.75894  -0.75884  -0.74958  -0.74331
 Alpha  occ. eigenvalues --   -0.74176  -0.73139  -0.72550  -0.72272  -0.71895
 Alpha  occ. eigenvalues --   -0.70715  -0.69807  -0.68952  -0.68576  -0.67745
 Alpha  occ. eigenvalues --   -0.67128  -0.66904  -0.66509  -0.65746  -0.65180
 Alpha  occ. eigenvalues --   -0.64252  -0.63866  -0.63710  -0.63574  -0.63099
 Alpha  occ. eigenvalues --   -0.62515  -0.62273  -0.61051  -0.60607  -0.60214
 Alpha  occ. eigenvalues --   -0.60125  -0.59335  -0.59295  -0.59134  -0.58312
 Alpha  occ. eigenvalues --   -0.57936  -0.57612  -0.56706  -0.56601  -0.56315
 Alpha  occ. eigenvalues --   -0.55817  -0.55241  -0.55009  -0.54752  -0.54308
 Alpha  occ. eigenvalues --   -0.54297  -0.53559  -0.53202  -0.52494  -0.51974
 Alpha  occ. eigenvalues --   -0.51482  -0.51015  -0.50557  -0.49976  -0.49735
 Alpha  occ. eigenvalues --   -0.49651  -0.49465  -0.49350  -0.49113  -0.48579
 Alpha  occ. eigenvalues --   -0.48450  -0.48196  -0.47983  -0.47840  -0.47601
 Alpha  occ. eigenvalues --   -0.47336  -0.46991  -0.46915  -0.46137  -0.45970
 Alpha  occ. eigenvalues --   -0.45483  -0.45417  -0.45197  -0.45063  -0.44838
 Alpha  occ. eigenvalues --   -0.44584  -0.43996  -0.43853  -0.43505  -0.43162
 Alpha  occ. eigenvalues --   -0.42951  -0.42768  -0.42397  -0.41830  -0.41539
 Alpha  occ. eigenvalues --   -0.41478  -0.41338  -0.40918  -0.40776  -0.40626
 Alpha  occ. eigenvalues --   -0.40407  -0.39850  -0.39753  -0.39595  -0.39369
 Alpha  occ. eigenvalues --   -0.38531  -0.38399  -0.38121  -0.37767  -0.37234
 Alpha  occ. eigenvalues --   -0.37182  -0.37075  -0.36367  -0.35666  -0.35392
 Alpha  occ. eigenvalues --   -0.35235  -0.34562  -0.34263  -0.33674  -0.33583
 Alpha  occ. eigenvalues --   -0.32312  -0.31805  -0.31109  -0.30098  -0.29781
 Alpha  occ. eigenvalues --   -0.27062  -0.26287  -0.25543  -0.23716  -0.23214
 Alpha  occ. eigenvalues --   -0.20688  -0.20562  -0.19224  -0.19205  -0.18611
 Alpha  occ. eigenvalues --   -0.17984
 Alpha virt. eigenvalues --   -0.17308  -0.16282  -0.15631  -0.13845  -0.11575
 Alpha virt. eigenvalues --   -0.11484  -0.10845  -0.09796  -0.09067  -0.06300
 Alpha virt. eigenvalues --   -0.05976  -0.05233  -0.05171  -0.05032  -0.04918

 Mulliken charges:
               1
     1  N   -0.691074
     2  H    0.430302
     3  H    0.426656
     4  H    0.403020
     5  C   -0.158497
     6  H    0.210120
     7  C    0.630474
     8  C   -0.380392
     9  H    0.220863
    10  H    0.190973
    11  O   -0.513345
    12  C    0.257932
    13  C    0.040239
    14  H    0.239149
    15  N   -0.608736
    16  H    0.371841
    17  C    0.215327
    18  H    0.229330
    19  N   -0.527118
    20  N   -0.584170
    21  H    0.353220
    22  C   -0.083125
    23  H    0.196350
    24  C    0.606876
    25  C    0.111859
    26  H    0.163672
    27  O   -0.569258
    28  C   -0.451208
    29  H    0.165017
    30  H    0.188282
    31  H    0.146817
    32  O   -0.638522
    33  H    0.403958
    34  N   -0.574497
    35  H    0.366332
    36  C   -0.117088
    37  H    0.184530
    38  C    0.624545
    39  C   -0.264775
    40  H    0.197714
    41  H    0.157455
    42  O   -0.519399
    43  C   -0.087934
    44  H    0.090562
    45  C   -0.445315
    46  H    0.190583
    47  H    0.150627
    48  H    0.138998
    49  C   -0.487346
    50  H    0.176280
    51  H    0.140002
    52  H    0.153959
    53  N   -0.576869
    54  H    0.340840
    55  C   -0.094489
    56  H    0.178239
    57  C    0.630003
    58  C   -0.452818
    59  H    0.167246
    60  H    0.180783
    61  H    0.159209
    62  O   -0.510141
    63  N   -0.573766
    64  H    0.310820
    65  C   -0.070581
    66  H    0.195747
    67  C    0.639838
    68  C   -0.385308
    69  H    0.118349
    70  H    0.192813
    71  O   -0.590739
    72  C    0.204943
    73  C   -0.189950
    74  H    0.153275
    75  C   -0.191759
    76  H    0.089807
    77  C   -0.158917
    78  H    0.140922
    79  C   -0.190830
    80  H    0.108666
    81  O   -0.646091
    82  H    0.404419
    83  C    0.346960
    84  N   -0.609260
    85  H    0.379035
    86  C   -0.040612
    87  H    0.152686
    88  C    0.633506
    89  C   -0.367467
    90  H    0.167645
    91  H    0.165103
    92  O   -0.559869
    93  C    0.566690
    94  O   -0.512847
    95  O   -0.594358
    96  N   -0.605154
    97  H    0.356143
    98  C   -0.071105
    99  H    0.157890
   100  C    0.588677
   101  C   -0.253464
   102  H    0.148099
   103  H    0.127403
   104  O   -0.524540
   105  C   -0.298207
   106  H    0.158165
   107  H    0.220073
   108  C   -0.283458
   109  H    0.147282
   110  H    0.149951
   111  C   -0.240841
   112  H    0.234778
   113  H    0.227634
   114  N   -0.711560
   115  H    0.418803
   116  H    0.423465
   117  H    0.420778
   118  O   -0.579968
   119  H    0.406220
 Sum of Mulliken charges =   1.00000

 Dipole moment (field-independent basis, Debye):
    X=            -54.9405    Y=             16.7288    Z=            -34.8226  Tot=             67.1634
 Quadrupole moment (field-independent basis, Debye-Ang):
   XX=           -420.8159   YY=           -267.7896   ZZ=             43.8832
   XY=            174.6434   XZ=            155.8953   YZ=            198.3263

 Normal termination of Gaussian 16 at Sun Jun 19 13:53:31 2022.
