 Gaussian 16, Revision C.01,
 Gaussian 16:  ES64L-G16RevC.01  3-Jul-2019

 ----------------------------------------------------------------------
 # B3LYP/6-31G* empiricaldispersion=gd3 guess=read geom=check nosymm in
 tegral(ultrafinegrid)
 ----------------------------------------------------------------------

 -----------------------------------------------------
 Candidate Structure: Conf:12 Charge calc in gas phase
 -----------------------------------------------------
 Structure from the checkpoint file:  "conf-12.chk"
 Charge =  1 Multiplicity = 1

                          Input orientation:
 ---------------------------------------------------------------------
 Center     Atomic      Atomic             Coordinates (Angstroms)
 Number     Number       Type             X           Y           Z
 ---------------------------------------------------------------------
      1          7           0       -5.961685   -1.527537   -7.727628
      2          1           0       -6.823759   -0.976559   -7.751247
      3          1           0       -5.175908   -0.872281   -7.848869
      4          1           0       -5.971544   -2.204041   -8.493193
      5          6           0       -5.754117   -2.171262   -6.408182
      6          1           0       -6.707037   -2.537596   -6.016543
      7          6           0       -5.191444   -1.093311   -5.482988
      8          6           0       -4.769108   -3.360130   -6.537743
      9          1           0       -3.857977   -3.012759   -7.029039
     10          1           0       -5.225775   -4.131373   -7.163278
     11          8           0       -4.501101   -0.187817   -5.957217
     12          6           0       -4.388570   -3.896373   -5.193784
     13          6           0       -3.227516   -3.719295   -4.509163
     14          1           0       -2.274692   -3.340906   -4.867273
     15          7           0       -5.318800   -4.407072   -4.287342
     16          1           0       -6.282931   -4.670201   -4.489832
     17          6           0       -4.726755   -4.453634   -3.079989
     18          1           0       -5.228002   -4.685273   -2.153783
     19          7           0       -3.441419   -4.067821   -3.193202
     20          7           0       -5.481413   -1.197788   -4.169587
     21          1           0       -5.833107   -2.065729   -3.787211
     22          6           0       -4.950616   -0.252330   -3.209117
     23          1           0       -4.901550    0.718500   -3.707729
     24          6           0       -3.531237   -0.737823   -2.848676
     25          6           0       -5.882086   -0.131940   -1.992957
     26          1           0       -5.979757   -1.126123   -1.543417
     27          8           0       -3.294440   -1.494420   -1.871445
     28          6           0       -5.342960    0.859864   -0.971327
     29          1           0       -4.351815    0.545562   -0.628680
     30          1           0       -6.016328    0.908918   -0.114960
     31          1           0       -5.259752    1.852902   -1.421867
     32          8           0       -7.194089    0.227990   -2.403499
     33          1           0       -7.151904    1.115283   -2.777285
     34          7           0       -2.583967   -0.302923   -3.721618
     35          1           0       -2.873856    0.196778   -4.552906
     36          6           0       -1.173027   -0.502235   -3.440013
     37          1           0       -1.129446   -1.404328   -2.825273
     38          6           0       -0.631622    0.659036   -2.605298
     39          6           0       -0.349738   -0.721187   -4.692695
     40          1           0       -0.358080    0.194157   -5.292900
     41          1           0       -0.836259   -1.511037   -5.277808
     42          8           0       -0.006307    1.592058   -3.086260
     43          6           0        1.109906   -1.132455   -4.417151
     44          1           0        1.581337   -0.306350   -3.863161
     45          6           0        1.213604   -2.400664   -3.570512
     46          1           0        0.776776   -3.254815   -4.102591
     47          1           0        0.715536   -2.298050   -2.604750
     48          1           0        2.262822   -2.635449   -3.369334
     49          6           0        1.834805   -1.319161   -5.749580
     50          1           0        1.415222   -2.175247   -6.286194
     51          1           0        2.902058   -1.501337   -5.599452
     52          1           0        1.730507   -0.440657   -6.382912
     53          7           0       -0.901330    0.581075   -1.275053
     54          1           0       -1.366009   -0.253072   -0.941280
     55          6           0       -0.018005    1.298227   -0.371482
     56          1           0       -0.105880    2.364910   -0.600440
     57          6           0        1.433434    0.855790   -0.668810
     58          6           0       -0.414996    1.032515    1.076090
     59          1           0        0.221891    1.586583    1.769040
     60          1           0       -0.315385   -0.032845    1.301431
     61          1           0       -1.452376    1.332696    1.239834
     62          8           0        1.687215   -0.246049   -1.150207
     63          7           0        2.386700    1.778925   -0.357524
     64          1           0        2.147393    2.557588    0.236759
     65          6           0        3.798843    1.454394   -0.437546
     66          1           0        3.862911    0.395686   -0.689546
     67          6           0        4.434469    1.719757    0.931511
     68          6           0        4.516984    2.307427   -1.494587
     69          1           0        4.352620    3.356947   -1.225260
     70          1           0        5.592494    2.127282   -1.404750
     71          8           0        4.166865    2.770029    1.532486
     72          6           0        4.082960    2.083001   -2.921815
     73          6           0        4.906347    1.419971   -3.836793
     74          1           0        5.855134    1.015261   -3.506034
     75          6           0        2.858499    2.573459   -3.384779
     76          1           0        2.182551    3.071870   -2.701459
     77          6           0        4.540261    1.282349   -5.175623
     78          1           0        5.186453    0.781925   -5.886214
     79          6           0        2.481836    2.452222   -4.721789
     80          1           0        1.510438    2.820647   -5.041414
     81          8           0        3.040585    1.699734   -6.955662
     82          1           0        2.223934    2.177407   -7.133116
     83          6           0        3.338707    1.822850   -5.622530
     84          7           0        5.295685    0.779314    1.336865
     85          1           0        5.309821   -0.134213    0.854317
     86          6           0        5.914436    0.693281    2.655370
     87          1           0        5.138338    0.582950    3.422897
     88          6           0        6.732292    1.950701    2.949885
     89          6           0        6.827810   -0.537750    2.645901
     90          1           0        7.292132   -0.691509    3.620612
     91          1           0        7.599038   -0.367583    1.890719
     92          8           0        7.479304    2.437855    2.114173
     93          6           0        5.999960   -1.790801    2.264964
     94          8           0        5.875024   -2.666459    3.133302
     95          8           0        5.544261   -1.809936    1.090054
     96          7           0        6.538127    2.486049    4.183919
     97          1           0        6.261217    1.932694    4.990348
     98          6           0        7.214121    3.692319    4.596564
     99          1           0        8.146283    3.809058    4.031953
    100          6           0        7.504257    3.549821    6.116025
    101          6           0        6.304428    4.907823    4.352430
    102          1           0        6.809246    5.824181    4.667915
    103          1           0        5.402515    4.798989    4.966198
    104          8           0        8.184241    4.442243    6.639560
    105          6           0        5.916469    4.900431    2.883669
    106          1           0        6.818145    4.974544    2.266672
    107          1           0        5.479010    3.932825    2.677901
    108          6           0        4.891146    5.913488    2.413018
    109          1           0        4.001616    5.861051    3.050981
    110          1           0        5.258338    6.944525    2.447249
    111          6           0        4.504774    5.505958    1.004111
    112          1           0        4.176080    4.458521    1.029873
    113          1           0        5.379265    5.555334    0.351306
    114          7           0        3.415792    6.351898    0.427839
    115          1           0        3.153626    6.055462   -0.514644
    116          1           0        3.700323    7.331580    0.377061
    117          1           0        2.578645    6.306959    1.011260
    118          8           0        6.997688    2.539797    6.661526
    119          1           0       -2.830679   -3.813814   -2.418104
 ---------------------------------------------------------------------

 SCF Done:  E(RB3LYP) =  -2933.55748010     A.U. after    3 cycles

 Alpha  occ. eigenvalues --  -19.30259 -19.26932 -19.25622 -19.23543 -19.20641
 Alpha  occ. eigenvalues --  -19.18138 -19.16390 -19.11000 -19.08207 -19.07538
 Alpha  occ. eigenvalues --  -19.06689 -19.06568 -14.66756 -14.59202 -14.57756
 Alpha  occ. eigenvalues --  -14.56899 -14.53744 -14.49275 -14.44251 -14.42542
 Alpha  occ. eigenvalues --  -14.37382 -14.34053 -10.46853 -10.46140 -10.42767
 Alpha  occ. eigenvalues --  -10.42698 -10.41235 -10.40885 -10.40352 -10.37669
 Alpha  occ. eigenvalues --  -10.37364 -10.36976 -10.35365 -10.33081 -10.32436
 Alpha  occ. eigenvalues --  -10.31938 -10.31554 -10.30029 -10.29020 -10.27968
 Alpha  occ. eigenvalues --  -10.27881 -10.27811 -10.26844 -10.25828 -10.25386
 Alpha  occ. eigenvalues --  -10.24837 -10.24746 -10.24393 -10.24196 -10.24166
 Alpha  occ. eigenvalues --  -10.24116 -10.23954 -10.23943 -10.23581 -10.23502
 Alpha  occ. eigenvalues --  -10.23178 -10.20175 -10.19849 -10.18957 -10.17753
 Alpha  occ. eigenvalues --   -1.23827  -1.21875  -1.20500  -1.16228  -1.14887
 Alpha  occ. eigenvalues --   -1.13667  -1.13003  -1.11655  -1.10181  -1.09892
 Alpha  occ. eigenvalues --   -1.09248  -1.07924  -1.05408  -1.03325  -1.01077
 Alpha  occ. eigenvalues --   -1.00779  -1.00733  -1.00630  -0.98971  -0.94900
 Alpha  occ. eigenvalues --   -0.94527  -0.92582  -0.91971  -0.91507  -0.90644
 Alpha  occ. eigenvalues --   -0.90370  -0.89772  -0.87625  -0.87503  -0.86388
 Alpha  occ. eigenvalues --   -0.84671  -0.84275  -0.83702  -0.82485  -0.80577
 Alpha  occ. eigenvalues --   -0.80304  -0.80092  -0.79888  -0.79108  -0.78265
 Alpha  occ. eigenvalues --   -0.77320  -0.77054  -0.75546  -0.74676  -0.74420
 Alpha  occ. eigenvalues --   -0.74198  -0.73609  -0.73101  -0.72656  -0.72108
 Alpha  occ. eigenvalues --   -0.71707  -0.70928  -0.70224  -0.69240  -0.68562
 Alpha  occ. eigenvalues --   -0.68050  -0.67481  -0.67279  -0.65679  -0.65590
 Alpha  occ. eigenvalues --   -0.65250  -0.64632  -0.64271  -0.64024  -0.63569
 Alpha  occ. eigenvalues --   -0.63237  -0.63122  -0.61791  -0.61643  -0.61094
 Alpha  occ. eigenvalues --   -0.60610  -0.60226  -0.59923  -0.59732  -0.59465
 Alpha  occ. eigenvalues --   -0.59066  -0.58680  -0.58229  -0.57241  -0.56979
 Alpha  occ. eigenvalues --   -0.56908  -0.56672  -0.55894  -0.55400  -0.55059
 Alpha  occ. eigenvalues --   -0.54721  -0.53851  -0.53285  -0.53203  -0.53166
 Alpha  occ. eigenvalues --   -0.52452  -0.51980  -0.51602  -0.50761  -0.50597
 Alpha  occ. eigenvalues --   -0.50453  -0.49811  -0.49692  -0.49368  -0.49207
 Alpha  occ. eigenvalues --   -0.48927  -0.48865  -0.48708  -0.48450  -0.48065
 Alpha  occ. eigenvalues --   -0.48034  -0.47598  -0.47224  -0.46955  -0.46652
 Alpha  occ. eigenvalues --   -0.46422  -0.46060  -0.45863  -0.45623  -0.45159
 Alpha  occ. eigenvalues --   -0.45027  -0.44873  -0.44455  -0.44308  -0.44032
 Alpha  occ. eigenvalues --   -0.43962  -0.43556  -0.43202  -0.42554  -0.42277
 Alpha  occ. eigenvalues --   -0.42059  -0.41908  -0.41560  -0.41163  -0.40641
 Alpha  occ. eigenvalues --   -0.40529  -0.39927  -0.39914  -0.39858  -0.39759
 Alpha  occ. eigenvalues --   -0.39679  -0.39324  -0.39167  -0.38955  -0.38449
 Alpha  occ. eigenvalues --   -0.38146  -0.37976  -0.37605  -0.37243  -0.36369
 Alpha  occ. eigenvalues --   -0.36055  -0.35510  -0.34942  -0.34512  -0.33892
 Alpha  occ. eigenvalues --   -0.33712  -0.33264  -0.32512  -0.31954  -0.30192
 Alpha  occ. eigenvalues --   -0.29852  -0.28712  -0.26976  -0.25416  -0.24928
 Alpha  occ. eigenvalues --   -0.22408  -0.22174  -0.21091  -0.20855  -0.20233
 Alpha  occ. eigenvalues --   -0.19570
 Alpha virt. eigenvalues --   -0.18900  -0.17749  -0.16068  -0.15308  -0.12934
 Alpha virt. eigenvalues --   -0.12115  -0.10519  -0.10491  -0.08823  -0.07744
 Alpha virt. eigenvalues --   -0.06643  -0.06354  -0.05700  -0.05603  -0.05120

 Mulliken charges:
               1
     1  N   -0.706109
     2  H    0.428405
     3  H    0.427413
     4  H    0.403644
     5  C   -0.144465
     6  H    0.207930
     7  C    0.629260
     8  C   -0.381131
     9  H    0.213001
    10  H    0.201491
    11  O   -0.548286
    12  C    0.280863
    13  C    0.026927
    14  H    0.236576
    15  N   -0.619688
    16  H    0.376295
    17  C    0.210274
    18  H    0.239375
    19  N   -0.521330
    20  N   -0.576058
    21  H    0.350757
    22  C   -0.095072
    23  H    0.180367
    24  C    0.638059
    25  C    0.123822
    26  H    0.150764
    27  O   -0.585058
    28  C   -0.474632
    29  H    0.180617
    30  H    0.192499
    31  H    0.144393
    32  O   -0.612790
    33  H    0.394687
    34  N   -0.608629
    35  H    0.366742
    36  C   -0.072385
    37  H    0.164900
    38  C    0.657312
    39  C   -0.276057
    40  H    0.148901
    41  H    0.093347
    42  O   -0.519138
    43  C   -0.095026
    44  H    0.202798
    45  C   -0.451998
    46  H    0.097195
    47  H    0.158046
    48  H    0.187457
    49  C   -0.446603
    50  H    0.112492
    51  H    0.170250
    52  H    0.146697
    53  N   -0.603176
    54  H    0.344512
    55  C   -0.042578
    56  H    0.153940
    57  C    0.644814
    58  C   -0.477038
    59  H    0.177329
    60  H    0.182577
    61  H    0.160803
    62  O   -0.519921
    63  N   -0.604553
    64  H    0.311361
    65  C   -0.071806
    66  H    0.220853
    67  C    0.633157
    68  C   -0.357412
    69  H    0.100610
    70  H    0.190286
    71  O   -0.576613
    72  C    0.182105
    73  C   -0.196488
    74  H    0.150429
    75  C   -0.166619
    76  H    0.102614
    77  C   -0.161948
    78  H    0.147656
    79  C   -0.187586
    80  H    0.113748
    81  O   -0.647781
    82  H    0.401139
    83  C    0.351792
    84  N   -0.606466
    85  H    0.391621
    86  C   -0.044375
    87  H    0.160274
    88  C    0.614742
    89  C   -0.371289
    90  H    0.172359
    91  H    0.170431
    92  O   -0.542095
    93  C    0.569943
    94  O   -0.504156
    95  O   -0.597136
    96  N   -0.607544
    97  H    0.356622
    98  C   -0.073621
    99  H    0.168141
   100  C    0.597677
   101  C   -0.250029
   102  H    0.149887
   103  H    0.127437
   104  O   -0.501924
   105  C   -0.304239
   106  H    0.153539
   107  H    0.226688
   108  C   -0.274218
   109  H    0.136083
   110  H    0.139271
   111  C   -0.270766
   112  H    0.276116
   113  H    0.208752
   114  N   -0.722036
   115  H    0.413562
   116  H    0.412657
   117  H    0.411455
   118  O   -0.563972
   119  H    0.411304
 Sum of Mulliken charges =   1.00000

 Dipole moment (field-independent basis, Debye):
    X=            -56.4326    Y=              1.9346    Z=            -53.2362  Tot=             77.6046
 Quadrupole moment (field-independent basis, Debye-Ang):
   XX=           -333.8738   YY=           -200.3989   ZZ=           -222.4957
   XY=            109.8990   XZ=             76.2259   YZ=             51.8571

 Normal termination of Gaussian 16 at Sun Jun 19 13:49:12 2022.
