 Gaussian 16, Revision C.01,
 Gaussian 16:  ES64L-G16RevC.01  3-Jul-2019

 ----------------------------------------------------------------------
 # B3LYP/6-31G* empiricaldispersion=gd3 guess=read geom=check nosymm in
 tegral(ultrafinegrid)
 ----------------------------------------------------------------------

 ------------------------------------------------------
 Candidate Structure: Conf:126 Charge calc in gas phase
 ------------------------------------------------------
 Structure from the checkpoint file:  "conf-126.chk"
 Charge =  1 Multiplicity = 1

                          Input orientation:
 ---------------------------------------------------------------------
 Center     Atomic      Atomic             Coordinates (Angstroms)
 Number     Number       Type             X           Y           Z
 ---------------------------------------------------------------------
      1          7           0       -7.595892   -4.205441   -5.724147
      2          1           0       -8.074176   -3.457667   -6.232179
      3          1           0       -6.719380   -4.408617   -6.211356
      4          1           0       -8.183843   -5.037723   -5.740691
      5          6           0       -7.255484   -3.797855   -4.342835
      6          1           0       -8.139430   -3.382698   -3.847474
      7          6           0       -6.151128   -2.744495   -4.425140
      8          6           0       -6.747434   -5.013930   -3.551212
      9          1           0       -5.891646   -5.423684   -4.092631
     10          1           0       -7.531502   -5.770127   -3.535703
     11          8           0       -5.118327   -2.974195   -5.044596
     12          6           0       -6.350965   -4.662589   -2.147977
     13          6           0       -7.037591   -4.727626   -0.975449
     14          1           0       -7.999758   -5.164675   -0.743405
     15          7           0       -5.155423   -4.020830   -1.891533
     16          1           0       -4.472024   -3.724927   -2.597966
     17          6           0       -5.159550   -3.616815   -0.618059
     18          1           0       -4.390199   -2.997881   -0.203306
     19          7           0       -6.264292   -4.093183   -0.013407
     20          7           0       -6.358220   -1.598857   -3.740580
     21          1           0       -7.277978   -1.398588   -3.379840
     22          6           0       -5.450941   -0.472760   -3.822063
     23          1           0       -5.403346   -0.093564   -4.849346
     24          6           0       -4.065641   -0.898476   -3.357065
     25          6           0       -5.983279    0.629938   -2.885811
     26          1           0       -5.935246    0.224195   -1.866582
     27          8           0       -3.911921   -1.575821   -2.332108
     28          6           0       -5.193792    1.920403   -2.973077
     29          1           0       -4.153599    1.761883   -2.696040
     30          1           0       -5.623390    2.665309   -2.301117
     31          1           0       -5.241006    2.305820   -3.995430
     32          8           0       -7.339544    0.860078   -3.262411
     33          1           0       -7.703496    1.515811   -2.662945
     34          7           0       -3.022375   -0.480090   -4.105543
     35          1           0       -3.179049    0.273132   -4.755335
     36          6           0       -1.674226   -0.563214   -3.560618
     37          1           0       -1.569919   -1.571084   -3.160087
     38          6           0       -1.527323    0.464835   -2.451593
     39          6           0       -0.657113   -0.304503   -4.670064
     40          1           0       -0.894716    0.664169   -5.116068
     41          1           0       -0.799716   -1.065806   -5.440335
     42          8           0       -1.741855    1.656983   -2.677205
     43          6           0        0.810720   -0.297409   -4.236873
     44          1           0        0.937560    0.500007   -3.494419
     45          6           0        1.238682   -1.622476   -3.613006
     46          1           0        1.063028   -2.445730   -4.311290
     47          1           0        0.710231   -1.833425   -2.683623
     48          1           0        2.306990   -1.600830   -3.380768
     49          6           0        1.694442    0.028253   -5.438960
     50          1           0        1.567086   -0.727846   -6.214355
     51          1           0        2.745275    0.047083   -5.146068
     52          1           0        1.437971    1.006859   -5.864549
     53          7           0       -1.166672   -0.014383   -1.228422
     54          1           0       -0.856788   -0.972155   -1.193960
     55          6           0       -0.521795    0.867671   -0.262189
     56          1           0       -0.867957    1.875965   -0.483427
     57          6           0        0.987401    0.784240   -0.470385
     58          6           0       -0.865098    0.465928    1.163330
     59          1           0       -0.385008    1.147837    1.872632
     60          1           0       -0.504022   -0.543670    1.364253
     61          1           0       -1.944743    0.494644    1.316030
     62          8           0        1.560367   -0.296765   -0.541065
     63          7           0        1.642215    1.972610   -0.563064
     64          1           0        1.169515    2.773559   -0.175892
     65          6           0        3.084891    2.005766   -0.414148
     66          1           0        3.478666    1.141779   -0.952354
     67          6           0        3.436842    1.906572    1.077987
     68          6           0        3.655972    3.295125   -1.017425
     69          1           0        3.259238    4.145743   -0.458802
     70          1           0        4.740451    3.291552   -0.871226
     71          8           0        2.665729    2.265504    1.950362
     72          6           0        3.325236    3.432855   -2.479336
     73          6           0        2.403374    4.377068   -2.928859
     74          1           0        1.948040    5.061821   -2.223805
     75          6           0        3.900467    2.577772   -3.420456
     76          1           0        4.616118    1.836399   -3.085423
     77          6           0        2.047583    4.464458   -4.275873
     78          1           0        1.328420    5.194815   -4.621127
     79          6           0        3.573885    2.670071   -4.769907
     80          1           0        4.001594    1.978113   -5.486027
     81          8           0        2.238058    3.681529   -6.507386
     82          1           0        2.815318    3.105325   -7.015914
     83          6           0        2.631844    3.601372   -5.193178
     84          7           0        4.675120    1.429937    1.349764
     85          1           0        5.340062    1.193401    0.631459
     86          6           0        5.190383    1.383113    2.703759
     87          1           0        4.975513    2.324258    3.220882
     88          6           0        6.713982    1.201886    2.546296
     89          6           0        4.542568    0.268783    3.528781
     90          1           0        4.987588   -0.705498    3.317697
     91          1           0        3.482417    0.205420    3.276502
     92          8           0        7.210515    0.864660    1.483559
     93          6           0        4.621451    0.521464    5.069442
     94          8           0        4.067150   -0.347552    5.753289
     95          8           0        5.231107    1.547448    5.442281
     96          7           0        7.427118    1.432588    3.667257
     97          1           0        6.959589    1.471232    4.579557
     98          6           0        8.809274    1.068223    3.751983
     99          1           0        9.033587    0.278849    3.021560
    100          6           0        9.043365    0.532718    5.199127
    101          6           0        9.774028    2.233250    3.537715
    102          1           0       10.777833    1.856081    3.754024
    103          1           0        9.559063    3.027639    4.259616
    104          8           0       10.159310    0.045277    5.413824
    105          6           0        9.716017    2.785174    2.120412
    106          1           0        9.798310    1.949588    1.420601
    107          1           0        8.743507    3.240224    1.945741
    108          6           0       10.811417    3.800157    1.849725
    109          1           0       10.768526    4.589754    2.606345
    110          1           0       11.787770    3.315288    1.951705
    111          6           0       10.710875    4.445254    0.479685
    112          1           0       11.530628    5.151380    0.337230
    113          1           0        9.781535    5.017392    0.420765
    114          7           0       10.725448    3.440278   -0.615522
    115          1           0       10.866395    3.868399   -1.530772
    116          1           0        9.846051    2.927261   -0.650368
    117          1           0       11.466264    2.757793   -0.464276
    118          8           0        8.072170    0.649547    5.976144
    119          1           0       -6.533093   -3.956438    0.960799
 ---------------------------------------------------------------------

 SCF Done:  E(RB3LYP) =  -2933.55952167     A.U. after    5 cycles

 Alpha  occ. eigenvalues --  -19.26112 -19.25615 -19.23077 -19.22930 -19.18902
 Alpha  occ. eigenvalues --  -19.16510 -19.12864 -19.11320 -19.04909 -19.04813
 Alpha  occ. eigenvalues --  -19.04524 -19.04215 -14.63842 -14.60473 -14.55913
 Alpha  occ. eigenvalues --  -14.54637 -14.49606 -14.46525 -14.43005 -14.40437
 Alpha  occ. eigenvalues --  -14.36238 -14.31923 -10.42821 -10.42483 -10.40884
 Alpha  occ. eigenvalues --  -10.39997 -10.39439 -10.38742 -10.38044 -10.36253
 Alpha  occ. eigenvalues --  -10.35902 -10.35502 -10.35390 -10.33310 -10.31387
 Alpha  occ. eigenvalues --  -10.29841 -10.29834 -10.28801 -10.27603 -10.27183
 Alpha  occ. eigenvalues --  -10.26936 -10.26845 -10.25995 -10.25016 -10.24307
 Alpha  occ. eigenvalues --  -10.24237 -10.24219 -10.24021 -10.23955 -10.23514
 Alpha  occ. eigenvalues --  -10.23368 -10.23340 -10.23044 -10.22828 -10.22253
 Alpha  occ. eigenvalues --  -10.21903 -10.21343 -10.19190 -10.18799 -10.15888
 Alpha  occ. eigenvalues --   -1.20436  -1.19932  -1.17319  -1.15401  -1.14782
 Alpha  occ. eigenvalues --   -1.13913  -1.11213  -1.10847  -1.08681  -1.07211
 Alpha  occ. eigenvalues --   -1.06110  -1.05401  -1.03617  -1.03083  -0.99530
 Alpha  occ. eigenvalues --   -0.98396  -0.98007  -0.97951  -0.97274  -0.92914
 Alpha  occ. eigenvalues --   -0.92323  -0.90743  -0.90703  -0.90204  -0.89994
 Alpha  occ. eigenvalues --   -0.89293  -0.88599  -0.88408  -0.85102  -0.84748
 Alpha  occ. eigenvalues --   -0.83495  -0.82284  -0.81913  -0.81906  -0.80696
 Alpha  occ. eigenvalues --   -0.80061  -0.78248  -0.78141  -0.77661  -0.75939
 Alpha  occ. eigenvalues --   -0.75933  -0.74770  -0.74495  -0.74287  -0.73511
 Alpha  occ. eigenvalues --   -0.72978  -0.72299  -0.72092  -0.71193  -0.71150
 Alpha  occ. eigenvalues --   -0.69564  -0.68528  -0.68050  -0.68024  -0.67667
 Alpha  occ. eigenvalues --   -0.66630  -0.66218  -0.65495  -0.65062  -0.64908
 Alpha  occ. eigenvalues --   -0.63859  -0.63361  -0.63059  -0.62532  -0.62295
 Alpha  occ. eigenvalues --   -0.61584  -0.61145  -0.60993  -0.60357  -0.59842
 Alpha  occ. eigenvalues --   -0.59598  -0.58794  -0.58499  -0.58236  -0.57806
 Alpha  occ. eigenvalues --   -0.57320  -0.56915  -0.56346  -0.55913  -0.55370
 Alpha  occ. eigenvalues --   -0.54941  -0.54703  -0.53993  -0.53660  -0.53463
 Alpha  occ. eigenvalues --   -0.53244  -0.52934  -0.52199  -0.52044  -0.51680
 Alpha  occ. eigenvalues --   -0.50827  -0.50742  -0.50442  -0.49948  -0.49714
 Alpha  occ. eigenvalues --   -0.49278  -0.48961  -0.48838  -0.48455  -0.48210
 Alpha  occ. eigenvalues --   -0.48143  -0.47659  -0.47490  -0.47311  -0.47080
 Alpha  occ. eigenvalues --   -0.46610  -0.46351  -0.46074  -0.45870  -0.45520
 Alpha  occ. eigenvalues --   -0.45164  -0.44768  -0.44166  -0.44124  -0.44084
 Alpha  occ. eigenvalues --   -0.43732  -0.43647  -0.43223  -0.42862  -0.42747
 Alpha  occ. eigenvalues --   -0.42423  -0.41943  -0.41834  -0.41379  -0.40977
 Alpha  occ. eigenvalues --   -0.40673  -0.40567  -0.40253  -0.40160  -0.39750
 Alpha  occ. eigenvalues --   -0.39640  -0.39604  -0.39474  -0.38934  -0.38769
 Alpha  occ. eigenvalues --   -0.38718  -0.38584  -0.37852  -0.37692  -0.37336
 Alpha  occ. eigenvalues --   -0.37091  -0.36983  -0.36340  -0.36163  -0.35437
 Alpha  occ. eigenvalues --   -0.35183  -0.33682  -0.33586  -0.33455  -0.32463
 Alpha  occ. eigenvalues --   -0.31745  -0.31081  -0.30979  -0.30312  -0.29691
 Alpha  occ. eigenvalues --   -0.27475  -0.26549  -0.26285  -0.25311  -0.24055
 Alpha  occ. eigenvalues --   -0.19904  -0.19698  -0.18355  -0.18207  -0.17784
 Alpha  occ. eigenvalues --   -0.16924
 Alpha virt. eigenvalues --   -0.16244  -0.14996  -0.13137  -0.12522  -0.10415
 Alpha virt. eigenvalues --   -0.09996  -0.08314  -0.07672  -0.07145  -0.06054
 Alpha virt. eigenvalues --   -0.05641  -0.04829  -0.04386  -0.03985  -0.03777

 Mulliken charges:
               1
     1  N   -0.662465
     2  H    0.386098
     3  H    0.415453
     4  H    0.362044
     5  C   -0.134282
     6  H    0.197579
     7  C    0.578187
     8  C   -0.374412
     9  H    0.205160
    10  H    0.190969
    11  O   -0.545591
    12  C    0.313224
    13  C   -0.005382
    14  H    0.213279
    15  N   -0.567169
    16  H    0.401976
    17  C    0.282267
    18  H    0.254522
    19  N   -0.566037
    20  N   -0.604541
    21  H    0.345977
    22  C   -0.020543
    23  H    0.170444
    24  C    0.652442
    25  C    0.101690
    26  H    0.143880
    27  O   -0.587306
    28  C   -0.498223
    29  H    0.210927
    30  H    0.162571
    31  H    0.163075
    32  O   -0.645410
    33  H    0.414530
    34  N   -0.580257
    35  H    0.345374
    36  C   -0.054083
    37  H    0.157581
    38  C    0.631106
    39  C   -0.279322
    40  H    0.154591
    41  H    0.143659
    42  O   -0.540998
    43  C   -0.102137
    44  H    0.168973
    45  C   -0.440230
    46  H    0.127541
    47  H    0.141400
    48  H    0.166672
    49  C   -0.450388
    50  H    0.134162
    51  H    0.148740
    52  H    0.149673
    53  N   -0.572943
    54  H    0.340863
    55  C   -0.084723
    56  H    0.178076
    57  C    0.642390
    58  C   -0.456590
    59  H    0.201330
    60  H    0.170674
    61  H    0.143477
    62  O   -0.537710
    63  N   -0.574793
    64  H    0.334476
    65  C   -0.074441
    66  H    0.178267
    67  C    0.635585
    68  C   -0.383375
    69  H    0.159987
    70  H    0.150309
    71  O   -0.539915
    72  C    0.202357
    73  C   -0.196063
    74  H    0.129975
    75  C   -0.192961
    76  H    0.124501
    77  C   -0.157206
    78  H    0.142995
    79  C   -0.195538
    80  H    0.120570
    81  O   -0.649404
    82  H    0.408087
    83  C    0.353069
    84  N   -0.625899
    85  H    0.325384
    86  C   -0.014473
    87  H    0.189794
    88  C    0.561861
    89  C   -0.370336
    90  H    0.155955
    91  H    0.168967
    92  O   -0.596991
    93  C    0.610223
    94  O   -0.518233
    95  O   -0.547983
    96  N   -0.624043
    97  H    0.435992
    98  C   -0.072361
    99  H    0.138383
   100  C    0.583657
   101  C   -0.258377
   102  H    0.157452
   103  H    0.150782
   104  O   -0.546739
   105  C   -0.281162
   106  H    0.116982
   107  H    0.155926
   108  C   -0.290925
   109  H    0.198734
   110  H    0.161203
   111  C   -0.225264
   112  H    0.213044
   113  H    0.222136
   114  N   -0.714231
   115  H    0.420538
   116  H    0.440750
   117  H    0.426834
   118  O   -0.520360
   119  H    0.394464
 Sum of Mulliken charges =   1.00000

 Dipole moment (field-independent basis, Debye):
    X=            -33.9460    Y=             -8.4542    Z=            -49.8859  Tot=             60.9296
 Quadrupole moment (field-independent basis, Debye-Ang):
   XX=            160.0382   YY=           -199.3039   ZZ=           -398.2666
   XY=            305.2496   XZ=            -83.8698   YZ=             62.2155

 Normal termination of Gaussian 16 at Sun Jun 19 13:54:44 2022.
