 Gaussian 16, Revision C.01,
 Gaussian 16:  ES64L-G16RevC.01  3-Jul-2019

 ----------------------------------------------------------------------
 # B3LYP/6-31G* empiricaldispersion=gd3 guess=read geom=check nosymm in
 tegral(ultrafinegrid)
 ----------------------------------------------------------------------

 ------------------------------------------------------
 Candidate Structure: Conf:234 Charge calc in gas phase
 ------------------------------------------------------
 Structure from the checkpoint file:  "conf-234.chk"
 Charge =  1 Multiplicity = 1

                          Input orientation:
 ---------------------------------------------------------------------
 Center     Atomic      Atomic             Coordinates (Angstroms)
 Number     Number       Type             X           Y           Z
 ---------------------------------------------------------------------
      1          7           0       -8.429823   -5.827338   -2.338628
      2          1           0       -9.027666   -5.383330   -1.639615
      3          1           0       -8.671566   -5.437159   -3.254523
      4          1           0       -8.566288   -6.839685   -2.338887
      5          6           0       -7.008407   -5.507895   -2.118105
      6          1           0       -6.790915   -5.525580   -1.048744
      7          6           0       -6.739164   -4.115078   -2.685655
      8          6           0       -6.107951   -6.527178   -2.832950
      9          1           0       -5.060679   -6.250139   -2.708175
     10          1           0       -6.334614   -6.500090   -3.900327
     11          8           0       -7.429595   -3.657346   -3.587292
     12          6           0       -6.321472   -7.940571   -2.340997
     13          6           0       -7.075072   -8.931769   -2.886937
     14          1           0       -7.645905   -8.938028   -3.813189
     15          7           0       -5.806623   -8.431065   -1.146660
     16          1           0       -5.188784   -7.930393   -0.498844
     17          6           0       -6.255835   -9.686676   -0.982419
     18          1           0       -6.017216  -10.318460   -0.153503
     19          7           0       -7.038626  -10.014554   -2.028036
     20          7           0       -5.679708   -3.456769   -2.155200
     21          1           0       -5.039444   -3.915986   -1.527206
     22          6           0       -5.174228   -2.231060   -2.733195
     23          1           0       -5.521539   -2.157806   -3.764973
     24          6           0       -3.657017   -2.291569   -2.643778
     25          6           0       -5.677157   -0.966358   -1.992765
     26          1           0       -5.364357   -0.101994   -2.600909
     27          8           0       -3.082406   -3.054523   -1.892227
     28          6           0       -7.176197   -0.946261   -1.812189
     29          1           0       -7.695470   -1.131649   -2.753519
     30          1           0       -7.477296    0.021270   -1.410014
     31          1           0       -7.462699   -1.714073   -1.093375
     32          8           0       -5.100880   -0.875591   -0.699730
     33          1           0       -4.174480   -0.612670   -0.794549
     34          7           0       -2.984234   -1.405737   -3.435325
     35          1           0       -3.515030   -0.641343   -3.812709
     36          6           0       -1.591432   -1.104486   -3.138806
     37          1           0       -1.094302   -2.060782   -2.981011
     38          6           0       -1.505514   -0.287558   -1.842755
     39          6           0       -0.962419   -0.369315   -4.324112
     40          1           0       -1.514652    0.563716   -4.467716
     41          1           0       -1.137602   -0.986269   -5.208449
     42          8           0       -2.419947    0.438711   -1.457959
     43          6           0        0.535162   -0.062312   -4.245418
     44          1           0        0.725067    0.564587   -3.368469
     45          6           0        1.372853   -1.328643   -4.121427
     46          1           0        1.286836   -1.929771   -5.030752
     47          1           0        1.065916   -1.952248   -3.276174
     48          1           0        2.426924   -1.076404   -3.970790
     49          6           0        0.947251    0.732377   -5.481362
     50          1           0        0.753533    0.151867   -6.385999
     51          1           0        2.011499    0.977148   -5.457773
     52          1           0        0.389520    1.668711   -5.550634
     53          7           0       -0.349451   -0.403096   -1.158439
     54          1           0        0.462506   -0.857989   -1.539003
     55          6           0       -0.025491    0.486909   -0.067877
     56          1           0       -0.401113    1.487375   -0.300288
     57          6           0        1.504636    0.517849   -0.035646
     58          6           0       -0.650675    0.018591    1.239914
     59          1           0       -0.422529    0.710263    2.051247
     60          1           0       -0.280405   -0.973495    1.506056
     61          1           0       -1.731367   -0.032168    1.111943
     62          8           0        2.175875   -0.241805   -0.715819
     63          7           0        2.051408    1.453827    0.777239
     64          1           0        1.450204    2.016120    1.349973
     65          6           0        3.493603    1.567270    0.953538
     66          1           0        3.948475    1.441725   -0.031270
     67          6           0        3.989897    0.456383    1.873750
     68          6           0        3.830118    2.943488    1.530178
     69          1           0        3.353194    3.696800    0.903970
     70          1           0        3.373518    3.017136    2.523032
     71          8           0        3.487998    0.270512    2.983916
     72          6           0        5.306723    3.210494    1.597841
     73          6           0        6.097404    2.635106    2.594069
     74          1           0        5.636279    1.986883    3.346064
     75          6           0        5.950687    3.995635    0.639528
     76          1           0        5.368592    4.459844   -0.145505
     77          6           0        7.473578    2.814650    2.634337
     78          1           0        8.061418    2.335027    3.404677
     79          6           0        7.328452    4.197937    0.675689
     80          1           0        7.801252    4.816790   -0.078947
     81          8           0        9.447991    3.742341    1.766942
     82          1           0        9.755210    4.306028    1.052434
     83          6           0        8.091146    3.602564    1.678178
     84          7           0        4.991017   -0.315015    1.389010
     85          1           0        5.590410    0.075005    0.683680
     86          6           0        5.540609   -1.420682    2.166328
     87          1           0        4.716417   -2.060320    2.480461
     88          6           0        6.247134   -0.893430    3.436333
     89          6           0        6.521926   -2.206201    1.307101
     90          1           0        7.442328   -1.636039    1.173920
     91          1           0        6.073710   -2.407240    0.333418
     92          8           0        7.104600   -0.007413    3.379093
     93          6           0        6.854856   -3.591958    1.943722
     94          8           0        7.940694   -4.076090    1.604860
     95          8           0        5.946439   -4.048135    2.675756
     96          7           0        5.865988   -1.485722    4.600721
     97          1           0        5.527938   -2.442493    4.630397
     98          6           0        6.508514   -1.117844    5.825461
     99          1           0        7.464090   -0.626752    5.611186
    100          6           0        6.744499   -2.436729    6.611800
    101          6           0        5.632463   -0.223505    6.703522
    102          1           0        6.175041   -0.030486    7.630835
    103          1           0        4.731936   -0.788815    6.965992
    104          8           0        7.506422   -2.384812    7.578889
    105          6           0        5.213070    1.074567    6.025958
    106          1           0        6.090157    1.714447    5.871897
    107          1           0        4.839783    0.841564    5.040276
    108          6           0        4.143754    1.830388    6.802716
    109          1           0        3.404018    1.118129    7.186086
    110          1           0        4.596976    2.315008    7.672930
    111          6           0        3.416453    2.878176    5.969908
    112          1           0        4.149558    3.495114    5.434554
    113          1           0        2.857574    3.554798    6.622034
    114          7           0        2.491436    2.270687    4.978142
    115          1           0        2.013060    2.977899    4.423505
    116          1           0        1.777514    1.710639    5.448952
    117          1           0        2.976954    1.648178    4.331092
    118          8           0        6.098811   -3.410646    6.166095
    119          1           0       -7.526800  -10.899934   -2.175466
 ---------------------------------------------------------------------

 SCF Done:  E(RB3LYP) =  -2933.56755357     A.U. after    3 cycles

 Alpha  occ. eigenvalues --  -19.27777 -19.23344 -19.22735 -19.21096 -19.20768
 Alpha  occ. eigenvalues --  -19.20425 -19.18551 -19.10915 -19.06879 -19.06390
 Alpha  occ. eigenvalues --  -19.05710 -19.05414 -14.64518 -14.57210 -14.56492
 Alpha  occ. eigenvalues --  -14.56083 -14.50449 -14.46276 -14.44802 -14.43911
 Alpha  occ. eigenvalues --  -14.40470 -14.32975 -10.44934 -10.44210 -10.41148
 Alpha  occ. eigenvalues --  -10.40637 -10.40542 -10.39890 -10.39477 -10.37435
 Alpha  occ. eigenvalues --  -10.37223 -10.34715 -10.34713 -10.34510 -10.34300
 Alpha  occ. eigenvalues --  -10.32153 -10.31772 -10.30639 -10.28527 -10.27585
 Alpha  occ. eigenvalues --  -10.27402 -10.27208 -10.26927 -10.26707 -10.26553
 Alpha  occ. eigenvalues --  -10.26340 -10.24091 -10.23949 -10.23886 -10.23752
 Alpha  occ. eigenvalues --  -10.23391 -10.23057 -10.23049 -10.22987 -10.22806
 Alpha  occ. eigenvalues --  -10.22010 -10.21494 -10.19167 -10.18980 -10.16431
 Alpha  occ. eigenvalues --   -1.21851  -1.20833  -1.18556  -1.16059  -1.13346
 Alpha  occ. eigenvalues --   -1.12616  -1.12430  -1.10891  -1.10038  -1.09402
 Alpha  occ. eigenvalues --   -1.08304  -1.06928  -1.03218  -1.02591  -1.01553
 Alpha  occ. eigenvalues --   -1.01156  -0.99817  -0.99247  -0.99086  -0.96661
 Alpha  occ. eigenvalues --   -0.93834  -0.91791  -0.90667  -0.90591  -0.90369
 Alpha  occ. eigenvalues --   -0.89461  -0.88726  -0.88269  -0.87062  -0.85776
 Alpha  occ. eigenvalues --   -0.85005  -0.83565  -0.83343  -0.81365  -0.80677
 Alpha  occ. eigenvalues --   -0.79438  -0.79048  -0.78853  -0.78793  -0.77308
 Alpha  occ. eigenvalues --   -0.77214  -0.75639  -0.75084  -0.74575  -0.74108
 Alpha  occ. eigenvalues --   -0.73376  -0.73025  -0.71871  -0.71052  -0.70682
 Alpha  occ. eigenvalues --   -0.70241  -0.70099  -0.68544  -0.68089  -0.67908
 Alpha  occ. eigenvalues --   -0.67629  -0.66830  -0.66631  -0.66360  -0.65185
 Alpha  occ. eigenvalues --   -0.64526  -0.63851  -0.63626  -0.63214  -0.62876
 Alpha  occ. eigenvalues --   -0.62394  -0.62165  -0.61438  -0.61170  -0.61004
 Alpha  occ. eigenvalues --   -0.60761  -0.59968  -0.59227  -0.58905  -0.58566
 Alpha  occ. eigenvalues --   -0.58096  -0.57941  -0.57569  -0.56839  -0.56475
 Alpha  occ. eigenvalues --   -0.56326  -0.56152  -0.55050  -0.54736  -0.54298
 Alpha  occ. eigenvalues --   -0.53719  -0.53349  -0.52957  -0.52632  -0.52541
 Alpha  occ. eigenvalues --   -0.52211  -0.51728  -0.51528  -0.50937  -0.50690
 Alpha  occ. eigenvalues --   -0.50381  -0.49645  -0.49499  -0.49190  -0.48784
 Alpha  occ. eigenvalues --   -0.48769  -0.48677  -0.48507  -0.48090  -0.47805
 Alpha  occ. eigenvalues --   -0.47599  -0.47445  -0.46983  -0.46845  -0.46331
 Alpha  occ. eigenvalues --   -0.46181  -0.45894  -0.45728  -0.45494  -0.45161
 Alpha  occ. eigenvalues --   -0.45043  -0.44553  -0.44184  -0.43957  -0.43854
 Alpha  occ. eigenvalues --   -0.43411  -0.43126  -0.42824  -0.42280  -0.41929
 Alpha  occ. eigenvalues --   -0.41753  -0.41700  -0.41458  -0.40798  -0.40755
 Alpha  occ. eigenvalues --   -0.40457  -0.40250  -0.40125  -0.39971  -0.39893
 Alpha  occ. eigenvalues --   -0.39003  -0.37912  -0.37864  -0.37731  -0.37344
 Alpha  occ. eigenvalues --   -0.37019  -0.36735  -0.36542  -0.36239  -0.36043
 Alpha  occ. eigenvalues --   -0.35697  -0.35454  -0.34670  -0.34550  -0.34260
 Alpha  occ. eigenvalues --   -0.33933  -0.33872  -0.32725  -0.32370  -0.31800
 Alpha  occ. eigenvalues --   -0.30694  -0.29144  -0.26116  -0.24906  -0.24321
 Alpha  occ. eigenvalues --   -0.21155  -0.20964  -0.19523  -0.19185  -0.18928
 Alpha  occ. eigenvalues --   -0.18424
 Alpha virt. eigenvalues --   -0.17762  -0.15246  -0.14167  -0.13163  -0.10156
 Alpha virt. eigenvalues --   -0.09248  -0.09174  -0.08855  -0.07297  -0.07083
 Alpha virt. eigenvalues --   -0.06580  -0.05943  -0.05029  -0.04894  -0.03958

 Mulliken charges:
               1
     1  N   -0.689554
     2  H    0.415260
     3  H    0.415843
     4  H    0.358573
     5  C   -0.141661
     6  H    0.214959
     7  C    0.637414
     8  C   -0.384876
     9  H    0.227166
    10  H    0.214360
    11  O   -0.516137
    12  C    0.299166
    13  C   -0.017153
    14  H    0.210574
    15  N   -0.613762
    16  H    0.379696
    17  C    0.209918
    18  H    0.230602
    19  N   -0.555847
    20  N   -0.586829
    21  H    0.353689
    22  C   -0.083349
    23  H    0.191686
    24  C    0.600424
    25  C    0.135308
    26  H    0.137202
    27  O   -0.523876
    28  C   -0.452790
    29  H    0.161919
    30  H    0.183544
    31  H    0.136354
    32  O   -0.647446
    33  H    0.433525
    34  N   -0.592448
    35  H    0.339327
    36  C   -0.075892
    37  H    0.193248
    38  C    0.623703
    39  C   -0.273158
    40  H    0.142629
    41  H    0.156277
    42  O   -0.564512
    43  C   -0.097440
    44  H    0.135151
    45  C   -0.452453
    46  H    0.147433
    47  H    0.141499
    48  H    0.177249
    49  C   -0.444540
    50  H    0.147067
    51  H    0.161338
    52  H    0.145681
    53  N   -0.608573
    54  H    0.386515
    55  C   -0.052267
    56  H    0.177227
    57  C    0.635974
    58  C   -0.436711
    59  H    0.121294
    60  H    0.183120
    61  H    0.184740
    62  O   -0.516953
    63  N   -0.614882
    64  H    0.313541
    65  C   -0.027470
    66  H    0.184564
    67  C    0.659111
    68  C   -0.384521
    69  H    0.161133
    70  H    0.074859
    71  O   -0.582974
    72  C    0.156932
    73  C   -0.198461
    74  H    0.137326
    75  C   -0.199504
    76  H    0.118474
    77  C   -0.137758
    78  H    0.184636
    79  C   -0.188317
    80  H    0.125449
    81  O   -0.628757
    82  H    0.409730
    83  C    0.346339
    84  N   -0.573438
    85  H    0.350646
    86  C   -0.017465
    87  H    0.181702
    88  C    0.609046
    89  C   -0.422352
    90  H    0.160511
    91  H    0.139231
    92  O   -0.557719
    93  C    0.605750
    94  O   -0.503080
    95  O   -0.533816
    96  N   -0.595268
    97  H    0.386706
    98  C   -0.078420
    99  H    0.166463
   100  C    0.598009
   101  C   -0.255935
   102  H    0.162245
   103  H    0.127036
   104  O   -0.510342
   105  C   -0.302214
   106  H    0.159834
   107  H    0.167827
   108  C   -0.279979
   109  H    0.146811
   110  H    0.188040
   111  C   -0.227426
   112  H    0.222730
   113  H    0.196998
   114  N   -0.752717
   115  H    0.401083
   116  H    0.409720
   117  H    0.457853
   118  O   -0.547753
   119  H    0.391807
 Sum of Mulliken charges =   1.00000

 Dipole moment (field-independent basis, Debye):
    X=            -63.1565    Y=            -13.5297    Z=            -20.4372  Tot=             67.7457
 Quadrupole moment (field-independent basis, Debye-Ang):
   XX=           -240.0621   YY=            -44.8768   ZZ=           -345.0035
   XY=            464.5417   XZ=            -36.2956   YZ=            188.7955

 Normal termination of Gaussian 16 at Sun Jun 19 13:53:21 2022.
