 Gaussian 16, Revision C.01,
 Gaussian 16:  ES64L-G16RevC.01  3-Jul-2019

 -------------------------------------------------------------------
 # B3LYP/6-31G* guess=read geom=check nosymm integral(ultrafinegrid)
 -------------------------------------------------------------------

 ------------------------------------------------------
 Candidate Structure: Conf:217 Charge calc in gas phase
 ------------------------------------------------------
 Structure from the checkpoint file:  "conf-217.chk"
 Charge =  1 Multiplicity = 1

                          Input orientation:
 ---------------------------------------------------------------------
 Center     Atomic      Atomic             Coordinates (Angstroms)
 Number     Number       Type             X           Y           Z
 ---------------------------------------------------------------------
      1          7           0       -5.756093    1.424613    3.255773
      2          1           0       -6.496546    2.098565    3.044037
      3          1           0       -5.783145    0.604681    2.553313
      4          1           0       -5.896313    1.078922    4.208787
      5          6           0       -4.369832    1.948756    3.000978
      6          1           0       -3.782549    1.903725    3.919645
      7          1           0       -4.423836    2.983599    2.658807
      8          6           0       -3.821645    0.994611    1.901645
      9          8           0       -4.595303    0.101662    1.513394
     10          7           0       -2.591001    1.215577    1.482710
     11          1           0       -1.987870    1.950264    1.868163
     12          6           0       -1.883297    0.423973    0.466497
     13          1           0       -2.073793   -0.635354    0.660936
     14          6           0       -0.397230    0.773655    0.721821
     15          6           0       -2.367257    0.808805   -0.954978
     16          1           0       -3.463924    0.763677   -0.937942
     17          1           0       -2.091351    1.856820   -1.129836
     18          8           0       -0.121643    1.806226    1.342801
     19          6           0       -1.866194   -0.064468   -2.125507
     20          1           0       -0.769891   -0.026519   -2.159498
     21          6           0       -2.292933   -1.534896   -1.988851
     22          1           0       -3.385080   -1.624230   -1.928538
     23          1           0       -1.957134   -2.111763   -2.856442
     24          1           0       -1.871984   -2.023544   -1.101039
     25          6           0       -2.383966    0.525643   -3.447185
     26          1           0       -3.480741    0.509432   -3.484883
     27          1           0       -2.057783    1.563659   -3.580161
     28          1           0       -2.013878   -0.052243   -4.300330
     29          7           0        0.508681   -0.094983    0.246435
     30          1           0        0.224260   -0.862850   -0.356135
     31          6           0        1.950410    0.159751    0.214485
     32          1           0        2.102184    1.223744    0.421276
     33          6           0        2.375578   -0.199207   -1.224422
     34          6           0        2.713252   -0.688091    1.275808
     35          1           0        2.562180   -1.742566    1.004381
     36          8           0        1.787343   -1.099207   -1.829233
     37          6           0        4.221683   -0.393613    1.261627
     38          1           0        4.421440    0.661670    1.490234
     39          1           0        4.725855   -0.992305    2.027031
     40          1           0        4.690551   -0.627422    0.301639
     41          6           0        2.138252   -0.459254    2.681135
     42          1           0        2.232468    0.590930    2.981196
     43          1           0        2.680776   -1.069637    3.410976
     44          1           0        1.080715   -0.734146    2.737619
     45          7           0        3.387674    0.516731   -1.756807
     46          1           0        3.905128    1.185541   -1.196653
     47          6           0        3.966090    0.201535   -3.058685
     48          1           0        4.024077   -0.888570   -3.158982
     49          6           0        5.383710    0.757491   -3.052391
     50          6           0        3.130306    0.742693   -4.244430
     51          1           0        3.580689    0.357919   -5.165418
     52          1           0        2.137500    0.286637   -4.159023
     53          8           0        5.848947    1.438327   -2.162012
     54          6           0        3.012559    2.272451   -4.291154
     55          1           0        3.995132    2.713311   -4.513592
     56          1           0        2.728118    2.640558   -3.296737
     57          6           0        1.982511    2.780318   -5.312069
     58          1           0        0.991257    2.365106   -5.087082
     59          1           0        1.891414    3.870613   -5.202401
     60          6           0        2.317575    2.464089   -6.773234
     61          1           0        3.338182    2.829863   -6.996022
     62          1           0        2.337220    1.377876   -6.924514
     63          7           0        1.278696    3.006994   -7.654078
     64          1           0        1.322143    4.025705   -7.647181
     65          1           0        1.458115    2.726621   -8.616758
     66          8           0        6.058848    0.415423   -4.162222
     67          1           0        6.947436    0.814641   -4.093024
 ---------------------------------------------------------------------

 SCF Done:  E(RB3LYP) =  -1396.63857645     A.U. after    1 cycles

 Alpha  occ. eigenvalues --  -19.28328 -19.27797 -19.22409 -19.22386 -19.20254
 Alpha  occ. eigenvalues --  -14.61772 -14.50394 -14.45996 -14.44540 -14.36157
 Alpha  occ. eigenvalues --  -10.45108 -10.42282 -10.40313 -10.39502 -10.37371
 Alpha  occ. eigenvalues --  -10.35081 -10.32063 -10.31760 -10.28752 -10.27749
 Alpha  occ. eigenvalues --  -10.27613 -10.25938 -10.25767 -10.25461 -10.24989
 Alpha  occ. eigenvalues --  -10.24933 -10.24913 -10.24817 -10.23800  -1.20766
 Alpha  occ. eigenvalues --   -1.18885  -1.15360  -1.14364  -1.12168  -1.09969
 Alpha  occ. eigenvalues --   -1.07054  -1.02517  -1.01016  -0.92940  -0.92376
 Alpha  occ. eigenvalues --   -0.89797  -0.88799  -0.86981  -0.84925  -0.82621
 Alpha  occ. eigenvalues --   -0.79550  -0.76835  -0.76038  -0.75893  -0.75755
 Alpha  occ. eigenvalues --   -0.75405  -0.75291  -0.72028  -0.70528  -0.69922
 Alpha  occ. eigenvalues --   -0.68484  -0.67601  -0.66065  -0.65707  -0.64946
 Alpha  occ. eigenvalues --   -0.64180  -0.62822  -0.61859  -0.61702  -0.59618
 Alpha  occ. eigenvalues --   -0.58529  -0.57211  -0.56599  -0.56584  -0.55700
 Alpha  occ. eigenvalues --   -0.54914  -0.54477  -0.54202  -0.54042  -0.53630
 Alpha  occ. eigenvalues --   -0.52650  -0.52018  -0.51660  -0.51424  -0.50778
 Alpha  occ. eigenvalues --   -0.50482  -0.49953  -0.48815  -0.48215  -0.47830
 Alpha  occ. eigenvalues --   -0.47650  -0.46897  -0.46551  -0.46428  -0.46222
 Alpha  occ. eigenvalues --   -0.45527  -0.45161  -0.44998  -0.43515  -0.43485
 Alpha  occ. eigenvalues --   -0.42983  -0.42605  -0.41980  -0.41575  -0.41268
 Alpha  occ. eigenvalues --   -0.41049  -0.40817  -0.40153  -0.39902  -0.39210
 Alpha  occ. eigenvalues --   -0.38985  -0.38127  -0.36686  -0.36059  -0.35591
 Alpha  occ. eigenvalues --   -0.33953  -0.33619  -0.28430
 Alpha virt. eigenvalues --   -0.13367  -0.13107  -0.08343  -0.07595  -0.07243
 Alpha virt. eigenvalues --   -0.06020  -0.05894  -0.02439  -0.01618  -0.00948
 Alpha virt. eigenvalues --   -0.00160   0.00790   0.01162   0.01862   0.02797

 Mulliken charges:
               1
     1  N   -0.751851
     2  H    0.422332
     3  H    0.440854
     4  H    0.422360
     5  C   -0.276597
     6  H    0.247920
     7  H    0.248023
     8  C    0.642400
     9  O   -0.533697
    10  N   -0.603427
    11  H    0.376991
    12  C   -0.071429
    13  H    0.192872
    14  C    0.626665
    15  C   -0.258906
    16  H    0.158562
    17  H    0.153461
    18  O   -0.546248
    19  C   -0.104146
    20  H    0.151583
    21  C   -0.453860
    22  H    0.151590
    23  H    0.172798
    24  H    0.133896
    25  C   -0.449017
    26  H    0.145725
    27  H    0.151580
    28  H    0.165891
    29  N   -0.610502
    30  H    0.369869
    31  C   -0.064769
    32  H    0.179223
    33  C    0.628883
    34  C   -0.074620
    35  H    0.147090
    36  O   -0.545169
    37  C   -0.468948
    38  H    0.151271
    39  H    0.166693
    40  H    0.159656
    41  C   -0.445399
    42  H    0.158361
    43  H    0.159095
    44  H    0.138100
    45  N   -0.610054
    46  H    0.361654
    47  C   -0.043181
    48  H    0.202951
    49  C    0.589063
    50  C   -0.272027
    51  H    0.170203
    52  H    0.170871
    53  O   -0.468858
    54  C   -0.277122
    55  H    0.141808
    56  H    0.134811
    57  C   -0.250202
    58  H    0.142468
    59  H    0.131068
    60  C   -0.135716
    61  H    0.116087
    62  H    0.143164
    63  N   -0.718649
    64  H    0.295168
    65  H    0.302536
    66  O   -0.558276
    67  H    0.427075
 Sum of Mulliken charges =   1.00000

 Dipole moment (field-independent basis, Debye):
    X=            -14.0082    Y=              7.4456    Z=              8.0463  Tot=             17.7879
 Quadrupole moment (field-independent basis, Debye-Ang):
   XX=            -33.5748   YY=           -159.4727   ZZ=           -100.3380
   XY=            -32.7085   XZ=            -92.4616   YZ=              6.6269

 Normal termination of Gaussian 16 at Fri May 27 02:24:35 2022.
