 Gaussian 16, Revision C.01,
 Gaussian 16:  ES64L-G16RevC.01  3-Jul-2019

 -------------------------------------------------------------------
 # B3LYP/6-31G* guess=read geom=check nosymm integral(ultrafinegrid)
 -------------------------------------------------------------------

 ------------------------------------------------------
 Candidate Structure: Conf:428 Charge calc in gas phase
 ------------------------------------------------------
 Structure from the checkpoint file:  "conf-428.chk"
 Charge =  1 Multiplicity = 1

                          Input orientation:
 ---------------------------------------------------------------------
 Center     Atomic      Atomic             Coordinates (Angstroms)
 Number     Number       Type             X           Y           Z
 ---------------------------------------------------------------------
      1          7           0       -1.832653    2.233286    3.917491
      2          1           0       -1.565837    2.989058    4.555344
      3          1           0       -1.822892    1.336891    4.420558
      4          1           0       -1.142096    2.127931    3.117386
      5          6           0       -3.202366    2.411339    3.297204
      6          1           0       -3.248093    3.410737    2.861470
      7          1           0       -3.959680    2.295758    4.073443
      8          6           0       -3.217872    1.248123    2.291548
      9          8           0       -3.114363    0.114889    2.740225
     10          7           0       -3.125430    1.579576    0.977705
     11          1           0       -3.091838    2.568919    0.760532
     12          6           0       -2.270263    0.745838    0.133426
     13          1           0       -2.625991   -0.283997    0.211916
     14          6           0       -0.827622    0.803064    0.724916
     15          6           0       -2.318200    1.222232   -1.329916
     16          1           0       -1.950160    2.258597   -1.370232
     17          1           0       -1.600846    0.628438   -1.910327
     18          8           0       -0.513898    1.618346    1.618874
     19          6           0       -3.703991    1.135438   -2.004720
     20          1           0       -4.414089    1.720843   -1.402719
     21          6           0       -3.632964    1.770408   -3.401996
     22          1           0       -2.940812    1.219020   -4.050539
     23          1           0       -4.616515    1.760236   -3.882942
     24          1           0       -3.293202    2.811958   -3.356765
     25          6           0       -4.225208   -0.307014   -2.084104
     26          1           0       -3.533026   -0.945692   -2.647731
     27          1           0       -4.374157   -0.756260   -1.095522
     28          1           0       -5.191559   -0.335920   -2.598110
     29          7           0        0.029775   -0.072499    0.204540
     30          1           0       -0.235472   -0.651854   -0.591013
     31          6           0        1.460159   -0.165799    0.503542
     32          1           0        1.786734    0.796367    0.910495
     33          6           0        2.106747   -0.449547   -0.871564
     34          6           0        1.761425   -1.302558    1.527983
     35          1           0        1.451308   -2.242103    1.049988
     36          8           0        1.471914   -1.083878   -1.716839
     37          6           0        3.260635   -1.392738    1.855134
     38          1           0        3.627263   -0.457551    2.299041
     39          1           0        3.434381   -2.188937    2.585932
     40          1           0        3.875126   -1.614134    0.978640
     41          6           0        0.948157   -1.127827    2.819628
     42          1           0        1.222762   -0.195673    3.329589
     43          1           0        1.157898   -1.956836    3.503625
     44          1           0       -0.130166   -1.118133    2.633062
     45          7           0        3.352072    0.025453   -1.069326
     46          1           0        3.873463    0.448741   -0.308739
     47          6           0        4.142209   -0.320648   -2.248490
     48          1           0        3.916350   -1.357796   -2.522109
     49          6           0        5.604200   -0.246183   -1.824229
     50          6           0        3.841494    0.570095   -3.477275
     51          1           0        4.417078    0.171925   -4.321058
     52          1           0        2.783324    0.422723   -3.715820
     53          8           0        5.981593    0.151319   -0.740688
     54          6           0        4.162156    2.058483   -3.282012
     55          1           0        5.213720    2.167761   -2.983228
     56          1           0        3.564438    2.458135   -2.450604
     57          6           0        3.929215    2.908314   -4.541548
     58          1           0        4.325387    3.917227   -4.357908
     59          1           0        4.503467    2.502993   -5.383921
     60          6           0        2.463465    3.033734   -4.970667
     61          1           0        2.059592    2.044184   -5.218124
     62          1           0        1.870273    3.408703   -4.112220
     63          7           0        2.365034    3.856242   -6.177466
     64          1           0        1.401826    3.893639   -6.505123
     65          1           0        2.634400    4.816657   -5.968286
     66          8           0        6.427543   -0.661998   -2.797891
     67          1           0        7.341397   -0.575297   -2.464211
 ---------------------------------------------------------------------

 SCF Done:  E(RB3LYP) =  -1396.63911487     A.U. after    1 cycles

 Alpha  occ. eigenvalues --  -19.28703 -19.26665 -19.25637 -19.23356 -19.21765
 Alpha  occ. eigenvalues --  -14.60737 -14.50125 -14.48361 -14.45895 -14.36923
 Alpha  occ. eigenvalues --  -10.44085 -10.42113 -10.41282 -10.41109 -10.38923
 Alpha  occ. eigenvalues --  -10.36126 -10.34133 -10.32790 -10.30425 -10.29660
 Alpha  occ. eigenvalues --  -10.28967 -10.27137 -10.26927 -10.26647 -10.26609
 Alpha  occ. eigenvalues --  -10.26233 -10.26081 -10.25680 -10.24399  -1.19836
 Alpha  occ. eigenvalues --   -1.19513  -1.16481  -1.14654  -1.13738  -1.10939
 Alpha  occ. eigenvalues --   -1.06895  -1.04863  -1.02388  -0.93779  -0.92750
 Alpha  occ. eigenvalues --   -0.90691  -0.89571  -0.88086  -0.85721  -0.83589
 Alpha  occ. eigenvalues --   -0.81236  -0.77793  -0.77342  -0.76460  -0.76114
 Alpha  occ. eigenvalues --   -0.75318  -0.73829  -0.72951  -0.71656  -0.71046
 Alpha  occ. eigenvalues --   -0.70138  -0.68087  -0.67217  -0.66811  -0.65332
 Alpha  occ. eigenvalues --   -0.64858  -0.63820  -0.63070  -0.61313  -0.60494
 Alpha  occ. eigenvalues --   -0.59522  -0.58034  -0.57587  -0.57094  -0.56716
 Alpha  occ. eigenvalues --   -0.55988  -0.55795  -0.55575  -0.55003  -0.54565
 Alpha  occ. eigenvalues --   -0.54053  -0.53546  -0.52543  -0.52242  -0.51711
 Alpha  occ. eigenvalues --   -0.51628  -0.51028  -0.50101  -0.49546  -0.49367
 Alpha  occ. eigenvalues --   -0.48853  -0.48558  -0.48412  -0.47894  -0.47364
 Alpha  occ. eigenvalues --   -0.47211  -0.46165  -0.45989  -0.44608  -0.44202
 Alpha  occ. eigenvalues --   -0.43486  -0.43231  -0.43181  -0.42940  -0.42404
 Alpha  occ. eigenvalues --   -0.42279  -0.41186  -0.41099  -0.40660  -0.40149
 Alpha  occ. eigenvalues --   -0.39870  -0.39075  -0.38769  -0.38093  -0.36849
 Alpha  occ. eigenvalues --   -0.35534  -0.35148  -0.29089
 Alpha virt. eigenvalues --   -0.14960  -0.11124  -0.10099  -0.08317  -0.07395
 Alpha virt. eigenvalues --   -0.06295  -0.04965  -0.02666  -0.01920  -0.01177
 Alpha virt. eigenvalues --   -0.00483  -0.00124   0.00555   0.01660   0.01795

 Mulliken charges:
               1
     1  N   -0.755541
     2  H    0.414361
     3  H    0.423858
     4  H    0.458949
     5  C   -0.266543
     6  H    0.216949
     7  H    0.245894
     8  C    0.592113
     9  O   -0.480835
    10  N   -0.550029
    11  H    0.340479
    12  C   -0.086598
    13  H    0.215251
    14  C    0.660583
    15  C   -0.298596
    16  H    0.144086
    17  H    0.170545
    18  O   -0.615030
    19  C   -0.073054
    20  H    0.133338
    21  C   -0.448042
    22  H    0.155650
    23  H    0.165952
    24  H    0.144329
    25  C   -0.459773
    26  H    0.154266
    27  H    0.150627
    28  H    0.169727
    29  N   -0.591141
    30  H    0.372627
    31  C   -0.062314
    32  H    0.171086
    33  C    0.624542
    34  C   -0.073250
    35  H    0.156346
    36  O   -0.540289
    37  C   -0.469728
    38  H    0.148464
    39  H    0.170942
    40  H    0.166372
    41  C   -0.456322
    42  H    0.131656
    43  H    0.168143
    44  H    0.152643
    45  N   -0.608963
    46  H    0.360820
    47  C   -0.046838
    48  H    0.206017
    49  C    0.590261
    50  C   -0.272195
    51  H    0.172880
    52  H    0.172554
    53  O   -0.472040
    54  C   -0.277893
    55  H    0.145163
    56  H    0.128235
    57  C   -0.251602
    58  H    0.133874
    59  H    0.159342
    60  C   -0.131531
    61  H    0.142426
    62  H    0.097378
    63  N   -0.711729
    64  H    0.299199
    65  H    0.296544
    66  O   -0.554035
    67  H    0.429437
 Sum of Mulliken charges =   1.00000

 Dipole moment (field-independent basis, Debye):
    X=             -4.1351    Y=             10.1856    Z=              9.0036  Tot=             14.2095
 Quadrupole moment (field-independent basis, Debye-Ang):
   XX=           -118.9651   YY=           -140.1367   ZZ=           -122.2779
   XY=            -29.8870   XZ=            -23.7140   YZ=             25.1248

 Normal termination of Gaussian 16 at Fri May 27 02:24:35 2022.
