 Gaussian 16, Revision C.01,
 Gaussian 16:  ES64L-G16RevC.01  3-Jul-2019

 -------------------------------------------------------------------
 # B3LYP/6-31G* guess=read geom=check nosymm integral(ultrafinegrid)
 -------------------------------------------------------------------

 ------------------------------------------------------
 Candidate Structure: Conf:448 Charge calc in gas phase
 ------------------------------------------------------
 Structure from the checkpoint file:  "conf-448.chk"
 Charge =  1 Multiplicity = 1

                          Input orientation:
 ---------------------------------------------------------------------
 Center     Atomic      Atomic             Coordinates (Angstroms)
 Number     Number       Type             X           Y           Z
 ---------------------------------------------------------------------
      1          7           0       -1.621365    2.497137    3.904995
      2          1           0       -1.299997    3.341154    4.388246
      3          1           0       -1.396739    1.668835    4.470763
      4          1           0       -1.129724    2.361842    2.972504
      5          6           0       -3.108182    2.483031    3.620102
      6          1           0       -3.363367    3.416158    3.115153
      7          1           0       -3.648577    2.395888    4.563332
      8          6           0       -3.225917    1.210730    2.763723
      9          8           0       -2.914993    0.149901    3.285254
     10          7           0       -3.464098    1.395129    1.438689
     11          1           0       -3.587065    2.353149    1.131340
     12          6           0       -2.737952    0.550244    0.491659
     13          1           0       -2.878957   -0.487293    0.804177
     14          6           0       -1.218539    0.885193    0.633300
     15          6           0       -3.267812    0.757599   -0.939202
     16          1           0       -3.097782    1.806134   -1.226438
     17          1           0       -2.661058    0.157960   -1.628868
     18          8           0       -0.806631    1.770138    1.416206
     19          6           0       -4.754609    0.397917   -1.145628
     20          1           0       -5.350327    0.996988   -0.442035
     21          6           0       -5.180139    0.780363   -2.571565
     22          1           0       -4.619881    0.204172   -3.318461
     23          1           0       -6.244666    0.576132   -2.726292
     24          1           0       -5.010800    1.844741   -2.773159
     25          6           0       -5.040574   -1.085186   -0.867382
     26          1           0       -4.439844   -1.731808   -1.519903
     27          1           0       -4.835342   -1.366175    0.171956
     28          1           0       -6.094283   -1.313050   -1.059054
     29          7           0       -0.400560    0.173047   -0.136374
     30          1           0       -0.753564   -0.507510   -0.808634
     31          6           0        1.050931    0.336396   -0.213796
     32          1           0        1.278320    1.406403   -0.154744
     33          6           0        1.420153   -0.216342   -1.605682
     34          6           0        1.775516   -0.390812    0.963280
     35          1           0        1.296383    0.019200    1.862577
     36          8           0        0.667687   -1.007475   -2.174400
     37          6           0        1.563255   -1.911134    0.944362
     38          1           0        2.058518   -2.371942    0.083597
     39          1           0        1.989209   -2.356721    1.849565
     40          1           0        0.501026   -2.176168    0.913688
     41          6           0        3.270424   -0.040897    1.027275
     42          1           0        3.829170   -0.522818    0.218311
     43          1           0        3.695824   -0.402131    1.969416
     44          1           0        3.440995    1.043626    0.989173
     45          7           0        2.577998    0.226770   -2.149130
     46          1           0        3.212392    0.756855   -1.565950
     47          6           0        3.140226   -0.395075   -3.343918
     48          1           0        2.338370   -0.498635   -4.077743
     49          6           0        3.649689   -1.796898   -2.992653
     50          6           0        4.268133    0.506592   -3.896936
     51          1           0        3.836541    1.509294   -4.014641
     52          1           0        5.050386    0.583870   -3.128093
     53          8           0        4.031014   -2.138593   -1.893949
     54          6           0        4.903073    0.068663   -5.224502
     55          1           0        5.390998   -0.906834   -5.105598
     56          1           0        5.696134    0.783097   -5.468833
     57          6           0        3.933482    0.008915   -6.412239
     58          1           0        3.219760   -0.815614   -6.288774
     59          1           0        3.339469    0.935779   -6.452017
     60          6           0        4.656323   -0.172947   -7.754168
     61          1           0        5.287240   -1.069474   -7.702157
     62          1           0        3.905467   -0.363689   -8.540670
     63          7           0        5.533224    0.970435   -8.035027
     64          1           0        6.135390    0.762097   -8.829104
     65          1           0        4.971351    1.774878   -8.311596
     66          8           0        3.651619   -2.609333   -4.065438
     67          1           0        4.019116   -3.466943   -3.775707
 ---------------------------------------------------------------------

 SCF Done:  E(RB3LYP) =  -1396.64052430     A.U. after    2 cycles

 Alpha  occ. eigenvalues --  -19.27722 -19.26319 -19.25519 -19.22112 -19.21862
 Alpha  occ. eigenvalues --  -14.60498 -14.49824 -14.47990 -14.45865 -14.36478
 Alpha  occ. eigenvalues --  -10.43795 -10.41898 -10.40842 -10.40030 -10.38821
 Alpha  occ. eigenvalues --  -10.35892 -10.33833 -10.32217 -10.30116 -10.29109
 Alpha  occ. eigenvalues --  -10.28617 -10.27196 -10.26172 -10.26129 -10.25947
 Alpha  occ. eigenvalues --  -10.25740 -10.25334 -10.24269 -10.23972  -1.19194
 Alpha  occ. eigenvalues --   -1.18643  -1.16295  -1.14421  -1.13800  -1.09619
 Alpha  occ. eigenvalues --   -1.06623  -1.04535  -1.02353  -0.93205  -0.92437
 Alpha  occ. eigenvalues --   -0.90169  -0.89279  -0.87594  -0.85342  -0.82554
 Alpha  occ. eigenvalues --   -0.80529  -0.77082  -0.76856  -0.76343  -0.76099
 Alpha  occ. eigenvalues --   -0.75082  -0.73635  -0.72776  -0.71787  -0.70836
 Alpha  occ. eigenvalues --   -0.68318  -0.67500  -0.67090  -0.65597  -0.64964
 Alpha  occ. eigenvalues --   -0.64679  -0.63457  -0.62627  -0.60725  -0.60044
 Alpha  occ. eigenvalues --   -0.59132  -0.57743  -0.57488  -0.56786  -0.56410
 Alpha  occ. eigenvalues --   -0.55719  -0.55348  -0.54927  -0.54528  -0.54078
 Alpha  occ. eigenvalues --   -0.53601  -0.53246  -0.52486  -0.51588  -0.51268
 Alpha  occ. eigenvalues --   -0.51245  -0.49879  -0.49471  -0.49214  -0.49024
 Alpha  occ. eigenvalues --   -0.48325  -0.48277  -0.47269  -0.46935  -0.46923
 Alpha  occ. eigenvalues --   -0.46139  -0.45927  -0.45697  -0.44144  -0.43473
 Alpha  occ. eigenvalues --   -0.43102  -0.42523  -0.42456  -0.42126  -0.42035
 Alpha  occ. eigenvalues --   -0.41934  -0.40858  -0.40015  -0.39875  -0.39739
 Alpha  occ. eigenvalues --   -0.38918  -0.38771  -0.38434  -0.37805  -0.36276
 Alpha  occ. eigenvalues --   -0.35649  -0.34841  -0.28683
 Alpha virt. eigenvalues --   -0.14595  -0.10968  -0.09765  -0.07996  -0.06890
 Alpha virt. eigenvalues --   -0.06050  -0.04718  -0.02317  -0.01656  -0.01415
 Alpha virt. eigenvalues --    0.00020   0.00236   0.00757   0.01564   0.02088

 Mulliken charges:
               1
     1  N   -0.754691
     2  H    0.413903
     3  H    0.422793
     4  H    0.457781
     5  C   -0.266836
     6  H    0.216189
     7  H    0.245200
     8  C    0.590513
     9  O   -0.478429
    10  N   -0.548213
    11  H    0.339057
    12  C   -0.093315
    13  H    0.220539
    14  C    0.661346
    15  C   -0.296543
    16  H    0.143940
    17  H    0.168460
    18  O   -0.615401
    19  C   -0.072374
    20  H    0.134105
    21  C   -0.448415
    22  H    0.155739
    23  H    0.164817
    24  H    0.145557
    25  C   -0.460102
    26  H    0.153433
    27  H    0.151027
    28  H    0.168687
    29  N   -0.603273
    30  H    0.378854
    31  C   -0.061478
    32  H    0.171582
    33  C    0.642408
    34  C   -0.067333
    35  H    0.134078
    36  O   -0.540470
    37  C   -0.466855
    38  H    0.188711
    39  H    0.159881
    40  H    0.143494
    41  C   -0.490087
    42  H    0.189116
    43  H    0.167581
    44  H    0.134546
    45  N   -0.607642
    46  H    0.343991
    47  C   -0.030334
    48  H    0.203981
    49  C    0.602924
    50  C   -0.310425
    51  H    0.158755
    52  H    0.149142
    53  O   -0.465440
    54  C   -0.257956
    55  H    0.142386
    56  H    0.181624
    57  C   -0.261896
    58  H    0.144135
    59  H    0.122744
    60  C   -0.144026
    61  H    0.144326
    62  H    0.124698
    63  N   -0.715783
    64  H    0.306875
    65  H    0.295972
    66  O   -0.551104
    67  H    0.423529
 Sum of Mulliken charges =   1.00000

 Dipole moment (field-independent basis, Debye):
    X=             -4.5850    Y=             10.1785    Z=              5.3094  Tot=             12.3618
 Quadrupole moment (field-independent basis, Debye-Ang):
   XX=           -127.5854   YY=           -139.5004   ZZ=            -83.2860
   XY=            -26.1092   XZ=            -39.9518   YZ=             38.4265

 Normal termination of Gaussian 16 at Fri May 27 02:24:44 2022.
