 Gaussian 16, Revision C.01,
 Gaussian 16:  ES64L-G16RevC.01  3-Jul-2019

 -------------------------------------------------------------------
 # B3LYP/6-31G* guess=read geom=check nosymm integral(ultrafinegrid)
 -------------------------------------------------------------------

 ------------------------------------------------------
 Candidate Structure: Conf:746 Charge calc in gas phase
 ------------------------------------------------------
 Structure from the checkpoint file:  "conf-746.chk"
 Charge =  1 Multiplicity = 1

                          Input orientation:
 ---------------------------------------------------------------------
 Center     Atomic      Atomic             Coordinates (Angstroms)
 Number     Number       Type             X           Y           Z
 ---------------------------------------------------------------------
      1          7           0       -5.817931    0.135727    3.698043
      2          1           0       -6.571553    0.820605    3.799790
      3          1           0       -5.861927   -0.328044    2.723674
      4          1           0       -5.921806   -0.570651    4.431295
      5          6           0       -4.446349    0.749503    3.640070
      6          1           0       -3.826657    0.346632    4.442918
      7          1           0       -4.521724    1.832361    3.752547
      8          6           0       -3.928799    0.339686    2.231608
      9          8           0       -4.706792   -0.336001    1.535540
     10          7           0       -2.716229    0.741269    1.903408
     11          1           0       -2.110036    1.273991    2.535622
     12          6           0       -2.040891    0.452898    0.629715
     13          1           0       -2.221296   -0.594871    0.373935
     14          6           0       -0.548428    0.691887    0.960268
     15          6           0       -2.576578    1.383809   -0.487974
     16          1           0       -3.671319    1.304723   -0.465577
     17          1           0       -2.322799    2.415699   -0.212394
     18          8           0       -0.255250    1.400061    1.929322
     19          6           0       -2.098330    1.096497   -1.927379
     20          1           0       -1.005109    1.180712   -1.967839
     21          6           0       -2.489850   -0.309460   -2.409800
     22          1           0       -3.577441   -0.451459   -2.370440
     23          1           0       -2.168855   -0.460079   -3.445334
     24          1           0       -2.030454   -1.110312   -1.816684
     25          6           0       -2.674172    2.167072   -2.868234
     26          1           0       -3.770925    2.128812   -2.887545
     27          1           0       -2.377682    3.176078   -2.558893
     28          1           0       -2.317948    2.012936   -3.892018
     29          7           0        0.344516    0.087051    0.158340
     30          1           0        0.038546   -0.336245   -0.715098
     31          6           0        1.775014    0.385626    0.175441
     32          1           0        1.906356    1.344197    0.688602
     33          6           0        2.187059    0.517654   -1.305541
     34          6           0        2.619010   -0.694571    0.915821
     35          1           0        3.665152   -0.365895    0.831744
     36          8           0        1.452847    0.104577   -2.204264
     37          6           0        2.265878   -0.748651    2.408350
     38          1           0        1.241954   -1.108953    2.557926
     39          1           0        2.939812   -1.437627    2.928845
     40          1           0        2.345833    0.234819    2.882841
     41          6           0        2.506899   -2.077854    0.259462
     42          1           0        1.474553   -2.446050    0.290396
     43          1           0        3.129849   -2.799675    0.798055
     44          1           0        2.836258   -2.064310   -0.783870
     45          7           0        3.384650    1.099543   -1.544624
     46          1           0        3.992328    1.320433   -0.766658
     47          6           0        3.943634    1.186086   -2.890844
     48          1           0        3.158978    1.549142   -3.557831
     49          6           0        4.360758   -0.174330   -3.450815
     50          6           0        5.135077    2.171630   -2.881174
     51          1           0        4.755337    3.121674   -2.481955
     52          1           0        5.883702    1.800406   -2.166507
     53          8           0        4.360024   -0.449737   -4.626899
     54          6           0        5.809719    2.419243   -4.237972
     55          1           0        6.260198    1.489153   -4.606622
     56          1           0        6.633300    3.123684   -4.081009
     57          6           0        4.886054    2.991544   -5.321307
     58          1           0        4.156920    2.235674   -5.637893
     59          1           0        4.311006    3.837531   -4.911663
     60          6           0        5.657293    3.470234   -6.558545
     61          1           0        6.269567    2.643197   -6.939714
     62          1           0        4.934543    3.717888   -7.355543
     63          7           0        6.564490    4.573688   -6.217195
     64          1           0        7.186334    4.768159   -6.999669
     65          1           0        6.025998    5.426458   -6.067805
     66          8           0        4.797841   -1.026142   -2.489617
     67          1           0        5.078972   -1.836959   -2.955748
 ---------------------------------------------------------------------

 SCF Done:  E(RB3LYP) =  -1396.63609414     A.U. after    1 cycles

 Alpha  occ. eigenvalues --  -19.28416 -19.26652 -19.22593 -19.20720 -19.20616
 Alpha  occ. eigenvalues --  -14.61856 -14.50516 -14.46003 -14.44948 -14.35634
 Alpha  occ. eigenvalues --  -10.45205 -10.42376 -10.39621 -10.38677 -10.37629
 Alpha  occ. eigenvalues --  -10.35140 -10.32269 -10.31199 -10.28780 -10.28084
 Alpha  occ. eigenvalues --  -10.27521 -10.26288 -10.25395 -10.25146 -10.25055
 Alpha  occ. eigenvalues --  -10.24957 -10.24813 -10.23243 -10.22868  -1.20858
 Alpha  occ. eigenvalues --   -1.17309  -1.15451  -1.14522  -1.12547  -1.08284
 Alpha  occ. eigenvalues --   -1.07162  -1.02618  -1.01322  -0.92454  -0.92308
 Alpha  occ. eigenvalues --   -0.89866  -0.88874  -0.86607  -0.84948  -0.81615
 Alpha  occ. eigenvalues --   -0.79205  -0.76848  -0.76052  -0.75986  -0.75837
 Alpha  occ. eigenvalues --   -0.75485  -0.75215  -0.72171  -0.70411  -0.69231
 Alpha  occ. eigenvalues --   -0.67701  -0.67371  -0.66458  -0.65663  -0.64534
 Alpha  occ. eigenvalues --   -0.64192  -0.62705  -0.61855  -0.61326  -0.59641
 Alpha  occ. eigenvalues --   -0.59025  -0.57383  -0.56392  -0.55779  -0.55381
 Alpha  occ. eigenvalues --   -0.54581  -0.54278  -0.53935  -0.53800  -0.53292
 Alpha  occ. eigenvalues --   -0.52542  -0.51831  -0.51501  -0.50658  -0.50509
 Alpha  occ. eigenvalues --   -0.50445  -0.49646  -0.48347  -0.47967  -0.47839
 Alpha  occ. eigenvalues --   -0.47026  -0.46738  -0.46272  -0.46238  -0.45715
 Alpha  occ. eigenvalues --   -0.45409  -0.45088  -0.44678  -0.43596  -0.43302
 Alpha  occ. eigenvalues --   -0.42828  -0.42255  -0.41594  -0.41439  -0.41341
 Alpha  occ. eigenvalues --   -0.41252  -0.40772  -0.39261  -0.38987  -0.38483
 Alpha  occ. eigenvalues --   -0.38020  -0.37655  -0.36823  -0.36415  -0.35599
 Alpha  occ. eigenvalues --   -0.34223  -0.32696  -0.27823
 Alpha virt. eigenvalues --   -0.13455  -0.13190  -0.08492  -0.07663  -0.06631
 Alpha virt. eigenvalues --   -0.06069  -0.05689  -0.02526  -0.01679  -0.01213
 Alpha virt. eigenvalues --   -0.00897   0.00753   0.00971   0.02082   0.02815

 Mulliken charges:
               1
     1  N   -0.751819
     2  H    0.422467
     3  H    0.441007
     4  H    0.422450
     5  C   -0.276612
     6  H    0.247824
     7  H    0.247967
     8  C    0.642690
     9  O   -0.533213
    10  N   -0.603198
    11  H    0.376346
    12  C   -0.070956
    13  H    0.193505
    14  C    0.624575
    15  C   -0.259034
    16  H    0.157985
    17  H    0.152647
    18  O   -0.545876
    19  C   -0.104567
    20  H    0.156562
    21  C   -0.453759
    22  H    0.150265
    23  H    0.174664
    24  H    0.133275
    25  C   -0.448108
    26  H    0.145070
    27  H    0.147982
    28  H    0.165500
    29  N   -0.607489
    30  H    0.374657
    31  C   -0.079723
    32  H    0.183977
    33  C    0.645414
    34  C   -0.075386
    35  H    0.136313
    36  O   -0.541296
    37  C   -0.443018
    38  H    0.141484
    39  H    0.157860
    40  H    0.158297
    41  C   -0.466885
    42  H    0.143215
    43  H    0.159966
    44  H    0.172674
    45  N   -0.616634
    46  H    0.341520
    47  C   -0.013429
    48  H    0.202687
    49  C    0.605862
    50  C   -0.318152
    51  H    0.156723
    52  H    0.147595
    53  O   -0.450338
    54  C   -0.261347
    55  H    0.149772
    56  H    0.178320
    57  C   -0.262505
    58  H    0.152767
    59  H    0.118138
    60  C   -0.145369
    61  H    0.147538
    62  H    0.122477
    63  N   -0.715695
    64  H    0.304945
    65  H    0.294059
    66  O   -0.574602
    67  H    0.419971
 Sum of Mulliken charges =   1.00000

 Dipole moment (field-independent basis, Debye):
    X=            -14.9285    Y=              3.6186    Z=             12.3891  Tot=             19.7344
 Quadrupole moment (field-independent basis, Debye-Ang):
   XX=            -34.7094   YY=           -155.8423   ZZ=           -105.8573
   XY=             -3.2950   XZ=            -91.5923   YZ=            -12.9646

 Normal termination of Gaussian 16 at Fri May 27 02:43:54 2022.
