 Gaussian 16, Revision C.01,
 Gaussian 16:  ES64L-G16RevC.01  3-Jul-2019

 -------------------------------------------------------------------
 # B3LYP/6-31G* guess=read geom=check nosymm integral(ultrafinegrid)
 -------------------------------------------------------------------

 ------------------------------------------------------
 Candidate Structure: Conf:197 Charge calc in gas phase
 ------------------------------------------------------
 Structure from the checkpoint file:  "conf-197.chk"
 Charge =  1 Multiplicity = 1

                          Input orientation:
 ---------------------------------------------------------------------
 Center     Atomic      Atomic             Coordinates (Angstroms)
 Number     Number       Type             X           Y           Z
 ---------------------------------------------------------------------
      1          7           0       -5.355940    1.617401    4.159318
      2          1           0       -5.209017    1.406661    5.150144
      3          1           0       -6.218098    2.161692    4.069401
      4          1           0       -5.430823    0.704052    3.592984
      5          6           0       -4.166658    2.254750    3.494664
      6          1           0       -3.376191    2.417800    4.229396
      7          1           0       -4.457123    3.212630    3.060191
      8          6           0       -3.757990    1.218664    2.408676
      9          8           0       -4.453670    0.191933    2.340835
     10          7           0       -2.719133    1.535502    1.656115
     11          1           0       -2.111437    2.328976    1.886835
     12          6           0       -2.075548    0.663351    0.664676
     13          1           0       -2.248627   -0.377315    0.952442
     14          6           0       -0.573101    1.020254    0.781206
     15          6           0       -2.574792    0.928411   -0.774623
     16          1           0       -2.418358    1.994641   -0.986020
     17          1           0       -1.916508    0.379665   -1.461757
     18          8           0       -0.240015    2.071656    1.336057
     19          6           0       -4.037686    0.544722   -1.076238
     20          1           0       -4.685784    1.053972   -0.347819
     21          6           0       -4.417100    1.053907   -2.475945
     22          1           0       -3.797524    0.580047   -3.247344
     23          1           0       -5.463045    0.822715   -2.704406
     24          1           0       -4.285707    2.139028   -2.561238
     25          6           0       -4.282421   -0.967090   -0.959992
     26          1           0       -3.631674   -1.523217   -1.646748
     27          1           0       -4.111910   -1.339020    0.055640
     28          1           0       -5.318224   -1.208649   -1.222198
     29          7           0        0.274113    0.131973    0.234310
     30          1           0       -0.090916   -0.608553   -0.362838
     31          6           0        1.682498    0.410802   -0.035267
     32          1           0        1.820570    1.497064    0.003089
     33          6           0        1.930167   -0.104732   -1.470703
     34          6           0        2.648773   -0.250428    0.990675
     35          1           0        3.663292   -0.000464    0.648186
     36          8           0        1.114603   -0.849055   -2.018273
     37          6           0        2.466527    0.349993    2.391166
     38          1           0        1.477430    0.110179    2.797001
     39          1           0        3.216081   -0.059377    3.077006
     40          1           0        2.567881    1.440282    2.383200
     41          6           0        2.518488   -1.779977    1.014672
     42          1           0        1.521480   -2.083255    1.355094
     43          1           0        3.248667   -2.209886    1.707987
     44          1           0        2.688753   -2.227877    0.030012
     45          7           0        3.089667    0.284638   -2.044716
     46          1           0        3.711292    0.917660   -1.559097
     47          6           0        3.501325   -0.177145   -3.371542
     48          1           0        3.048706   -1.158291   -3.530442
     49          6           0        5.012009   -0.361125   -3.420708
     50          6           0        3.023363    0.784291   -4.490394
     51          1           0        1.949403    0.934528   -4.326483
     52          1           0        3.508401    1.759884   -4.350512
     53          8           0        5.588250   -1.158776   -4.118286
     54          6           0        3.260189    0.266171   -5.914895
     55          1           0        2.773530   -0.713022   -6.026279
     56          1           0        4.330324    0.091373   -6.080001
     57          6           0        2.727082    1.226337   -6.987355
     58          1           0        1.652251    1.401485   -6.826942
     59          1           0        3.217991    2.205938   -6.883325
     60          6           0        2.942437    0.706934   -8.420384
     61          1           0        4.013036    0.528223   -8.585396
     62          1           0        2.450512   -0.268554   -8.530756
     63          7           0        2.464599    1.570512   -9.500583
     64          1           0        1.467169    1.748977   -9.389763
     65          1           0        2.922513    2.479687   -9.449147
     66          8           0        5.658083    0.531163   -2.622207
     67          1           0        6.614413    0.372946   -2.739846
 ---------------------------------------------------------------------

 SCF Done:  E(RB3LYP) =  -1396.63547745     A.U. after    2 cycles

 Alpha  occ. eigenvalues --  -19.28778 -19.27805 -19.22930 -19.21667 -19.20848
 Alpha  occ. eigenvalues --  -14.62205 -14.50795 -14.46093 -14.45173 -14.35376
 Alpha  occ. eigenvalues --  -10.45585 -10.42654 -10.39859 -10.39855 -10.37915
 Alpha  occ. eigenvalues --  -10.35419 -10.32505 -10.31741 -10.29154 -10.28337
 Alpha  occ. eigenvalues --  -10.28263 -10.26208 -10.25588 -10.25571 -10.25234
 Alpha  occ. eigenvalues --  -10.25153 -10.25042 -10.24272 -10.23411  -1.21187
 Alpha  occ. eigenvalues --   -1.18404  -1.15793  -1.14798  -1.12708  -1.09444
 Alpha  occ. eigenvalues --   -1.07481  -1.02874  -1.01560  -0.92849  -0.92180
 Alpha  occ. eigenvalues --   -0.90169  -0.89279  -0.87021  -0.85467  -0.82461
 Alpha  occ. eigenvalues --   -0.79514  -0.76983  -0.76495  -0.76230  -0.76136
 Alpha  occ. eigenvalues --   -0.75859  -0.75417  -0.72431  -0.70163  -0.69697
 Alpha  occ. eigenvalues --   -0.67999  -0.67734  -0.66782  -0.65558  -0.65289
 Alpha  occ. eigenvalues --   -0.64275  -0.64126  -0.62538  -0.62306  -0.60119
 Alpha  occ. eigenvalues --   -0.58985  -0.57743  -0.56974  -0.56016  -0.55422
 Alpha  occ. eigenvalues --   -0.55341  -0.54806  -0.54318  -0.54000  -0.53877
 Alpha  occ. eigenvalues --   -0.53096  -0.52486  -0.52202  -0.51114  -0.50592
 Alpha  occ. eigenvalues --   -0.50097  -0.49399  -0.48955  -0.48331  -0.48226
 Alpha  occ. eigenvalues --   -0.47766  -0.47540  -0.46706  -0.46332  -0.46291
 Alpha  occ. eigenvalues --   -0.45610  -0.45391  -0.44373  -0.43697  -0.43298
 Alpha  occ. eigenvalues --   -0.42826  -0.42463  -0.42074  -0.41870  -0.41668
 Alpha  occ. eigenvalues --   -0.41523  -0.41450  -0.40688  -0.40096  -0.39544
 Alpha  occ. eigenvalues --   -0.39382  -0.38040  -0.36967  -0.36177  -0.35931
 Alpha  occ. eigenvalues --   -0.34729  -0.33197  -0.27355
 Alpha virt. eigenvalues --   -0.13790  -0.13451  -0.08560  -0.07967  -0.07347
 Alpha virt. eigenvalues --   -0.06369  -0.06029  -0.02851  -0.02364  -0.01342
 Alpha virt. eigenvalues --   -0.00553   0.00474   0.01189   0.01348   0.02794

 Mulliken charges:
               1
     1  N   -0.751092
     2  H    0.423385
     3  H    0.423303
     4  H    0.440940
     5  C   -0.278789
     6  H    0.249074
     7  H    0.249360
     8  C    0.638472
     9  O   -0.527788
    10  N   -0.586393
    11  H    0.373349
    12  C   -0.088881
    13  H    0.196059
    14  C    0.626361
    15  C   -0.264789
    16  H    0.152207
    17  H    0.169416
    18  O   -0.544224
    19  C   -0.071414
    20  H    0.114599
    21  C   -0.447866
    22  H    0.157601
    23  H    0.158001
    24  H    0.145605
    25  C   -0.460542
    26  H    0.153889
    27  H    0.154517
    28  H    0.159353
    29  N   -0.599470
    30  H    0.365324
    31  C   -0.076768
    32  H    0.181265
    33  C    0.635396
    34  C   -0.075646
    35  H    0.137023
    36  O   -0.545078
    37  C   -0.443128
    38  H    0.143140
    39  H    0.158408
    40  H    0.157402
    41  C   -0.463413
    42  H    0.147092
    43  H    0.163552
    44  H    0.166684
    45  N   -0.621480
    46  H    0.356802
    47  C   -0.041493
    48  H    0.208508
    49  C    0.588757
    50  C   -0.268969
    51  H    0.160316
    52  H    0.144875
    53  O   -0.438427
    54  C   -0.271592
    55  H    0.146959
    56  H    0.161149
    57  C   -0.265149
    58  H    0.122223
    59  H    0.125368
    60  C   -0.142068
    61  H    0.147939
    62  H    0.145257
    63  N   -0.700193
    64  H    0.291920
    65  H    0.293825
    66  O   -0.586437
    67  H    0.426414
 Sum of Mulliken charges =   1.00000

 Dipole moment (field-independent basis, Debye):
    X=            -15.0793    Y=              9.9718    Z=             14.3711  Tot=             23.0944
 Quadrupole moment (field-independent basis, Debye-Ang):
   XX=            -49.0226   YY=           -159.1044   ZZ=           -123.5963
   XY=            -29.6529   XZ=            -73.7404   YZ=             13.3353

 Normal termination of Gaussian 16 at Fri May 27 02:24:43 2022.
