 Gaussian 16, Revision C.01,
 Gaussian 16:  ES64L-G16RevC.01  3-Jul-2019

 -------------------------------------------------------------------
 # B3LYP/6-31G* guess=read geom=check nosymm integral(ultrafinegrid)
 -------------------------------------------------------------------

 ------------------------------------------------------
 Candidate Structure: Conf:549 Charge calc in gas phase
 ------------------------------------------------------
 Structure from the checkpoint file:  "conf-549.chk"
 Charge =  1 Multiplicity = 1

                          Input orientation:
 ---------------------------------------------------------------------
 Center     Atomic      Atomic             Coordinates (Angstroms)
 Number     Number       Type             X           Y           Z
 ---------------------------------------------------------------------
      1          7           0       -5.616662    0.147823    4.041869
      2          1           0       -5.663508   -0.629319    4.706320
      3          1           0       -6.350570    0.820501    4.279285
      4          1           0       -5.752979   -0.215108    3.036028
      5          6           0       -4.248311    0.761265    3.926089
      6          1           0       -3.566915    0.281306    4.630762
      7          1           0       -4.302885    1.828160    4.148349
      8          6           0       -3.852806    0.490845    2.446108
      9          8           0       -4.692881   -0.109859    1.755359
     10          7           0       -2.669095    0.936011    2.064929
     11          1           0       -1.978073    1.274260    2.744676
     12          6           0       -2.025401    0.676734    0.770146
     13          1           0       -2.414310   -0.264069    0.370554
     14          6           0       -0.524752    0.537907    1.132759
     15          6           0       -2.229737    1.830476   -0.237746
     16          1           0       -1.858431    2.750026    0.233907
     17          1           0       -1.573713    1.640044   -1.097906
     18          8           0       -0.125132    0.955549    2.224901
     19          6           0       -3.667750    2.049209   -0.749984
     20          1           0       -4.328085    2.180294    0.119918
     21          6           0       -3.720960    3.344134   -1.576255
     22          1           0       -3.075552    3.272572   -2.460514
     23          1           0       -4.739856    3.541585   -1.926369
     24          1           0       -3.391867    4.211082   -0.991335
     25          6           0       -4.185382    0.857208   -1.568577
     26          1           0       -3.537593    0.665076   -2.433410
     27          1           0       -4.248506   -0.059589   -0.973348
     28          1           0       -5.190852    1.063138   -1.951597
     29          7           0        0.246069   -0.030138    0.194298
     30          1           0       -0.125911   -0.229764   -0.732118
     31          6           0        1.709398   -0.052485    0.226174
     32          1           0        2.038740    0.676959    0.973295
     33          6           0        2.125205    0.374255   -1.198907
     34          6           0        2.263752   -1.460888    0.598814
     35          1           0        1.964746   -2.141477   -0.211014
     36          8           0        1.392124    0.104201   -2.153596
     37          6           0        3.797723   -1.462625    0.696555
     38          1           0        4.144972   -0.768195    1.473098
     39          1           0        4.152365   -2.460950    0.972508
     40          1           0        4.285294   -1.190770   -0.243574
     41          6           0        1.648055   -1.967617    1.911331
     42          1           0        1.881143   -1.293919    2.744053
     43          1           0        2.049285   -2.957512    2.153778
     44          1           0        0.559799   -2.057300    1.842289
     45          7           0        3.292824    1.037473   -1.319254
     46          1           0        3.906426    1.159538   -0.520891
     47          6           0        3.877825    1.364621   -2.615652
     48          1           0        3.649475    0.549773   -3.311569
     49          6           0        5.386479    1.419724   -2.412181
     50          6           0        3.334397    2.680489   -3.223862
     51          1           0        3.784970    2.786253   -4.216137
     52          1           0        2.256624    2.540672   -3.369984
     53          8           0        5.932970    1.370797   -1.329114
     54          6           0        3.607770    3.927140   -2.373678
     55          1           0        4.688876    4.066777   -2.257936
     56          1           0        3.190517    3.776706   -1.369240
     57          6           0        3.017251    5.216466   -2.966815
     58          1           0        1.935685    5.098921   -3.124998
     59          1           0        3.130338    6.023724   -2.228686
     60          6           0        3.657249    5.669362   -4.287029
     61          1           0        3.496933    4.908026   -5.060278
     62          1           0        3.131224    6.576265   -4.634549
     63          7           0        5.106908    5.842590   -4.134273
     64          1           0        5.527364    6.058074   -5.036517
     65          1           0        5.294070    6.648813   -3.538407
     66          8           0        6.041024    1.546231   -3.576465
     67          1           0        6.991847    1.621969   -3.367586
 ---------------------------------------------------------------------

 SCF Done:  E(RB3LYP) =  -1396.63962494     A.U. after    2 cycles

 Alpha  occ. eigenvalues --  -19.28521 -19.27076 -19.22411 -19.21701 -19.19933
 Alpha  occ. eigenvalues --  -14.61954 -14.50461 -14.45764 -14.44121 -14.36399
 Alpha  occ. eigenvalues --  -10.45302 -10.42389 -10.39634 -10.39419 -10.37055
 Alpha  occ. eigenvalues --  -10.35115 -10.31885 -10.31151 -10.28919 -10.28143
 Alpha  occ. eigenvalues --  -10.27557 -10.25936 -10.25423 -10.25419 -10.25109
 Alpha  occ. eigenvalues --  -10.24786 -10.24738 -10.23776 -10.23717  -1.20920
 Alpha  occ. eigenvalues --   -1.18195  -1.15521  -1.14318  -1.11861  -1.09283
 Alpha  occ. eigenvalues --   -1.07161  -1.02404  -1.00611  -0.93092  -0.92564
 Alpha  occ. eigenvalues --   -0.89875  -0.88719  -0.86383  -0.85195  -0.82055
 Alpha  occ. eigenvalues --   -0.79289  -0.76754  -0.76307  -0.75898  -0.75694
 Alpha  occ. eigenvalues --   -0.75606  -0.75101  -0.72069  -0.70178  -0.69716
 Alpha  occ. eigenvalues --   -0.68320  -0.67726  -0.65710  -0.65332  -0.65200
 Alpha  occ. eigenvalues --   -0.64082  -0.62222  -0.62054  -0.61692  -0.59712
 Alpha  occ. eigenvalues --   -0.57854  -0.57374  -0.56816  -0.56178  -0.55208
 Alpha  occ. eigenvalues --   -0.54811  -0.54150  -0.54018  -0.53819  -0.53686
 Alpha  occ. eigenvalues --   -0.52409  -0.52166  -0.51800  -0.51422  -0.50528
 Alpha  occ. eigenvalues --   -0.49730  -0.49487  -0.48405  -0.48086  -0.47986
 Alpha  occ. eigenvalues --   -0.47518  -0.47084  -0.46586  -0.46440  -0.46217
 Alpha  occ. eigenvalues --   -0.45422  -0.45149  -0.44637  -0.43443  -0.42903
 Alpha  occ. eigenvalues --   -0.42738  -0.42381  -0.41866  -0.41607  -0.41370
 Alpha  occ. eigenvalues --   -0.41321  -0.40861  -0.39841  -0.39652  -0.39318
 Alpha  occ. eigenvalues --   -0.38512  -0.37787  -0.36542  -0.35644  -0.35194
 Alpha  occ. eigenvalues --   -0.33647  -0.33301  -0.28620
 Alpha virt. eigenvalues --   -0.13533  -0.13217  -0.08122  -0.07702  -0.06605
 Alpha virt. eigenvalues --   -0.06072  -0.05518  -0.02592  -0.02124  -0.00276
 Alpha virt. eigenvalues --    0.00514   0.01014   0.01456   0.01649   0.02473

 Mulliken charges:
               1
     1  N   -0.751309
     2  H    0.423013
     3  H    0.422743
     4  H    0.440668
     5  C   -0.278741
     6  H    0.249173
     7  H    0.249079
     8  C    0.637830
     9  O   -0.528869
    10  N   -0.586000
    11  H    0.373958
    12  C   -0.089830
    13  H    0.194907
    14  C    0.631075
    15  C   -0.261817
    16  H    0.152762
    17  H    0.166092
    18  O   -0.546724
    19  C   -0.071396
    20  H    0.114912
    21  C   -0.447587
    22  H    0.156442
    23  H    0.157381
    24  H    0.145744
    25  C   -0.460260
    26  H    0.152879
    27  H    0.155129
    28  H    0.158601
    29  N   -0.605397
    30  H    0.361985
    31  C   -0.063411
    32  H    0.177431
    33  C    0.622337
    34  C   -0.073467
    35  H    0.146393
    36  O   -0.545587
    37  C   -0.469976
    38  H    0.151060
    39  H    0.165466
    40  H    0.161821
    41  C   -0.445179
    42  H    0.158454
    43  H    0.158065
    44  H    0.136891
    45  N   -0.607513
    46  H    0.361089
    47  C   -0.044844
    48  H    0.200908
    49  C    0.593935
    50  C   -0.272576
    51  H    0.173848
    52  H    0.159834
    53  O   -0.473517
    54  C   -0.261824
    55  H    0.169245
    56  H    0.124856
    57  C   -0.263599
    58  H    0.127941
    59  H    0.132348
    60  C   -0.139833
    61  H    0.142779
    62  H    0.123339
    63  N   -0.717753
    64  H    0.304740
    65  H    0.297100
    66  O   -0.554363
    67  H    0.427118
 Sum of Mulliken charges =   1.00000

 Dipole moment (field-independent basis, Debye):
    X=            -14.9489    Y=              5.0797    Z=             12.0487  Tot=             19.8606
 Quadrupole moment (field-independent basis, Debye-Ang):
   XX=            -41.3139   YY=           -144.1968   ZZ=            -94.5672
   XY=              3.0897   XZ=           -103.3032   YZ=            -14.3213

 Normal termination of Gaussian 16 at Fri May 27 02:44:11 2022.
