 Gaussian 16, Revision C.01,
 Gaussian 16:  ES64L-G16RevC.01  3-Jul-2019

 -------------------------------------------------------------------
 # B3LYP/6-31G* guess=read geom=check nosymm integral(ultrafinegrid)
 -------------------------------------------------------------------

 ------------------------------------------------------
 Candidate Structure: Conf:883 Charge calc in gas phase
 ------------------------------------------------------
 Structure from the checkpoint file:  "conf-883.chk"
 Charge =  1 Multiplicity = 1

                          Input orientation:
 ---------------------------------------------------------------------
 Center     Atomic      Atomic             Coordinates (Angstroms)
 Number     Number       Type             X           Y           Z
 ---------------------------------------------------------------------
      1          7           0       -1.350665   -1.581576   -3.605741
      2          1           0       -1.373843   -2.500727   -4.054824
      3          1           0       -1.390904   -0.796774   -4.397611
      4          1           0       -0.450053   -1.493737   -3.085053
      5          6           0       -2.495995   -1.427132   -2.660419
      6          1           0       -2.527962   -2.289138   -1.989321
      7          1           0       -3.423074   -1.400099   -3.241367
      8          6           0       -2.282527   -0.100620   -1.914827
      9          8           0       -1.734530    0.836802   -2.487621
     10          7           0       -2.669210   -0.065757   -0.620690
     11          1           0       -3.141203   -0.860117   -0.206168
     12          6           0       -2.317471    1.074529    0.242742
     13          1           0       -2.633965    1.991285   -0.258269
     14          6           0       -0.781103    1.198498    0.384634
     15          6           0       -3.034326    0.922479    1.598068
     16          1           0       -4.113356    0.855306    1.396432
     17          1           0       -2.732280   -0.035241    2.047721
     18          8           0       -0.250687    2.286324    0.540014
     19          6           0       -2.788155    2.052686    2.619747
     20          1           0       -1.712539    2.087123    2.835918
     21          6           0       -3.203070    3.430584    2.082757
     22          1           0       -4.253423    3.432961    1.761953
     23          1           0       -3.096750    4.189901    2.864827
     24          1           0       -2.577390    3.742041    1.240821
     25          6           0       -3.526230    1.721774    3.925842
     26          1           0       -4.612439    1.692328    3.770964
     27          1           0       -3.218258    0.750522    4.331560
     28          1           0       -3.321673    2.481048    4.687810
     29          7           0       -0.099738    0.008408    0.380621
     30          1           0       -0.603684   -0.812882    0.075504
     31          6           0        1.338304   -0.070358    0.179460
     32          1           0        1.732567    0.935856    0.352726
     33          6           0        1.582365   -0.489414   -1.282771
     34          6           0        1.990817   -1.068608    1.181082
     35          1           0        1.490351   -2.037010    1.030692
     36          8           0        0.849229   -1.335541   -1.829783
     37          6           0        3.493244   -1.265615    0.927627
     38          1           0        4.041045   -0.317209    0.994939
     39          1           0        3.911421   -1.936490    1.684762
     40          1           0        3.703802   -1.707740   -0.051346
     41          6           0        1.741890   -0.606934    2.624027
     42          1           0        2.248203    0.345345    2.823243
     43          1           0        2.132956   -1.347047    3.330016
     44          1           0        0.676193   -0.471583    2.828496
     45          7           0        2.626688    0.100294   -1.892439
     46          1           0        3.225329    0.706873   -1.338835
     47          6           0        3.226072   -0.322716   -3.154355
     48          1           0        2.975805   -1.375719   -3.322543
     49          6           0        4.740080   -0.200352   -2.975198
     50          6           0        2.761769    0.513676   -4.371699
     51          1           0        2.894803    1.577136   -4.135352
     52          1           0        3.421921    0.284447   -5.215833
     53          8           0        5.267973    0.387584   -2.056919
     54          6           0        1.308172    0.228650   -4.758576
     55          1           0        0.668688    0.389670   -3.885271
     56          1           0        1.225552   -0.834386   -5.033551
     57          6           0        0.802397    1.095594   -5.918963
     58          1           0        0.683874    2.132971   -5.576977
     59          1           0        1.545508    1.122297   -6.726195
     60          6           0       -0.512711    0.601565   -6.527353
     61          1           0       -0.850705    1.314350   -7.290150
     62          1           0       -0.354943   -0.359882   -7.030721
     63          7           0       -1.568256    0.390813   -5.498018
     64          1           0       -1.635788    1.203832   -4.882111
     65          1           0       -2.474557    0.312183   -5.961661
     66          8           0        5.406377   -0.798305   -3.975019
     67          1           0        6.360477   -0.657135   -3.817905
 ---------------------------------------------------------------------

 SCF Done:  E(RB3LYP) =  -1396.67847462     A.U. after    2 cycles

 Alpha  occ. eigenvalues --  -19.30416 -19.25307 -19.24999 -19.24334 -19.20904
 Alpha  occ. eigenvalues --  -14.55078 -14.49617 -14.47869 -14.46739 -14.45514
 Alpha  occ. eigenvalues --  -10.43016 -10.42942 -10.40817 -10.39031 -10.38252
 Alpha  occ. eigenvalues --  -10.35230 -10.33809 -10.33201 -10.33075 -10.29897
 Alpha  occ. eigenvalues --  -10.29465 -10.29442 -10.28999 -10.28697 -10.26847
 Alpha  occ. eigenvalues --  -10.26221 -10.25505 -10.24381 -10.24023  -1.21500
 Alpha  occ. eigenvalues --   -1.17588  -1.15428  -1.12867  -1.12678  -1.10174
 Alpha  occ. eigenvalues --   -1.05810  -1.04436  -1.02108  -1.01998  -0.91836
 Alpha  occ. eigenvalues --   -0.90830  -0.89327  -0.87450  -0.87194  -0.83402
 Alpha  occ. eigenvalues --   -0.81652  -0.79907  -0.76883  -0.75466  -0.74665
 Alpha  occ. eigenvalues --   -0.74249  -0.72804  -0.72489  -0.70601  -0.69824
 Alpha  occ. eigenvalues --   -0.69400  -0.68499  -0.68166  -0.66892  -0.64841
 Alpha  occ. eigenvalues --   -0.64144  -0.63199  -0.62606  -0.61358  -0.60367
 Alpha  occ. eigenvalues --   -0.59849  -0.59263  -0.58669  -0.58281  -0.57800
 Alpha  occ. eigenvalues --   -0.57242  -0.56777  -0.56392  -0.55837  -0.54957
 Alpha  occ. eigenvalues --   -0.54204  -0.53864  -0.53610  -0.52724  -0.51817
 Alpha  occ. eigenvalues --   -0.51222  -0.50930  -0.50613  -0.50254  -0.49919
 Alpha  occ. eigenvalues --   -0.49484  -0.48628  -0.48497  -0.47881  -0.46944
 Alpha  occ. eigenvalues --   -0.46800  -0.46610  -0.46103  -0.45618  -0.45363
 Alpha  occ. eigenvalues --   -0.44778  -0.44141  -0.44033  -0.43167  -0.42696
 Alpha  occ. eigenvalues --   -0.42335  -0.42010  -0.41045  -0.40386  -0.40123
 Alpha  occ. eigenvalues --   -0.39856  -0.39615  -0.38960  -0.38734  -0.38176
 Alpha  occ. eigenvalues --   -0.37485  -0.35026  -0.33953
 Alpha virt. eigenvalues --   -0.12322  -0.10325  -0.09570  -0.07634  -0.07216
 Alpha virt. eigenvalues --   -0.05230  -0.03829  -0.02224  -0.01309  -0.00923
 Alpha virt. eigenvalues --   -0.00709   0.00438   0.00762   0.01021   0.01420

 Mulliken charges:
               1
     1  N   -0.812029
     2  H    0.383539
     3  H    0.465608
     4  H    0.450599
     5  C   -0.273846
     6  H    0.203393
     7  H    0.223045
     8  C    0.638846
     9  O   -0.510321
    10  N   -0.640519
    11  H    0.344712
    12  C   -0.022970
    13  H    0.206284
    14  C    0.621993
    15  C   -0.303481
    16  H    0.153459
    17  H    0.136883
    18  O   -0.500201
    19  C   -0.079806
    20  H    0.156137
    21  C   -0.459918
    22  H    0.138323
    23  H    0.161355
    24  H    0.168325
    25  C   -0.447384
    26  H    0.146471
    27  H    0.142626
    28  H    0.162742
    29  N   -0.590992
    30  H    0.318589
    31  C   -0.072952
    32  H    0.190316
    33  C    0.653383
    34  C   -0.079482
    35  H    0.133093
    36  O   -0.607548
    37  C   -0.467208
    38  H    0.160001
    39  H    0.171011
    40  H    0.145348
    41  C   -0.447432
    42  H    0.160660
    43  H    0.162166
    44  H    0.156153
    45  N   -0.582524
    46  H    0.371836
    47  C   -0.055097
    48  H    0.191152
    49  C    0.589666
    50  C   -0.268825
    51  H    0.166568
    52  H    0.177744
    53  O   -0.452573
    54  C   -0.281027
    55  H    0.165635
    56  H    0.122243
    57  C   -0.281515
    58  H    0.161977
    59  H    0.166152
    60  C   -0.142103
    61  H    0.169520
    62  H    0.159592
    63  N   -0.797414
    64  H    0.364307
    65  H    0.337829
    66  O   -0.556433
    67  H    0.434319
 Sum of Mulliken charges =   1.00000

 Dipole moment (field-independent basis, Debye):
    X=             -3.6334    Y=             -5.8426    Z=            -15.1356  Tot=             16.6260
 Quadrupole moment (field-independent basis, Debye-Ang):
   XX=           -119.3020   YY=           -166.8175   ZZ=            -82.9922
   XY=              3.8554   XZ=              0.9320   YZ=              9.5111

 Normal termination of Gaussian 16 at Fri May 27 02:44:19 2022.
