 Gaussian 16, Revision C.01,
 Gaussian 16:  ES64L-G16RevC.01  3-Jul-2019

 -------------------------------------------------------------------
 # B3LYP/6-31G* guess=read geom=check nosymm integral(ultrafinegrid)
 -------------------------------------------------------------------

 ------------------------------------------------------
 Candidate Structure: Conf:121 Charge calc in gas phase
 ------------------------------------------------------
 Structure from the checkpoint file:  "conf-121.chk"
 Charge =  1 Multiplicity = 1

                          Input orientation:
 ---------------------------------------------------------------------
 Center     Atomic      Atomic             Coordinates (Angstroms)
 Number     Number       Type             X           Y           Z
 ---------------------------------------------------------------------
      1          7           0       -5.877303   -0.186336    3.999152
      2          1           0       -6.783509    0.288908    3.997810
      3          1           0       -5.811728   -0.876145    3.168517
      4          1           0       -5.776510   -0.688735    4.884986
      5          6           0       -4.718346    0.717581    3.682026
      6          1           0       -4.003037    0.706135    4.506043
      7          1           0       -5.076584    1.737158    3.530358
      8          6           0       -4.130555    0.101908    2.379868
      9          8           0       -4.718090   -0.900011    1.933815
     10          7           0       -3.068020    0.691413    1.869384
     11          1           0       -2.603017    1.495696    2.305319
     12          6           0       -2.347702    0.253416    0.665424
     13          1           0       -2.255190   -0.835807    0.697540
     14          6           0       -0.963391    0.930255    0.820107
     15          6           0       -3.105395    0.694382   -0.612220
     16          1           0       -4.147304    0.370264   -0.490859
     17          1           0       -3.110918    1.791980   -0.635305
     18          8           0       -0.856620    1.910922    1.567411
     19          6           0       -2.581600    0.147188   -1.957762
     20          1           0       -1.539567    0.462894   -2.094772
     21          6           0       -2.631255   -1.387468   -2.029667
     22          1           0       -3.653481   -1.756576   -1.876687
     23          1           0       -2.292472   -1.734159   -3.011103
     24          1           0       -1.989035   -1.872554   -1.284078
     25          6           0       -3.400977    0.765358   -3.102026
     26          1           0       -4.457576    0.476207   -3.033388
     27          1           0       -3.350129    1.860362   -3.087470
     28          1           0       -3.025860    0.425787   -4.073052
     29          7           0        0.040927    0.382500    0.124282
     30          1           0       -0.139157   -0.349135   -0.559270
     31          6           0        1.378260    0.965359   -0.015870
     32          1           0        1.335852    1.997884    0.343015
     33          6           0        1.667254    0.906054   -1.528358
     34          6           0        2.430956    0.164246    0.806295
     35          1           0        2.405104   -0.864864    0.421277
     36          8           0        1.217600   -0.033536   -2.194170
     37          6           0        3.853824    0.709719    0.609483
     38          1           0        3.917286    1.762256    0.917693
     39          1           0        4.554686    0.145515    1.234019
     40          1           0        4.189668    0.629516   -0.427532
     41          6           0        2.058945    0.138713    2.295753
     42          1           0        2.052796    1.150287    2.719584
     43          1           0        2.790002   -0.455696    2.854427
     44          1           0        1.071674   -0.302449    2.464826
     45          7           0        2.410314    1.899143   -2.049183
     46          1           0        2.710593    2.697996   -1.470345
     47          6           0        2.793383    1.865848   -3.451898
     48          1           0        1.896324    1.759426   -4.072090
     49          6           0        3.692929    0.658824   -3.733255
     50          6           0        3.548834    3.156696   -3.830305
     51          1           0        4.482431    3.172534   -3.255977
     52          1           0        3.838563    3.080894   -4.882744
     53          8           0        4.424388    0.120957   -2.933908
     54          6           0        2.724624    4.443345   -3.582267
     55          1           0        1.836685    4.200161   -2.988335
     56          1           0        2.347391    4.827491   -4.536921
     57          6           0        3.495002    5.572477   -2.873490
     58          1           0        4.293398    5.953883   -3.523410
     59          1           0        2.805387    6.414249   -2.718662
     60          6           0        4.132887    5.192740   -1.529342
     61          1           0        4.990831    4.530067   -1.688246
     62          1           0        4.529653    6.106211   -1.060625
     63          7           0        3.189529    4.468462   -0.648457
     64          1           0        3.632794    4.313804    0.256729
     65          1           0        2.378776    5.059966   -0.460426
     66          8           0        3.622108    0.304530   -5.033952
     67          1           0        4.249058   -0.433285   -5.158461
 ---------------------------------------------------------------------

 SCF Done:  E(RB3LYP) =  -1396.64562440     A.U. after    1 cycles

 Alpha  occ. eigenvalues --  -19.28136 -19.25650 -19.21867 -19.19980 -19.18775
 Alpha  occ. eigenvalues --  -14.61572 -14.50149 -14.45324 -14.42267 -14.40956
 Alpha  occ. eigenvalues --  -10.44896 -10.42118 -10.38952 -10.37978 -10.35679
 Alpha  occ. eigenvalues --  -10.34694 -10.30980 -10.30368 -10.28531 -10.28481
 Alpha  occ. eigenvalues --  -10.27316 -10.26639 -10.26132 -10.25562 -10.25395
 Alpha  occ. eigenvalues --  -10.25138 -10.24812 -10.24251 -10.23458  -1.20574
 Alpha  occ. eigenvalues --   -1.16547  -1.15131  -1.13773  -1.10637  -1.07525
 Alpha  occ. eigenvalues --   -1.06782  -1.01824  -0.99313  -0.96684  -0.92102
 Alpha  occ. eigenvalues --   -0.89471  -0.87998  -0.86674  -0.84535  -0.82633
 Alpha  occ. eigenvalues --   -0.78906  -0.76583  -0.76142  -0.75837  -0.75587
 Alpha  occ. eigenvalues --   -0.75204  -0.74788  -0.71544  -0.70758  -0.69263
 Alpha  occ. eigenvalues --   -0.67482  -0.67075  -0.65229  -0.64453  -0.64225
 Alpha  occ. eigenvalues --   -0.64067  -0.63753  -0.61596  -0.60560  -0.59197
 Alpha  occ. eigenvalues --   -0.57795  -0.57120  -0.56806  -0.56195  -0.55847
 Alpha  occ. eigenvalues --   -0.54592  -0.54137  -0.54082  -0.53695  -0.53024
 Alpha  occ. eigenvalues --   -0.52440  -0.51892  -0.51330  -0.50947  -0.50457
 Alpha  occ. eigenvalues --   -0.49941  -0.49748  -0.49299  -0.47748  -0.47078
 Alpha  occ. eigenvalues --   -0.46504  -0.46242  -0.46033  -0.45865  -0.45491
 Alpha  occ. eigenvalues --   -0.44854  -0.44845  -0.44531  -0.44182  -0.43654
 Alpha  occ. eigenvalues --   -0.43316  -0.42449  -0.41247  -0.41029  -0.40629
 Alpha  occ. eigenvalues --   -0.40518  -0.40323  -0.39977  -0.39847  -0.39667
 Alpha  occ. eigenvalues --   -0.38959  -0.37610  -0.36137  -0.34991  -0.33934
 Alpha  occ. eigenvalues --   -0.33521  -0.32350  -0.32111
 Alpha virt. eigenvalues --   -0.13187  -0.12943  -0.07850  -0.07296  -0.05793
 Alpha virt. eigenvalues --   -0.05268  -0.04439  -0.02245  -0.01629  -0.01387
 Alpha virt. eigenvalues --   -0.00351   0.01271   0.01729   0.02467   0.02784

 Mulliken charges:
               1
     1  N   -0.752290
     2  H    0.421521
     3  H    0.441014
     4  H    0.421817
     5  C   -0.276189
     6  H    0.247196
     7  H    0.246833
     8  C    0.642265
     9  O   -0.534615
    10  N   -0.602618
    11  H    0.375567
    12  C   -0.071760
    13  H    0.192468
    14  C    0.625997
    15  C   -0.257696
    16  H    0.156764
    17  H    0.150719
    18  O   -0.553788
    19  C   -0.103014
    20  H    0.155189
    21  C   -0.453484
    22  H    0.149527
    23  H    0.173111
    24  H    0.136088
    25  C   -0.447617
    26  H    0.144972
    27  H    0.146312
    28  H    0.164338
    29  N   -0.607442
    30  H    0.369826
    31  C   -0.071885
    32  H    0.169935
    33  C    0.638711
    34  C   -0.068881
    35  H    0.148164
    36  O   -0.559789
    37  C   -0.482611
    38  H    0.124346
    39  H    0.156910
    40  H    0.201079
    41  C   -0.442676
    42  H    0.148383
    43  H    0.156524
    44  H    0.134756
    45  N   -0.646546
    46  H    0.419173
    47  C   -0.020332
    48  H    0.182301
    49  C    0.600616
    50  C   -0.310523
    51  H    0.160683
    52  H    0.176123
    53  O   -0.459628
    54  C   -0.267103
    55  H    0.146449
    56  H    0.154746
    57  C   -0.280574
    58  H    0.156510
    59  H    0.141555
    60  C   -0.145294
    61  H    0.160952
    62  H    0.145197
    63  N   -0.759030
    64  H    0.323434
    65  H    0.313431
    66  O   -0.565376
    67  H    0.419258
 Sum of Mulliken charges =   1.00000

 Dipole moment (field-independent basis, Debye):
    X=            -16.3763    Y=              6.9107    Z=             12.0295  Tot=             21.4628
 Quadrupole moment (field-independent basis, Debye-Ang):
   XX=            -38.4530   YY=           -141.9660   ZZ=            -94.0908
   XY=             15.3507   XZ=            -94.2149   YZ=             -8.6288

 Normal termination of Gaussian 16 at Fri May 27 02:24:37 2022.
