 Gaussian 16, Revision C.01,
 Gaussian 16:  ES64L-G16RevC.01  3-Jul-2019

 -------------------------------------------------------------------
 # B3LYP/6-31G* guess=read geom=check nosymm integral(ultrafinegrid)
 -------------------------------------------------------------------

 ------------------------------------------------------
 Candidate Structure: Conf:306 Charge calc in gas phase
 ------------------------------------------------------
 Structure from the checkpoint file:  "conf-306.chk"
 Charge =  1 Multiplicity = 1

                          Input orientation:
 ---------------------------------------------------------------------
 Center     Atomic      Atomic             Coordinates (Angstroms)
 Number     Number       Type             X           Y           Z
 ---------------------------------------------------------------------
      1          7           0       -2.989839    1.133770    5.237400
      2          1           0       -3.834160    1.164327    5.815345
      3          1           0       -2.801981    0.128843    4.912956
      4          1           0       -2.201499    1.473183    5.795350
      5          6           0       -3.133361    1.838431    3.916343
      6          1           0       -2.333127    2.572634    3.806535
      7          1           0       -4.104351    2.333371    3.860495
      8          6           0       -2.961123    0.705391    2.875071
      9          8           0       -2.728778   -0.425387    3.314877
     10          7           0       -3.090136    1.036827    1.586167
     11          1           0       -3.111274    2.030735    1.380914
     12          6           0       -2.419474    0.226685    0.560404
     13          1           0       -2.694475   -0.815824    0.737439
     14          6           0       -0.886567    0.387926    0.793839
     15          6           0       -2.860447    0.676293   -0.843357
     16          1           0       -2.586314    1.734993   -0.967770
     17          1           0       -2.263345    0.129852   -1.583866
     18          8           0       -0.462622    1.194644    1.621957
     19          6           0       -4.357845    0.486329   -1.165591
     20          1           0       -4.942449    1.015411   -0.398034
     21          6           0       -4.676501    1.126534   -2.525438
     22          1           0       -4.119635    0.633801   -3.332008
     23          1           0       -5.743123    1.038141   -2.757084
     24          1           0       -4.416893    2.191650   -2.541859
     25          6           0       -4.775868   -0.991534   -1.146963
     26          1           0       -4.201515   -1.571229   -1.880661
     27          1           0       -4.635968   -1.457417   -0.164495
     28          1           0       -5.835521   -1.093489   -1.403852
     29          7           0       -0.118066   -0.426108    0.044747
     30          1           0       -0.526774   -0.940440   -0.732740
     31          6           0        1.330115   -0.300770   -0.078312
     32          1           0        1.606804    0.710545    0.240215
     33          6           0        1.629889   -0.484395   -1.582550
     34          6           0        2.113578   -1.328185    0.791581
     35          1           0        3.177235   -1.156318    0.571721
     36          8           0        0.779610   -0.957983   -2.338269
     37          6           0        1.896737   -1.068088    2.288584
     38          1           0        0.852881   -1.243491    2.571441
     39          1           0        2.522945   -1.743423    2.881887
     40          1           0        2.148158   -0.037605    2.561409
     41          6           0        1.779974   -2.780689    0.422779
     42          1           0        0.727281   -3.005355    0.630117
     43          1           0        2.388149   -3.470261    1.017259
     44          1           0        1.968342   -2.995359   -0.634305
     45          7           0        2.871081   -0.130280   -1.984087
     46          1           0        3.522522    0.277696   -1.326865
     47          6           0        3.330657   -0.314551   -3.361663
     48          1           0        2.785401   -1.164933   -3.776915
     49          6           0        4.810448   -0.671907   -3.380931
     50          6           0        3.050804    0.935865   -4.235157
     51          1           0        1.990471    1.176853   -4.092423
     52          1           0        3.628246    1.781906   -3.838359
     53          8           0        5.347039   -1.347681   -4.223711
     54          6           0        3.339184    0.742634   -5.729535
     55          1           0        2.759465   -0.114919   -6.099054
     56          1           0        4.393634    0.480789   -5.879813
     57          6           0        2.997305    1.986509   -6.561511
     58          1           0        1.938072    2.249128   -6.417603
     59          1           0        3.580369    2.846301   -6.197761
     60          6           0        3.267598    1.797311   -8.065145
     61          1           0        4.322782    1.533419   -8.214514
     62          1           0        2.685039    0.942772   -8.434040
     63          7           0        2.970065    2.942725   -8.925577
     64          1           0        1.991329    3.209479   -8.826123
     65          1           0        3.515723    3.751746   -8.631196
     66          8           0        5.488498   -0.084423   -2.357631
     67          1           0        6.427069   -0.331493   -2.464733
 ---------------------------------------------------------------------

 SCF Done:  E(RB3LYP) =  -1396.63140144     A.U. after    2 cycles

 Alpha  occ. eigenvalues --  -19.28935 -19.27876 -19.22162 -19.21728 -19.20788
 Alpha  occ. eigenvalues --  -14.62245 -14.50898 -14.45665 -14.45154 -14.35421
 Alpha  occ. eigenvalues --  -10.45560 -10.42449 -10.39918 -10.39266 -10.37857
 Alpha  occ. eigenvalues --  -10.35206 -10.32408 -10.31771 -10.29692 -10.28634
 Alpha  occ. eigenvalues --  -10.28275 -10.26248 -10.26070 -10.25718 -10.25403
 Alpha  occ. eigenvalues --  -10.25117 -10.25085 -10.24313 -10.23461  -1.21413
 Alpha  occ. eigenvalues --   -1.18469  -1.15894  -1.14018  -1.12601  -1.09504
 Alpha  occ. eigenvalues --   -1.07660  -1.02437  -1.01522  -0.92877  -0.92224
 Alpha  occ. eigenvalues --   -0.90299  -0.89285  -0.87041  -0.85197  -0.82485
 Alpha  occ. eigenvalues --   -0.79540  -0.77060  -0.76293  -0.76121  -0.76098
 Alpha  occ. eigenvalues --   -0.75592  -0.75334  -0.73552  -0.70134  -0.69622
 Alpha  occ. eigenvalues --   -0.67829  -0.67617  -0.66811  -0.65694  -0.65244
 Alpha  occ. eigenvalues --   -0.64172  -0.63998  -0.62916  -0.62162  -0.60176
 Alpha  occ. eigenvalues --   -0.59770  -0.57144  -0.56242  -0.56066  -0.55469
 Alpha  occ. eigenvalues --   -0.55385  -0.55194  -0.54306  -0.53942  -0.53613
 Alpha  occ. eigenvalues --   -0.53207  -0.52618  -0.52078  -0.51112  -0.50633
 Alpha  occ. eigenvalues --   -0.50337  -0.49415  -0.49018  -0.48371  -0.48118
 Alpha  occ. eigenvalues --   -0.47813  -0.47564  -0.46859  -0.46377  -0.46326
 Alpha  occ. eigenvalues --   -0.45689  -0.45515  -0.44407  -0.43795  -0.43295
 Alpha  occ. eigenvalues --   -0.42763  -0.42547  -0.42128  -0.42100  -0.41892
 Alpha  occ. eigenvalues --   -0.41683  -0.41496  -0.40735  -0.40656  -0.39594
 Alpha  occ. eigenvalues --   -0.39433  -0.38086  -0.36334  -0.35970  -0.35580
 Alpha  occ. eigenvalues --   -0.34618  -0.33183  -0.27397
 Alpha virt. eigenvalues --   -0.14118  -0.13316  -0.08110  -0.07992  -0.07383
 Alpha virt. eigenvalues --   -0.07031  -0.06017  -0.03222  -0.02241  -0.01365
 Alpha virt. eigenvalues --   -0.01273  -0.00477   0.00947   0.01094   0.02555

 Mulliken charges:
               1
     1  N   -0.749843
     2  H    0.422945
     3  H    0.441003
     4  H    0.426353
     5  C   -0.285057
     6  H    0.260911
     7  H    0.243418
     8  C    0.653300
     9  O   -0.515393
    10  N   -0.560483
    11  H    0.349493
    12  C   -0.097281
    13  H    0.208203
    14  C    0.637719
    15  C   -0.300612
    16  H    0.145013
    17  H    0.177101
    18  O   -0.559375
    19  C   -0.071924
    20  H    0.123354
    21  C   -0.447732
    22  H    0.158639
    23  H    0.162248
    24  H    0.145364
    25  C   -0.457188
    26  H    0.157556
    27  H    0.143132
    28  H    0.166175
    29  N   -0.602206
    30  H    0.364660
    31  C   -0.070539
    32  H    0.175595
    33  C    0.634008
    34  C   -0.074227
    35  H    0.135368
    36  O   -0.545063
    37  C   -0.445172
    38  H    0.148892
    39  H    0.155551
    40  H    0.149900
    41  C   -0.463811
    42  H    0.149690
    43  H    0.162004
    44  H    0.166931
    45  N   -0.622400
    46  H    0.355621
    47  C   -0.040380
    48  H    0.208447
    49  C    0.588320
    50  C   -0.268983
    51  H    0.160642
    52  H    0.143858
    53  O   -0.438377
    54  C   -0.271507
    55  H    0.147322
    56  H    0.160904
    57  C   -0.265107
    58  H    0.122278
    59  H    0.124768
    60  C   -0.142054
    61  H    0.147853
    62  H    0.145585
    63  N   -0.700121
    64  H    0.292027
    65  H    0.293616
    66  O   -0.586988
    67  H    0.426058
 Sum of Mulliken charges =   1.00000

 Dipole moment (field-independent basis, Debye):
    X=            -10.1043    Y=              7.9472    Z=             16.9161  Tot=             21.2464
 Quadrupole moment (field-independent basis, Debye-Ang):
   XX=           -101.7481   YY=           -160.0922   ZZ=           -101.1829
   XY=            -17.3986   XZ=            -47.4343   YZ=             17.9687

 Normal termination of Gaussian 16 at Fri May 27 02:24:42 2022.
