 Gaussian 16, Revision C.01,
 Gaussian 16:  ES64L-G16RevC.01  3-Jul-2019

 -------------------------------------------------------------------
 # B3LYP/6-31G* guess=read geom=check nosymm integral(ultrafinegrid)
 -------------------------------------------------------------------

 ------------------------------------------------------
 Candidate Structure: Conf:126 Charge calc in gas phase
 ------------------------------------------------------
 Structure from the checkpoint file:  "conf-126.chk"
 Charge =  1 Multiplicity = 1

                          Input orientation:
 ---------------------------------------------------------------------
 Center     Atomic      Atomic             Coordinates (Angstroms)
 Number     Number       Type             X           Y           Z
 ---------------------------------------------------------------------
      1          7           0       -5.611151    1.834711    3.960329
      2          1           0       -5.500402    1.720491    4.971358
      3          1           0       -6.442086    2.406936    3.788730
      4          1           0       -5.714923    0.871032    3.485924
      5          6           0       -4.374443    2.341560    3.270903
      6          1           0       -3.596489    2.545133    4.008785
      7          1           0       -4.604984    3.259839    2.728428
      8          6           0       -3.990227    1.176538    2.314140
      9          8           0       -4.738561    0.184251    2.331919
     10          7           0       -2.914742    1.357066    1.570404
     11          1           0       -2.277354    2.146764    1.722480
     12          6           0       -2.292584    0.357768    0.691743
     13          1           0       -2.524971   -0.638842    1.076958
     14          6           0       -0.779619    0.660497    0.807830
     15          6           0       -2.738325    0.503628   -0.781413
     16          1           0       -2.543036    1.541991   -1.080729
     17          1           0       -2.076235   -0.119081   -1.397452
     18          8           0       -0.411712    1.768360    1.214695
     19          6           0       -4.199342    0.132274   -1.103172
     20          1           0       -4.863470    0.725914   -0.457635
     21          6           0       -4.494502    0.511379   -2.563276
     22          1           0       -3.806155   -0.008224   -3.241048
     23          1           0       -5.518450    0.238538   -2.840998
     24          1           0       -4.375032    1.588545   -2.730241
     25          6           0       -4.493030   -1.354249   -0.852626
     26          1           0       -3.831076   -1.991033   -1.453114
     27          1           0       -4.374375   -1.629040    0.200876
     28          1           0       -5.524396   -1.594135   -1.133679
     29          7           0        0.036961   -0.320010    0.402105
     30          1           0       -0.326160   -1.193139    0.024182
     31          6           0        1.471161   -0.149878    0.174472
     32          1           0        1.639959    0.883265   -0.148495
     33          6           0        1.787551   -1.130360   -0.973092
     34          6           0        2.305594   -0.396629    1.467581
     35          1           0        1.844953    0.265416    2.212683
     36          8           0        1.092416   -2.135611   -1.132344
     37          6           0        2.204627   -1.841520    1.973879
     38          1           0        2.670862   -2.548290    1.278419
     39          1           0        2.714703   -1.937734    2.938307
     40          1           0        1.163257   -2.150439    2.113573
     41          6           0        3.766537    0.045374    1.296209
     42          1           0        4.310775   -0.583458    0.582848
     43          1           0        4.292960   -0.021279    2.254073
     44          1           0        3.836986    1.086608    0.957235
     45          7           0        2.825213   -0.804062   -1.774111
     46          1           0        3.437933   -0.034977   -1.527761
     47          6           0        3.312705   -1.683865   -2.829328
     48          1           0        3.007886   -2.706373   -2.584562
     49          6           0        4.834380   -1.598873   -2.811879
     50          6           0        2.763639   -1.317663   -4.231079
     51          1           0        3.076275   -0.291588   -4.470861
     52          1           0        3.252640   -1.975766   -4.959417
     53          8           0        5.466421   -0.766362   -2.195078
     54          6           0        1.239671   -1.444732   -4.351851
     55          1           0        0.742949   -0.779568   -3.638938
     56          1           0        0.936085   -2.464302   -4.080098
     57          6           0        0.744523   -1.123321   -5.767371
     58          1           0        1.063719   -0.108083   -6.050917
     59          1           0        1.220030   -1.800472   -6.490165
     60          6           0       -0.774013   -1.234182   -5.939799
     61          1           0       -1.011297   -1.132566   -7.012706
     62          1           0       -1.101824   -2.237652   -5.639223
     63          7           0       -1.491893   -0.261875   -5.094938
     64          1           0       -1.240599    0.680942   -5.395862
     65          1           0       -2.491240   -0.343031   -5.280101
     66          8           0        5.398338   -2.538875   -3.589244
     67          1           0        6.364568   -2.401202   -3.552272
 ---------------------------------------------------------------------

 SCF Done:  E(RB3LYP) =  -1396.64229663     A.U. after    2 cycles

 Alpha  occ. eigenvalues --  -19.28335 -19.27475 -19.22114 -19.22020 -19.20002
 Alpha  occ. eigenvalues --  -14.61783 -14.50325 -14.45453 -14.44298 -14.37671
 Alpha  occ. eigenvalues --  -10.45126 -10.42249 -10.39954 -10.39084 -10.37160
 Alpha  occ. eigenvalues --  -10.34794 -10.31773 -10.31415 -10.28395 -10.27804
 Alpha  occ. eigenvalues --  -10.27264 -10.26582 -10.25841 -10.25154 -10.25112
 Alpha  occ. eigenvalues --  -10.24591 -10.24351 -10.24125 -10.23899  -1.20747
 Alpha  occ. eigenvalues --   -1.18524  -1.15337  -1.14026  -1.11992  -1.09587
 Alpha  occ. eigenvalues --   -1.06992  -1.02151  -1.00798  -0.94045  -0.92334
 Alpha  occ. eigenvalues --   -0.89634  -0.88576  -0.86623  -0.84947  -0.82534
 Alpha  occ. eigenvalues --   -0.79190  -0.76447  -0.76050  -0.75893  -0.75750
 Alpha  occ. eigenvalues --   -0.75499  -0.75422  -0.71926  -0.70267  -0.69071
 Alpha  occ. eigenvalues --   -0.68450  -0.67548  -0.66196  -0.64954  -0.64256
 Alpha  occ. eigenvalues --   -0.64041  -0.63679  -0.62056  -0.61652  -0.59194
 Alpha  occ. eigenvalues --   -0.57794  -0.57097  -0.56873  -0.56041  -0.55454
 Alpha  occ. eigenvalues --   -0.55180  -0.54414  -0.53856  -0.53682  -0.53315
 Alpha  occ. eigenvalues --   -0.52963  -0.52297  -0.51554  -0.51216  -0.50691
 Alpha  occ. eigenvalues --   -0.50475  -0.49385  -0.48844  -0.48014  -0.47837
 Alpha  occ. eigenvalues --   -0.47723  -0.47501  -0.46372  -0.46165  -0.45627
 Alpha  occ. eigenvalues --   -0.44994  -0.44886  -0.44735  -0.43807  -0.43268
 Alpha  occ. eigenvalues --   -0.42295  -0.41793  -0.41503  -0.41308  -0.41086
 Alpha  occ. eigenvalues --   -0.40908  -0.40847  -0.40473  -0.39573  -0.39508
 Alpha  occ. eigenvalues --   -0.39236  -0.38823  -0.36182  -0.35649  -0.35209
 Alpha  occ. eigenvalues --   -0.33732  -0.33299  -0.29863
 Alpha virt. eigenvalues --   -0.13346  -0.13083  -0.07992  -0.07587  -0.06846
 Alpha virt. eigenvalues --   -0.05949  -0.05586  -0.02420  -0.01946  -0.00274
 Alpha virt. eigenvalues --    0.00348   0.00899   0.01018   0.01252   0.02194

 Mulliken charges:
               1
     1  N   -0.751582
     2  H    0.422519
     3  H    0.422244
     4  H    0.440735
     5  C   -0.278370
     6  H    0.248500
     7  H    0.248485
     8  C    0.639400
     9  O   -0.530356
    10  N   -0.586245
    11  H    0.373021
    12  C   -0.088655
    13  H    0.192531
    14  C    0.630843
    15  C   -0.263048
    16  H    0.150932
    17  H    0.179242
    18  O   -0.549878
    19  C   -0.070286
    20  H    0.113368
    21  C   -0.458487
    22  H    0.165969
    23  H    0.153299
    24  H    0.142667
    25  C   -0.460560
    26  H    0.155347
    27  H    0.153076
    28  H    0.156636
    29  N   -0.614393
    30  H    0.366510
    31  C   -0.053544
    32  H    0.174312
    33  C    0.631996
    34  C   -0.074050
    35  H    0.154015
    36  O   -0.545088
    37  C   -0.454324
    38  H    0.162073
    39  H    0.156671
    40  H    0.144288
    41  C   -0.474700
    42  H    0.164192
    43  H    0.164533
    44  H    0.149594
    45  N   -0.607726
    46  H    0.357408
    47  C   -0.053686
    48  H    0.205098
    49  C    0.587904
    50  C   -0.266696
    51  H    0.142215
    52  H    0.167005
    53  O   -0.467491
    54  C   -0.248282
    55  H    0.156147
    56  H    0.148106
    57  C   -0.266727
    58  H    0.127793
    59  H    0.141725
    60  C   -0.138875
    61  H    0.127222
    62  H    0.145368
    63  N   -0.727158
    64  H    0.293766
    65  H    0.302837
    66  O   -0.555673
    67  H    0.426286
 Sum of Mulliken charges =   1.00000

 Dipole moment (field-independent basis, Debye):
    X=            -16.3691    Y=              7.0839    Z=              8.8381  Tot=             19.9058
 Quadrupole moment (field-independent basis, Debye-Ang):
   XX=            -43.5607   YY=           -156.7336   ZZ=            -83.1174
   XY=            -55.6745   XZ=            -82.7383   YZ=             34.0116

 Normal termination of Gaussian 16 at Fri May 27 02:24:47 2022.
