 Gaussian 16, Revision C.01,
 Gaussian 16:  ES64L-G16RevC.01  3-Jul-2019

 -------------------------------------------------------------------
 # B3LYP/6-31G* guess=read geom=check nosymm integral(ultrafinegrid)
 -------------------------------------------------------------------

 ------------------------------------------------------
 Candidate Structure: Conf:252 Charge calc in gas phase
 ------------------------------------------------------
 Structure from the checkpoint file:  "conf-252.chk"
 Charge =  1 Multiplicity = 1

                          Input orientation:
 ---------------------------------------------------------------------
 Center     Atomic      Atomic             Coordinates (Angstroms)
 Number     Number       Type             X           Y           Z
 ---------------------------------------------------------------------
      1          7           0       -6.006569    2.389100    2.834683
      2          1           0       -6.076852    2.194452    3.837167
      3          1           0       -6.763333    3.027987    2.576176
      4          1           0       -6.083782    1.473370    2.273397
      5          6           0       -4.644246    2.860615    2.405424
      6          1           0       -3.994234    2.954718    3.277143
      7          1           0       -4.728639    3.830855    1.913296
      8          6           0       -4.164375    1.748543    1.429428
      9          8           0       -4.953435    0.808798    1.237608
     10          7           0       -2.969927    1.916842    0.889633
     11          1           0       -2.324255    2.638203    1.229501
     12          6           0       -2.256751    0.940524    0.055294
     13          1           0       -2.608927   -0.061628    0.315544
     14          6           0       -0.774201    1.122644    0.467520
     15          6           0       -2.431254    1.210229   -1.456726
     16          1           0       -2.102607    2.240413   -1.648115
     17          1           0       -1.728704    0.558609   -1.993801
     18          8           0       -0.433708    2.145446    1.070896
     19          6           0       -3.845212    0.996178   -2.034036
     20          1           0       -4.551408    1.607104   -1.452791
     21          6           0       -3.881353    1.495687   -3.487140
     22          1           0       -3.190573    0.921443   -4.116988
     23          1           0       -4.884643    1.385339   -3.912349
     24          1           0       -3.599665    2.552803   -3.558946
     25          6           0       -4.296932   -0.469287   -1.948703
     26          1           0       -3.602095   -1.125627   -2.488083
     27          1           0       -4.373341   -0.821271   -0.914772
     28          1           0       -5.285030   -0.592734   -2.405187
     29          7           0        0.052041    0.127854    0.110354
     30          1           0       -0.272168   -0.627477   -0.489026
     31          6           0        1.511408    0.188809    0.209831
     32          1           0        1.788415    1.236090    0.369081
     33          6           0        2.006932   -0.328667   -1.157727
     34          6           0        2.052014   -0.675419    1.388360
     35          1           0        1.810402   -1.720481    1.148525
     36          8           0        1.354810   -1.189219   -1.749765
     37          6           0        3.576720   -0.547481    1.531201
     38          1           0        3.865328    0.490335    1.746532
     39          1           0        3.924542   -1.159869    2.369502
     40          1           0        4.118028   -0.873357    0.639018
     41          6           0        1.360323   -0.306385    2.708715
     42          1           0        1.534001    0.744793    2.966904
     43          1           0        1.755599   -0.924564    3.521818
     44          1           0        0.279552   -0.470128    2.661762
     45          7           0        3.147527    0.218123   -1.642950
     46          1           0        3.660003    0.875831   -1.070562
     47          6           0        3.781933   -0.248650   -2.872233
     48          1           0        3.241084   -1.150592   -3.172055
     49          6           0        5.238605   -0.656051   -2.662149
     50          6           0        3.707223    0.784936   -4.021448
     51          1           0        4.207986    1.710914   -3.703762
     52          1           0        4.295109    0.378994   -4.851230
     53          8           0        5.894012   -1.239134   -3.490641
     54          6           0        2.273499    1.094225   -4.469278
     55          1           0        1.697548    1.454905   -3.607658
     56          1           0        1.784532    0.163978   -4.790613
     57          6           0        2.192294    2.137756   -5.596025
     58          1           0        1.137574    2.414581   -5.739413
     59          1           0        2.707905    3.056716   -5.279376
     60          6           0        2.765317    1.688858   -6.957371
     61          1           0        2.698724    2.533647   -7.653999
     62          1           0        3.834881    1.463240   -6.863437
     63          7           0        2.129203    0.537697   -7.598508
     64          1           0        2.238993   -0.302501   -7.034277
     65          1           0        1.127145    0.694443   -7.697526
     66          8           0        5.740124   -0.250853   -1.467351
     67          1           0        6.676322   -0.529411   -1.452177
 ---------------------------------------------------------------------

 SCF Done:  E(RB3LYP) =  -1396.63220216     A.U. after    1 cycles

 Alpha  occ. eigenvalues --  -19.28874 -19.27843 -19.22949 -19.21466 -19.20730
 Alpha  occ. eigenvalues --  -14.62299 -14.50877 -14.46422 -14.45367 -14.36178
 Alpha  occ. eigenvalues --  -10.45680 -10.42737 -10.39983 -10.39794 -10.37977
 Alpha  occ. eigenvalues --  -10.35585 -10.32638 -10.31841 -10.29369 -10.28523
 Alpha  occ. eigenvalues --  -10.28150 -10.26349 -10.25782 -10.25767 -10.25738
 Alpha  occ. eigenvalues --  -10.25354 -10.25333 -10.25105 -10.24079  -1.21277
 Alpha  occ. eigenvalues --   -1.18388  -1.15887  -1.14863  -1.12702  -1.09352
 Alpha  occ. eigenvalues --   -1.07572  -1.03033  -1.01661  -0.92978  -0.92948
 Alpha  occ. eigenvalues --   -0.90283  -0.89330  -0.87160  -0.85638  -0.82684
 Alpha  occ. eigenvalues --   -0.79824  -0.77147  -0.76672  -0.76293  -0.76221
 Alpha  occ. eigenvalues --   -0.75959  -0.75700  -0.72457  -0.70366  -0.69919
 Alpha  occ. eigenvalues --   -0.68547  -0.68167  -0.67814  -0.65928  -0.65581
 Alpha  occ. eigenvalues --   -0.64472  -0.63643  -0.62491  -0.61965  -0.60236
 Alpha  occ. eigenvalues --   -0.59244  -0.57781  -0.57458  -0.56323  -0.55926
 Alpha  occ. eigenvalues --   -0.54989  -0.54765  -0.54470  -0.54164  -0.53997
 Alpha  occ. eigenvalues --   -0.53218  -0.52620  -0.52061  -0.51729  -0.50969
 Alpha  occ. eigenvalues --   -0.50103  -0.49566  -0.49120  -0.48544  -0.48401
 Alpha  occ. eigenvalues --   -0.47849  -0.47430  -0.47030  -0.46914  -0.46724
 Alpha  occ. eigenvalues --   -0.45937  -0.45548  -0.45351  -0.43877  -0.43790
 Alpha  occ. eigenvalues --   -0.43254  -0.42851  -0.42492  -0.42047  -0.41937
 Alpha  occ. eigenvalues --   -0.41734  -0.41464  -0.40482  -0.40243  -0.39626
 Alpha  occ. eigenvalues --   -0.39358  -0.38347  -0.37110  -0.36667  -0.36088
 Alpha  occ. eigenvalues --   -0.34394  -0.33144  -0.28105
 Alpha virt. eigenvalues --   -0.13891  -0.13527  -0.08660  -0.08067  -0.06796
 Alpha virt. eigenvalues --   -0.06489  -0.06364  -0.02957  -0.02495  -0.01149
 Alpha virt. eigenvalues --   -0.00926   0.00462   0.01080   0.01268   0.01334

 Mulliken charges:
               1
     1  N   -0.750971
     2  H    0.423608
     3  H    0.423468
     4  H    0.440894
     5  C   -0.278804
     6  H    0.249348
     7  H    0.249532
     8  C    0.637926
     9  O   -0.527628
    10  N   -0.586335
    11  H    0.373847
    12  C   -0.089486
    13  H    0.195466
    14  C    0.631395
    15  C   -0.261696
    16  H    0.152796
    17  H    0.164679
    18  O   -0.546115
    19  C   -0.071596
    20  H    0.115603
    21  C   -0.447612
    22  H    0.155367
    23  H    0.158841
    24  H    0.146076
    25  C   -0.460558
    26  H    0.152558
    27  H    0.155467
    28  H    0.159935
    29  N   -0.605782
    30  H    0.362289
    31  C   -0.063038
    32  H    0.174195
    33  C    0.624478
    34  C   -0.073284
    35  H    0.149550
    36  O   -0.537757
    37  C   -0.477982
    38  H    0.144407
    39  H    0.166231
    40  H    0.169758
    41  C   -0.445824
    42  H    0.157765
    43  H    0.159805
    44  H    0.137700
    45  N   -0.596569
    46  H    0.349656
    47  C   -0.070682
    48  H    0.218676
    49  C    0.594949
    50  C   -0.272215
    51  H    0.140969
    52  H    0.183691
    53  O   -0.440206
    54  C   -0.260288
    55  H    0.129439
    56  H    0.135128
    57  C   -0.265595
    58  H    0.124841
    59  H    0.129913
    60  C   -0.148562
    61  H    0.151719
    62  H    0.149795
    63  N   -0.700776
    64  H    0.298035
    65  H    0.292707
    66  O   -0.578941
    67  H    0.425801
 Sum of Mulliken charges =   1.00000

 Dipole moment (field-independent basis, Debye):
    X=            -17.9233    Y=             11.8147    Z=             10.6403  Tot=             23.9594
 Quadrupole moment (field-independent basis, Debye-Ang):
   XX=            -30.3595   YY=           -147.2976   ZZ=           -154.4233
   XY=            -54.0438   XZ=            -46.8798   YZ=             16.4265

 Normal termination of Gaussian 16 at Fri May 27 02:24:35 2022.
