 Gaussian 16, Revision C.01,
 Gaussian 16:  ES64L-G16RevC.01  3-Jul-2019

 -------------------------------------------------------------------
 # B3LYP/6-31G* guess=read geom=check nosymm integral(ultrafinegrid)
 -------------------------------------------------------------------

 ------------------------------------------------------
 Candidate Structure: Conf:503 Charge calc in gas phase
 ------------------------------------------------------
 Structure from the checkpoint file:  "conf-503.chk"
 Charge =  1 Multiplicity = 1

                          Input orientation:
 ---------------------------------------------------------------------
 Center     Atomic      Atomic             Coordinates (Angstroms)
 Number     Number       Type             X           Y           Z
 ---------------------------------------------------------------------
      1          7           0       -5.319876   -0.411607    4.148628
      2          1           0       -5.976902    0.271022    4.535779
      3          1           0       -5.515810   -0.565668    3.100268
      4          1           0       -5.429110   -1.291250    4.660469
      5          6           0       -3.899925    0.080982    4.091139
      6          1           0       -3.253944   -0.585022    4.665932
      7          1           0       -3.841984    1.087314    4.508982
      8          6           0       -3.567996    0.057746    2.571566
      9          8           0       -4.479250   -0.321230    1.817071
     10          7           0       -2.354930    0.454205    2.230145
     11          1           0       -1.618401    0.593491    2.931294
     12          6           0       -1.772139    0.385216    0.883437
     13          1           0       -2.264029   -0.421439    0.332663
     14          6           0       -0.284900    0.039068    1.148435
     15          6           0       -1.883126    1.723283    0.117777
     16          1           0       -1.408603    2.497104    0.735804
     17          1           0       -1.271581    1.637814   -0.790681
     18          8           0        0.183374    0.206015    2.279563
     19          6           0       -3.303844    2.171029   -0.281281
     20          1           0       -3.925319    2.196243    0.625958
     21          6           0       -3.245900    3.598555   -0.847996
     22          1           0       -2.633366    3.635512   -1.757383
     23          1           0       -4.247880    3.954764   -1.110304
     24          1           0       -2.816171    4.303286   -0.126388
     25          6           0       -3.960209    1.211163   -1.284662
     26          1           0       -3.357078    1.126218   -2.197610
     27          1           0       -4.101669    0.208208   -0.868885
     28          1           0       -4.948639    1.581062   -1.578299
     29          7           0        0.400229   -0.414853    0.088686
     30          1           0       -0.014629   -0.403040   -0.840810
     31          6           0        1.854003   -0.581784    0.052176
     32          1           0        2.273981   -0.040431    0.906195
     33          6           0        2.275898    0.063482   -1.285942
     34          6           0        2.271787   -2.081393    0.134115
     35          1           0        1.883150   -2.566619   -0.772469
     36          8           0        1.496966    0.048851   -2.241916
     37          6           0        3.799580   -2.247922    0.160068
     38          1           0        4.237178   -1.746174    1.033374
     39          1           0        4.057428   -3.309349    0.233623
     40          1           0        4.287034   -1.854969   -0.736337
     41          6           0        1.642865   -2.763598    1.357849
     42          1           0        1.967276   -2.284229    2.288756
     43          1           0        1.945480   -3.815568    1.395041
     44          1           0        0.549749   -2.732616    1.323733
     45          7           0        3.501521    0.625703   -1.332788
     46          1           0        4.147629    0.527110   -0.557271
     47          6           0        4.081552    1.125577   -2.575354
     48          1           0        3.752795    0.476076   -3.394474
     49          6           0        5.592862    0.998278   -2.435289
     50          6           0        3.652437    2.573450   -2.914098
     51          1           0        4.051456    2.814377   -3.906145
     52          1           0        2.560024    2.566010   -3.002478
     53          8           0        6.161514    0.681358   -1.410504
     54          6           0        4.101957    3.630537   -1.898538
     55          1           0        5.198631    3.634205   -1.835934
     56          1           0        3.725698    3.365873   -0.899482
     57          6           0        3.622903    5.039182   -2.273020
     58          1           0        4.023130    5.307468   -3.258880
     59          1           0        2.526403    5.041565   -2.356340
     60          6           0        4.042682    6.122471   -1.272302
     61          1           0        3.649302    7.084853   -1.619457
     62          1           0        3.561881    5.921422   -0.296003
     63          7           0        5.503944    6.243583   -1.197966
     64          1           0        5.756946    7.121954   -0.750082
     65          1           0        5.889325    5.509962   -0.606424
     66          8           0        6.226290    1.297555   -3.580266
     67          1           0        7.184817    1.218819   -3.410630
 ---------------------------------------------------------------------

 SCF Done:  E(RB3LYP) =  -1396.63850674     A.U. after    1 cycles

 Alpha  occ. eigenvalues --  -19.28636 -19.27601 -19.22589 -19.22222 -19.20241
 Alpha  occ. eigenvalues --  -14.62070 -14.50599 -14.45967 -14.44457 -14.36206
 Alpha  occ. eigenvalues --  -10.45427 -10.42507 -10.40142 -10.39600 -10.37355
 Alpha  occ. eigenvalues --  -10.35262 -10.32134 -10.31566 -10.29054 -10.28249
 Alpha  occ. eigenvalues --  -10.27781 -10.25954 -10.25632 -10.25511 -10.25507
 Alpha  occ. eigenvalues --  -10.24980 -10.24978 -10.24504 -10.23451  -1.21038
 Alpha  occ. eigenvalues --   -1.18709  -1.15643  -1.14496  -1.12180  -1.09793
 Alpha  occ. eigenvalues --   -1.07296  -1.02609  -1.00944  -0.92955  -0.92695
 Alpha  occ. eigenvalues --   -0.90004  -0.88952  -0.86825  -0.85335  -0.82362
 Alpha  occ. eigenvalues --   -0.79522  -0.76871  -0.76404  -0.76008  -0.75923
 Alpha  occ. eigenvalues --   -0.75724  -0.75570  -0.72251  -0.70519  -0.69726
 Alpha  occ. eigenvalues --   -0.68465  -0.67882  -0.65729  -0.65333  -0.65238
 Alpha  occ. eigenvalues --   -0.64203  -0.62935  -0.62309  -0.61982  -0.59879
 Alpha  occ. eigenvalues --   -0.58140  -0.57500  -0.57108  -0.56556  -0.55323
 Alpha  occ. eigenvalues --   -0.55050  -0.54435  -0.54228  -0.53999  -0.53838
 Alpha  occ. eigenvalues --   -0.53098  -0.52467  -0.52208  -0.51600  -0.50707
 Alpha  occ. eigenvalues --   -0.50235  -0.49588  -0.48692  -0.48193  -0.48078
 Alpha  occ. eigenvalues --   -0.47660  -0.47044  -0.46792  -0.46579  -0.46277
 Alpha  occ. eigenvalues --   -0.45585  -0.45261  -0.44663  -0.43558  -0.43489
 Alpha  occ. eigenvalues --   -0.42913  -0.42525  -0.42098  -0.41733  -0.41573
 Alpha  occ. eigenvalues --   -0.41450  -0.41076  -0.39966  -0.39828  -0.39384
 Alpha  occ. eigenvalues --   -0.39136  -0.38236  -0.36720  -0.35971  -0.35563
 Alpha  occ. eigenvalues --   -0.33940  -0.33618  -0.28456
 Alpha virt. eigenvalues --   -0.13650  -0.13323  -0.08291  -0.07830  -0.07078
 Alpha virt. eigenvalues --   -0.06205  -0.05862  -0.02712  -0.02243  -0.00438
 Alpha virt. eigenvalues --    0.00077   0.00818   0.01161   0.01518   0.02426

 Mulliken charges:
               1
     1  N   -0.751183
     2  H    0.422980
     3  H    0.440761
     4  H    0.423201
     5  C   -0.278773
     6  H    0.249184
     7  H    0.249146
     8  C    0.637894
     9  O   -0.528365
    10  N   -0.586048
    11  H    0.373762
    12  C   -0.089796
    13  H    0.195126
    14  C    0.630844
    15  C   -0.261654
    16  H    0.152466
    17  H    0.165810
    18  O   -0.546559
    19  C   -0.071466
    20  H    0.114834
    21  C   -0.447652
    22  H    0.156857
    23  H    0.157838
    24  H    0.145610
    25  C   -0.460410
    26  H    0.153054
    27  H    0.155102
    28  H    0.159027
    29  N   -0.605365
    30  H    0.362196
    31  C   -0.063242
    32  H    0.177095
    33  C    0.622247
    34  C   -0.073667
    35  H    0.146916
    36  O   -0.543786
    37  C   -0.470210
    38  H    0.150680
    39  H    0.166378
    40  H    0.161204
    41  C   -0.445223
    42  H    0.158405
    43  H    0.158605
    44  H    0.137426
    45  N   -0.608273
    46  H    0.360520
    47  C   -0.044934
    48  H    0.203506
    49  C    0.589760
    50  C   -0.268294
    51  H    0.170262
    52  H    0.165481
    53  O   -0.472232
    54  C   -0.280425
    55  H    0.150589
    56  H    0.126295
    57  C   -0.234694
    58  H    0.152358
    59  H    0.122260
    60  C   -0.146025
    61  H    0.145742
    62  H    0.108517
    63  N   -0.715140
    64  H    0.304674
    65  H    0.296768
    66  O   -0.555554
    67  H    0.427590
 Sum of Mulliken charges =   1.00000

 Dipole moment (field-independent basis, Debye):
    X=            -13.6720    Y=              1.2060    Z=             14.7518  Tot=             20.1493
 Quadrupole moment (field-independent basis, Debye-Ang):
   XX=            -53.2395   YY=           -154.4476   ZZ=           -102.1631
   XY=              7.7384   XZ=            -90.8768   YZ=             -3.1270

 Normal termination of Gaussian 16 at Fri May 27 02:40:54 2022.
