 Gaussian 16, Revision C.01,
 Gaussian 16:  ES64L-G16RevC.01  3-Jul-2019

 -------------------------------------------------------------------
 # B3LYP/6-31G* guess=read geom=check nosymm integral(ultrafinegrid)
 -------------------------------------------------------------------

 ------------------------------------------------------
 Candidate Structure: Conf:203 Charge calc in gas phase
 ------------------------------------------------------
 Structure from the checkpoint file:  "conf-203.chk"
 Charge =  1 Multiplicity = 1

                          Input orientation:
 ---------------------------------------------------------------------
 Center     Atomic      Atomic             Coordinates (Angstroms)
 Number     Number       Type             X           Y           Z
 ---------------------------------------------------------------------
      1          7           0       -5.658598    0.234729    4.281934
      2          1           0       -5.563277   -0.463311    5.024501
      3          1           0       -6.431414    0.860507    4.524442
      4          1           0       -5.853052   -0.250265    3.340012
      5          6           0       -4.376849    0.953300    3.960751
      6          1           0       -3.586227    0.617378    4.634050
      7          1           0       -4.517754    2.028781    4.079744
      8          6           0       -4.098943    0.558955    2.481920
      9          8           0       -4.933670   -0.189697    1.947622
     10          7           0       -3.009443    1.067379    1.933698
     11          1           0       -2.297692    1.545260    2.497354
     12          6           0       -2.474601    0.730549    0.607668
     13          1           0       -2.802367   -0.279725    0.346985
     14          6           0       -0.939552    0.771974    0.811518
     15          6           0       -2.897041    1.745038   -0.479619
     16          1           0       -2.583178    2.741140   -0.140248
     17          1           0       -2.309253    1.529045   -1.382103
     18          8           0       -0.473739    1.346422    1.800716
     19          6           0       -4.392764    1.766614   -0.854553
     20          1           0       -4.976622    1.925314    0.064000
     21          6           0       -4.664188    2.954086   -1.791876
     22          1           0       -4.105061    2.849311   -2.730007
     23          1           0       -5.727562    3.014034   -2.047236
     24          1           0       -4.373902    3.906626   -1.333055
     25          6           0       -4.855279    0.449192   -1.494389
     26          1           0       -4.276187    0.228935   -2.400229
     27          1           0       -4.763166   -0.400289   -0.809750
     28          1           0       -5.908884    0.514640   -1.786985
     29          7           0       -0.213910    0.172455   -0.145088
     30          1           0       -0.659424   -0.165503   -0.995407
     31          6           0        1.237637    0.301070   -0.282004
     32          1           0        1.558799    1.128296    0.359819
     33          6           0        1.448249    0.629621   -1.775660
     34          6           0        1.979146   -1.001095    0.143330
     35          1           0        1.648727   -1.790644   -0.546165
     36          8           0        0.668463    0.178154   -2.615384
     37          6           0        3.503789   -0.855620    0.018672
     38          1           0        3.877081   -0.041008    0.654171
     39          1           0        3.995403   -1.775615    0.350588
     40          1           0        3.824220   -0.665295   -1.009514
     41          6           0        1.596179   -1.410058    1.572951
     42          1           0        1.875334   -0.634231    2.295503
     43          1           0        2.116499   -2.333253    1.849510
     44          1           0        0.521650   -1.591464    1.669553
     45          7           0        2.497999    1.418438   -2.093858
     46          1           0        3.061297    1.808046   -1.351659
     47          6           0        2.817953    1.786078   -3.478843
     48          1           0        3.571030    2.580684   -3.399208
     49          6           0        1.607393    2.436321   -4.166060
     50          6           0        3.404860    0.620055   -4.295918
     51          1           0        4.076035    0.063589   -3.629062
     52          1           0        2.592221   -0.057050   -4.576670
     53          8           0        1.283301    2.265975   -5.316060
     54          6           0        4.188179    1.062959   -5.540017
     55          1           0        4.986708    1.758222   -5.237643
     56          1           0        3.522758    1.615615   -6.211514
     57          6           0        4.809608   -0.124801   -6.285066
     58          1           0        5.475459   -0.690389   -5.620336
     59          1           0        4.011091   -0.818640   -6.588271
     60          6           0        5.607412    0.292215   -7.523079
     61          1           0        4.953495    0.881392   -8.193025
     62          1           0        6.422455    0.961449   -7.217587
     63          7           0        6.215003   -0.882170   -8.158037
     64          1           0        5.485161   -1.463132   -8.569841
     65          1           0        6.807155   -0.588518   -8.933201
     66          8           0        0.972465    3.308173   -3.344452
     67          1           0        0.259842    3.702469   -3.882372
 ---------------------------------------------------------------------

 SCF Done:  E(RB3LYP) =  -1396.63044168     A.U. after    1 cycles

 Alpha  occ. eigenvalues --  -19.28777 -19.26475 -19.22847 -19.20805 -19.20736
 Alpha  occ. eigenvalues --  -14.62205 -14.50782 -14.46271 -14.45413 -14.34815
 Alpha  occ. eigenvalues --  -10.45582 -10.42646 -10.39858 -10.39053 -10.37777
 Alpha  occ. eigenvalues --  -10.35455 -10.32577 -10.31949 -10.29214 -10.28393
 Alpha  occ. eigenvalues --  -10.28143 -10.25679 -10.25624 -10.25525 -10.25287
 Alpha  occ. eigenvalues --  -10.24789 -10.24567 -10.23284 -10.22316  -1.21183
 Alpha  occ. eigenvalues --   -1.17446  -1.15790  -1.14757  -1.12672  -1.08405
 Alpha  occ. eigenvalues --   -1.07474  -1.02928  -1.01481  -0.92864  -0.91572
 Alpha  occ. eigenvalues --   -0.90176  -0.89222  -0.86383  -0.85541  -0.81895
 Alpha  occ. eigenvalues --   -0.79475  -0.77012  -0.76556  -0.76337  -0.76133
 Alpha  occ. eigenvalues --   -0.75862  -0.74792  -0.72390  -0.70483  -0.69004
 Alpha  occ. eigenvalues --   -0.68166  -0.67733  -0.66063  -0.65476  -0.64546
 Alpha  occ. eigenvalues --   -0.63845  -0.63187  -0.62483  -0.62251  -0.60117
 Alpha  occ. eigenvalues --   -0.58653  -0.57678  -0.57651  -0.56683  -0.55391
 Alpha  occ. eigenvalues --   -0.54797  -0.54424  -0.54033  -0.53719  -0.52836
 Alpha  occ. eigenvalues --   -0.52593  -0.51856  -0.51791  -0.50878  -0.50145
 Alpha  occ. eigenvalues --   -0.49652  -0.49172  -0.48759  -0.48343  -0.48310
 Alpha  occ. eigenvalues --   -0.47624  -0.47250  -0.46790  -0.46692  -0.46062
 Alpha  occ. eigenvalues --   -0.45772  -0.45402  -0.44123  -0.43697  -0.42940
 Alpha  occ. eigenvalues --   -0.42542  -0.42434  -0.41932  -0.41855  -0.41613
 Alpha  occ. eigenvalues --   -0.41449  -0.40383  -0.40126  -0.39200  -0.38581
 Alpha  occ. eigenvalues --   -0.38123  -0.37360  -0.36950  -0.36203  -0.35332
 Alpha  occ. eigenvalues --   -0.34176  -0.33054  -0.27057
 Alpha virt. eigenvalues --   -0.13792  -0.13444  -0.08592  -0.07994  -0.06877
 Alpha virt. eigenvalues --   -0.06333  -0.05841  -0.02857  -0.02382  -0.01033
 Alpha virt. eigenvalues --   -0.00661   0.00663   0.00993   0.01324   0.02347

 Mulliken charges:
               1
     1  N   -0.751053
     2  H    0.423467
     3  H    0.423312
     4  H    0.440903
     5  C   -0.278779
     6  H    0.249238
     7  H    0.249407
     8  C    0.638122
     9  O   -0.527773
    10  N   -0.586419
    11  H    0.373739
    12  C   -0.089940
    13  H    0.195616
    14  C    0.631380
    15  C   -0.262134
    16  H    0.152899
    17  H    0.166241
    18  O   -0.545488
    19  C   -0.071434
    20  H    0.115303
    21  C   -0.447726
    22  H    0.155192
    23  H    0.158901
    24  H    0.145431
    25  C   -0.460716
    26  H    0.154068
    27  H    0.154972
    28  H    0.159648
    29  N   -0.604324
    30  H    0.363111
    31  C   -0.067432
    32  H    0.174308
    33  C    0.639948
    34  C   -0.071895
    35  H    0.150081
    36  O   -0.540408
    37  C   -0.474363
    38  H    0.143334
    39  H    0.169827
    40  H    0.164613
    41  C   -0.445402
    42  H    0.157386
    43  H    0.159913
    44  H    0.139671
    45  N   -0.605230
    46  H    0.343503
    47  C   -0.046334
    48  H    0.178696
    49  C    0.612874
    50  C   -0.260311
    51  H    0.140799
    52  H    0.180445
    53  O   -0.446892
    54  C   -0.279799
    55  H    0.123867
    56  H    0.171055
    57  C   -0.249266
    58  H    0.145280
    59  H    0.131373
    60  C   -0.135610
    61  H    0.117065
    62  H    0.137863
    63  N   -0.716526
    64  H    0.293906
    65  H    0.300320
    66  O   -0.576932
    67  H    0.415105
 Sum of Mulliken charges =   1.00000

 Dipole moment (field-independent basis, Debye):
    X=            -16.8325    Y=              4.8110    Z=             14.1764  Tot=             22.5267
 Quadrupole moment (field-independent basis, Debye-Ang):
   XX=            -51.5296   YY=           -161.6444   ZZ=            -87.4839
   XY=             -6.4615   XZ=            -96.8470   YZ=             -2.7384

 Normal termination of Gaussian 16 at Fri May 27 02:24:35 2022.
