 Gaussian 16, Revision C.01,
 Gaussian 16:  ES64L-G16RevC.01  3-Jul-2019

 -------------------------------------------------------------------
 # B3LYP/6-31G* guess=read geom=check nosymm integral(ultrafinegrid)
 -------------------------------------------------------------------

 ------------------------------------------------------
 Candidate Structure: Conf:474 Charge calc in gas phase
 ------------------------------------------------------
 Structure from the checkpoint file:  "conf-474.chk"
 Charge =  1 Multiplicity = 1

                          Input orientation:
 ---------------------------------------------------------------------
 Center     Atomic      Atomic             Coordinates (Angstroms)
 Number     Number       Type             X           Y           Z
 ---------------------------------------------------------------------
      1          7           0       -6.254660    0.078451    3.796811
      2          1           0       -6.228074   -0.609540    4.554221
      3          1           0       -7.086064    0.662511    3.920141
      4          1           0       -6.287400   -0.421419    2.842789
      5          6           0       -4.980291    0.863729    3.649749
      6          1           0       -4.276915    0.577198    4.433582
      7          1           0       -5.193930    1.930730    3.730619
      8          6           0       -4.474197    0.473683    2.231462
      9          8           0       -5.185187   -0.321747    1.595078
     10          7           0       -3.345019    1.034480    1.836761
     11          1           0       -2.746260    1.552528    2.489452
     12          6           0       -2.608338    0.716617    0.606209
     13          1           0       -2.843018   -0.311259    0.316023
     14          6           0       -1.122616    0.839813    1.027291
     15          6           0       -2.920195    1.700291   -0.545019
     16          1           0       -2.710024    2.713799   -0.178151
     17          1           0       -2.198140    1.509969   -1.350639
     18          8           0       -0.835046    1.443940    2.065135
     19          6           0       -4.345313    1.641346   -1.131294
     20          1           0       -5.063233    1.776053   -0.308837
     21          6           0       -4.537795    2.806249   -2.115343
     22          1           0       -3.842026    2.725807   -2.959694
     23          1           0       -5.554136    2.807645   -2.523695
     24          1           0       -4.367393    3.775818   -1.632674
     25          6           0       -4.643368    0.296908   -1.811402
     26          1           0       -3.929024    0.100690   -2.621109
     27          1           0       -4.607904   -0.541564   -1.108119
     28          1           0       -5.645706    0.304973   -2.253339
     29          7           0       -0.237547    0.272167    0.191629
     30          1           0       -0.542691   -0.045096   -0.727143
     31          6           0        1.202305    0.514381    0.240981
     32          1           0        1.369335    1.422033    0.830770
     33          6           0        1.626784    0.749956   -1.225211
     34          6           0        2.001985   -0.655485    0.887430
     35          1           0        3.062045   -0.375193    0.808202
     36          8           0        0.878856    0.434204   -2.152094
     37          6           0        1.666626   -0.799387    2.378008
     38          1           0        0.623944   -1.104774    2.520396
     39          1           0        2.303654   -1.564389    2.834873
     40          1           0        1.816071    0.139692    2.920938
     41          6           0        1.805784   -1.981396    0.138480
     42          1           0        0.762888   -2.314724    0.196665
     43          1           0        2.428030   -2.762728    0.586687
     44          1           0        2.075710   -1.905488   -0.920109
     45          7           0        2.851194    1.298161   -1.395306
     46          1           0        3.467756    1.395376   -0.595475
     47          6           0        3.524231    1.354824   -2.688680
     48          1           0        3.017925    0.656136   -3.362132
     49          6           0        4.957197    0.884074   -2.459384
     50          6           0        3.518529    2.764687   -3.326442
     51          1           0        4.035719    3.458936   -2.649788
     52          1           0        4.114254    2.714854   -4.245350
     53          8           0        5.468123    0.763551   -1.365116
     54          6           0        2.115090    3.292597   -3.645657
     55          1           0        1.529610    3.360694   -2.719303
     56          1           0        1.591814    2.569650   -4.285860
     57          6           0        2.155566    4.661934   -4.335432
     58          1           0        2.693363    5.378567   -3.695751
     59          1           0        2.722291    4.600138   -5.272799
     60          6           0        0.765502    5.219473   -4.652295
     61          1           0        0.236557    4.514561   -5.306952
     62          1           0        0.177319    5.277447   -3.715475
     63          7           0        0.877510    6.491241   -5.371160
     64          1           0       -0.045785    6.822320   -5.645017
     65          1           0        1.262643    7.205140   -4.753790
     66          8           0        5.600825    0.652052   -3.615270
     67          1           0        6.515756    0.394419   -3.390460
 ---------------------------------------------------------------------

 SCF Done:  E(RB3LYP) =  -1396.63956168     A.U. after    2 cycles

 Alpha  occ. eigenvalues --  -19.28654 -19.27609 -19.22699 -19.22158 -19.20608
 Alpha  occ. eigenvalues --  -14.62090 -14.50636 -14.45881 -14.44519 -14.35951
 Alpha  occ. eigenvalues --  -10.45450 -10.42528 -10.40083 -10.39640 -10.37588
 Alpha  occ. eigenvalues --  -10.35259 -10.32141 -10.31597 -10.29028 -10.28247
 Alpha  occ. eigenvalues --  -10.27877 -10.25942 -10.25848 -10.25517 -10.25515
 Alpha  occ. eigenvalues --  -10.24895 -10.24894 -10.24396 -10.23376  -1.21058
 Alpha  occ. eigenvalues --   -1.18662  -1.15666  -1.14579  -1.12423  -1.09752
 Alpha  occ. eigenvalues --   -1.07328  -1.02622  -1.01147  -0.92753  -0.92710
 Alpha  occ. eigenvalues --   -0.90026  -0.89036  -0.86886  -0.85310  -0.82574
 Alpha  occ. eigenvalues --   -0.79482  -0.76872  -0.76413  -0.76026  -0.75927
 Alpha  occ. eigenvalues --   -0.75744  -0.75429  -0.72424  -0.70451  -0.69070
 Alpha  occ. eigenvalues --   -0.67864  -0.67748  -0.66460  -0.65375  -0.65056
 Alpha  occ. eigenvalues --   -0.64178  -0.63858  -0.62269  -0.61822  -0.59814
 Alpha  occ. eigenvalues --   -0.58211  -0.57590  -0.57037  -0.56732  -0.55400
 Alpha  occ. eigenvalues --   -0.54896  -0.54411  -0.54269  -0.53803  -0.53420
 Alpha  occ. eigenvalues --   -0.53381  -0.52434  -0.51812  -0.51419  -0.50922
 Alpha  occ. eigenvalues --   -0.50294  -0.49626  -0.49075  -0.48417  -0.48140
 Alpha  occ. eigenvalues --   -0.48039  -0.47828  -0.46628  -0.46130  -0.45784
 Alpha  occ. eigenvalues --   -0.45404  -0.45244  -0.44691  -0.43753  -0.43570
 Alpha  occ. eigenvalues --   -0.42638  -0.42225  -0.41775  -0.41503  -0.41443
 Alpha  occ. eigenvalues --   -0.41253  -0.41145  -0.40337  -0.39953  -0.39540
 Alpha  occ. eigenvalues --   -0.39187  -0.38419  -0.36739  -0.35901  -0.35693
 Alpha  occ. eigenvalues --   -0.34173  -0.33870  -0.28135
 Alpha virt. eigenvalues --   -0.13669  -0.13339  -0.08344  -0.07839  -0.06986
 Alpha virt. eigenvalues --   -0.06281  -0.06118  -0.02730  -0.02246  -0.00504
 Alpha virt. eigenvalues --    0.00011   0.00696   0.01009   0.01481   0.02881

 Mulliken charges:
               1
     1  N   -0.751173
     2  H    0.423233
     3  H    0.423027
     4  H    0.440753
     5  C   -0.278796
     6  H    0.249160
     7  H    0.249239
     8  C    0.638184
     9  O   -0.528372
    10  N   -0.586193
    11  H    0.373583
    12  C   -0.089164
    13  H    0.195545
    14  C    0.627685
    15  C   -0.264315
    16  H    0.152256
    17  H    0.169374
    18  O   -0.544679
    19  C   -0.071313
    20  H    0.114783
    21  C   -0.447832
    22  H    0.157355
    23  H    0.157525
    24  H    0.145247
    25  C   -0.460384
    26  H    0.153450
    27  H    0.154686
    28  H    0.158905
    29  N   -0.600180
    30  H    0.364379
    31  C   -0.075538
    32  H    0.184148
    33  C    0.628049
    34  C   -0.083091
    35  H    0.148249
    36  O   -0.544789
    37  C   -0.442690
    38  H    0.141028
    39  H    0.158735
    40  H    0.157988
    41  C   -0.461744
    42  H    0.145059
    43  H    0.164002
    44  H    0.163246
    45  N   -0.599739
    46  H    0.355521
    47  C   -0.057792
    48  H    0.204057
    49  C    0.586850
    50  C   -0.265102
    51  H    0.145186
    52  H    0.171847
    53  O   -0.468423
    54  C   -0.260707
    55  H    0.132727
    56  H    0.149843
    57  C   -0.250934
    58  H    0.126433
    59  H    0.157092
    60  C   -0.131974
    61  H    0.140684
    62  H    0.102006
    63  N   -0.712531
    64  H    0.299239
    65  H    0.294407
    66  O   -0.554041
    67  H    0.426732
 Sum of Mulliken charges =   1.00000

 Dipole moment (field-independent basis, Debye):
    X=            -18.7802    Y=              3.6563    Z=             12.5624  Tot=             22.8884
 Quadrupole moment (field-independent basis, Debye-Ang):
   XX=            -14.7801   YY=           -157.9644   ZZ=           -117.1451
   XY=            -13.6993   XZ=            -96.5085   YZ=              0.7160

 Normal termination of Gaussian 16 at Fri May 27 02:24:43 2022.
