 Gaussian 16, Revision C.01,
 Gaussian 16:  ES64L-G16RevC.01  3-Jul-2019

 -------------------------------------------------------------------
 # B3LYP/6-31G* guess=read geom=check nosymm integral(ultrafinegrid)
 -------------------------------------------------------------------

 ------------------------------------------------------
 Candidate Structure: Conf:538 Charge calc in gas phase
 ------------------------------------------------------
 Structure from the checkpoint file:  "conf-538.chk"
 Charge =  1 Multiplicity = 1

                          Input orientation:
 ---------------------------------------------------------------------
 Center     Atomic      Atomic             Coordinates (Angstroms)
 Number     Number       Type             X           Y           Z
 ---------------------------------------------------------------------
      1          7           0       -6.038428    3.088054   -0.270978
      2          1           0       -6.389178    3.956629    0.139714
      3          1           0       -6.514995    2.937816   -1.165091
      4          1           0       -6.226914    2.258010    0.372696
      5          6           0       -4.539189    3.030983   -0.402814
      6          1           0       -4.110932    3.845430    0.186627
      7          1           0       -4.233835    3.140279   -1.457448
      8          6           0       -4.174149    1.657053    0.219637
      9          8           0       -5.067759    1.067963    0.847007
     10          7           0       -2.930321    1.258699    0.000353
     11          1           0       -2.271447    1.882390   -0.476462
     12          6           0       -2.235275    0.050284    0.461429
     13          1           0       -2.423637   -0.094924    1.530624
     14          6           0       -0.741694    0.402685    0.220305
     15          6           0       -2.605149   -1.222889   -0.342809
     16          1           0       -2.454927   -0.997712   -1.405696
     17          1           0       -1.862475   -1.995595   -0.106253
     18          8           0       -0.447854    1.435961   -0.391153
     19          6           0       -4.007120   -1.827389   -0.121774
     20          1           0       -4.761114   -1.075620   -0.384715
     21          6           0       -4.184110   -3.026211   -1.067815
     22          1           0       -3.459520   -3.818626   -0.842273
     23          1           0       -5.186641   -3.455909   -0.967026
     24          1           0       -4.044781   -2.738059   -2.116355
     25          6           0       -4.243826   -2.242676    1.337106
     26          1           0       -3.484676   -2.962318    1.671404
     27          1           0       -4.234007   -1.385530    2.018482
     28          1           0       -5.220913   -2.725983    1.444206
     29          7           0        0.190451   -0.468974    0.657952
     30          1           0       -0.122552   -1.375534    0.979180
     31          6           0        1.541851   -0.409208    0.090587
     32          1           0        1.905961    0.611147    0.246007
     33          6           0        1.431583   -0.681009   -1.431030
     34          6           0        2.509060   -1.391479    0.800357
     35          1           0        3.448021   -1.320585    0.234259
     36          8           0        0.635251   -1.506464   -1.870832
     37          6           0        2.790854   -0.941176    2.242123
     38          1           0        1.881237   -0.963556    2.853594
     39          1           0        3.523222   -1.605499    2.712509
     40          1           0        3.192000    0.078197    2.275139
     41          6           0        2.045705   -2.857358    0.747103
     42          1           0        1.180958   -3.038119    1.400782
     43          1           0        2.845573   -3.511049    1.109237
     44          1           0        1.777113   -3.168069   -0.265962
     45          7           0        2.256892    0.061223   -2.213489
     46          1           0        2.861584    0.749357   -1.785597
     47          6           0        2.241584   -0.000802   -3.670746
     48          1           0        1.789922   -0.959361   -3.941344
     49          6           0        3.646062    0.015928   -4.266262
     50          6           0        1.406340    1.149551   -4.298514
     51          1           0        1.794267    2.101708   -3.909611
     52          1           0        1.583440    1.149296   -5.379449
     53          8           0        3.881027   -0.219837   -5.426755
     54          6           0       -0.091583    1.021842   -3.984363
     55          1           0       -0.207258    0.694193   -2.947887
     56          1           0       -0.526802    0.229667   -4.608257
     57          6           0       -0.891267    2.324025   -4.143786
     58          1           0       -0.394698    3.113133   -3.558615
     59          1           0       -0.902837    2.666370   -5.187519
     60          6           0       -2.323480    2.155687   -3.611174
     61          1           0       -2.919648    1.532688   -4.287900
     62          1           0       -2.266674    1.607183   -2.664375
     63          7           0       -3.086826    3.400253   -3.357996
     64          1           0       -2.442600    4.106160   -2.996067
     65          1           0       -3.417888    3.783036   -4.243913
     66          8           0        4.597991    0.377485   -3.371152
     67          1           0        5.444699    0.389145   -3.857902
 ---------------------------------------------------------------------

 SCF Done:  E(RB3LYP) =  -1396.64048464     A.U. after    3 cycles

 Alpha  occ. eigenvalues --  -19.27834 -19.27117 -19.23700 -19.21554 -19.20012
 Alpha  occ. eigenvalues --  -14.60730 -14.49452 -14.46807 -14.44957 -14.43093
 Alpha  occ. eigenvalues --  -10.43985 -10.40325 -10.39937 -10.39643 -10.37353
 Alpha  occ. eigenvalues --  -10.35429 -10.32666 -10.32096 -10.30534 -10.28729
 Alpha  occ. eigenvalues --  -10.28684 -10.27614 -10.27163 -10.26994 -10.26154
 Alpha  occ. eigenvalues --  -10.25666 -10.25624 -10.25290 -10.25062  -1.19425
 Alpha  occ. eigenvalues --   -1.18472  -1.15676  -1.14153  -1.11971  -1.09431
 Alpha  occ. eigenvalues --   -1.06321  -1.03269  -1.01317  -0.98731  -0.91853
 Alpha  occ. eigenvalues --   -0.89517  -0.88613  -0.88195  -0.84953  -0.84397
 Alpha  occ. eigenvalues --   -0.79821  -0.77622  -0.76672  -0.76614  -0.75963
 Alpha  occ. eigenvalues --   -0.74696  -0.73922  -0.71930  -0.71652  -0.69467
 Alpha  occ. eigenvalues --   -0.68398  -0.67852  -0.67518  -0.67107  -0.65700
 Alpha  occ. eigenvalues --   -0.64427  -0.62716  -0.61741  -0.60616  -0.60129
 Alpha  occ. eigenvalues --   -0.59646  -0.58987  -0.58135  -0.56551  -0.56070
 Alpha  occ. eigenvalues --   -0.55747  -0.55041  -0.54231  -0.53883  -0.53789
 Alpha  occ. eigenvalues --   -0.53085  -0.52849  -0.52477  -0.52213  -0.51548
 Alpha  occ. eigenvalues --   -0.51003  -0.50240  -0.50013  -0.49699  -0.48932
 Alpha  occ. eigenvalues --   -0.48325  -0.47758  -0.47469  -0.47180  -0.46767
 Alpha  occ. eigenvalues --   -0.46192  -0.45833  -0.45234  -0.44876  -0.44521
 Alpha  occ. eigenvalues --   -0.42941  -0.42636  -0.42247  -0.42085  -0.41971
 Alpha  occ. eigenvalues --   -0.41958  -0.41745  -0.41476  -0.41259  -0.40859
 Alpha  occ. eigenvalues --   -0.39434  -0.38860  -0.37526  -0.37023  -0.36386
 Alpha  occ. eigenvalues --   -0.35285  -0.33841  -0.32767
 Alpha virt. eigenvalues --   -0.12765  -0.11217  -0.09427  -0.06966  -0.06437
 Alpha virt. eigenvalues --   -0.06202  -0.05009  -0.02806  -0.01470  -0.01348
 Alpha virt. eigenvalues --   -0.01126   0.00027   0.00465   0.00840   0.01931

 Mulliken charges:
               1
     1  N   -0.747576
     2  H    0.418022
     3  H    0.421502
     4  H    0.431983
     5  C   -0.320271
     6  H    0.233374
     7  H    0.287221
     8  C    0.643561
     9  O   -0.530680
    10  N   -0.614892
    11  H    0.384648
    12  C   -0.071651
    13  H    0.194153
    14  C    0.642864
    15  C   -0.265972
    16  H    0.166482
    17  H    0.156399
    18  O   -0.549599
    19  C   -0.075026
    20  H    0.130704
    21  C   -0.447013
    22  H    0.154198
    23  H    0.156119
    24  H    0.146503
    25  C   -0.455900
    26  H    0.140820
    27  H    0.151820
    28  H    0.160980
    29  N   -0.596256
    30  H    0.351873
    31  C   -0.055857
    32  H    0.166606
    33  C    0.648295
    34  C   -0.109347
    35  H    0.155548
    36  O   -0.546036
    37  C   -0.444646
    38  H    0.148537
    39  H    0.167601
    40  H    0.151774
    41  C   -0.474759
    42  H    0.132667
    43  H    0.170475
    44  H    0.187672
    45  N   -0.599307
    46  H    0.346136
    47  C   -0.068751
    48  H    0.216328
    49  C    0.592453
    50  C   -0.267637
    51  H    0.138809
    52  H    0.180036
    53  O   -0.444461
    54  C   -0.280447
    55  H    0.170458
    56  H    0.150276
    57  C   -0.271114
    58  H    0.132817
    59  H    0.147519
    60  C   -0.158563
    61  H    0.157950
    62  H    0.134884
    63  N   -0.748480
    64  H    0.307858
    65  H    0.319727
    66  O   -0.578577
    67  H    0.425164
 Sum of Mulliken charges =   1.00000

 Dipole moment (field-independent basis, Debye):
    X=            -15.4765    Y=             11.8467    Z=             -2.2625  Tot=             19.6211
 Quadrupole moment (field-independent basis, Debye-Ang):
   XX=            -42.1001   YY=           -124.6663   ZZ=           -167.0088
   XY=            -62.8503   XZ=             15.0502   YZ=            -21.6689

 Normal termination of Gaussian 16 at Fri May 27 02:44:40 2022.
