 Gaussian 16, Revision C.01,
 Gaussian 16:  ES64L-G16RevC.01  3-Jul-2019

 -------------------------------------------------------------------
 # B3LYP/6-31G* guess=read geom=check nosymm integral(ultrafinegrid)
 -------------------------------------------------------------------

 ------------------------------------------------------
 Candidate Structure: Conf:156 Charge calc in gas phase
 ------------------------------------------------------
 Structure from the checkpoint file:  "conf-156.chk"
 Charge =  1 Multiplicity = 1

                          Input orientation:
 ---------------------------------------------------------------------
 Center     Atomic      Atomic             Coordinates (Angstroms)
 Number     Number       Type             X           Y           Z
 ---------------------------------------------------------------------
      1          7           0       -5.461126    0.856538    4.046271
      2          1           0       -5.490495    0.232513    4.857100
      3          1           0       -6.194625    1.562036    4.155129
      4          1           0       -5.615245    0.294566    3.140235
      5          6           0       -4.099143    1.436696    3.780305
      6          1           0       -3.401258    1.111462    4.553889
      7          1           0       -4.156127    2.526381    3.782468
      8          6           0       -3.730300    0.872341    2.378519
      9          8           0       -4.578168    0.140478    1.841273
     10          7           0       -2.557453    1.235792    1.890913
     11          1           0       -1.857190    1.708335    2.474006
     12          6           0       -1.936893    0.723205    0.662124
     13          1           0       -2.323360   -0.281752    0.470142
     14          6           0       -0.427974    0.670432    1.012691
     15          6           0       -2.174325    1.646917   -0.554149
     16          1           0       -1.804658    2.645760   -0.286688
     17          1           0       -1.533364    1.290970   -1.372124
     18          8           0       -0.011581    1.298495    1.991694
     19          6           0       -3.624584    1.746500   -1.068953
     20          1           0       -4.268929    2.046404   -0.229560
     21          6           0       -3.709093    2.846406   -2.139176
     22          1           0       -3.080728    2.601223   -3.004472
     23          1           0       -4.736937    2.961241   -2.499734
     24          1           0       -3.378507    3.816404   -1.749573
     25          6           0       -4.144578    0.409474   -1.617463
     26          1           0       -3.511301    0.049856   -2.438553
     27          1           0       -4.186831   -0.367559   -0.847262
     28          1           0       -5.159219    0.526530   -2.013475
     29          7           0        0.333434   -0.064703    0.188702
     30          1           0       -0.053832   -0.455751   -0.666918
     31          6           0        1.797492   -0.073276    0.206407
     32          1           0        2.126318    0.784003    0.802499
     33          6           0        2.197258    0.082933   -1.276237
     34          6           0        2.368070   -1.384882    0.825485
     35          1           0        2.076571   -2.203653    0.152451
     36          8           0        1.478164   -0.398999   -2.152693
     37          6           0        3.901928   -1.348578    0.916817
     38          1           0        4.238542   -0.528488    1.564920
     39          1           0        4.270803   -2.280761    1.356796
     40          1           0        4.388555   -1.231132   -0.055162
     41          6           0        1.759896   -1.653582    2.209713
     42          1           0        1.984246   -0.837209    2.906046
     43          1           0        2.175206   -2.577519    2.626158
     44          1           0        0.672969   -1.769554    2.161302
     45          7           0        3.332676    0.774051   -1.529224
     46          1           0        3.948943    1.018347   -0.761717
     47          6           0        3.940385    0.836467   -2.854416
     48          1           0        3.510638    0.030977   -3.458441
     49          6           0        5.434066    0.584068   -2.676201
     50          6           0        3.703486    2.188241   -3.570852
     51          1           0        4.110646    2.988190   -2.939410
     52          1           0        4.290951    2.182574   -4.496682
     53          8           0        6.005294    0.585426   -1.605505
     54          6           0        2.227781    2.451940   -3.900606
     55          1           0        1.638343    2.454585   -2.974076
     56          1           0        1.846394    1.615713   -4.499824
     57          6           0        1.992871    3.771764   -4.656332
     58          1           0        2.635936    3.807837   -5.548297
     59          1           0        0.957841    3.783058   -5.027250
     60          6           0        2.216775    5.042227   -3.815388
     61          1           0        1.584286    4.993019   -2.917517
     62          1           0        3.252229    5.084195   -3.455432
     63          7           0        1.940507    6.314399   -4.485004
     64          1           0        2.557628    6.424160   -5.288848
     65          1           0        0.992289    6.309914   -4.860007
     66          8           0        6.053203    0.390205   -3.852816
     67          1           0        7.003359    0.267742   -3.662394
 ---------------------------------------------------------------------

 SCF Done:  E(RB3LYP) =  -1396.63748601     A.U. after    1 cycles

 Alpha  occ. eigenvalues --  -19.28646 -19.27769 -19.22644 -19.22324 -19.20384
 Alpha  occ. eigenvalues --  -14.62082 -14.50609 -14.46086 -14.44678 -14.36330
 Alpha  occ. eigenvalues --  -10.45439 -10.42503 -10.40256 -10.39671 -10.37538
 Alpha  occ. eigenvalues --  -10.35328 -10.32182 -10.31772 -10.29127 -10.28317
 Alpha  occ. eigenvalues --  -10.27749 -10.26260 -10.26145 -10.25597 -10.25592
 Alpha  occ. eigenvalues --  -10.24975 -10.24886 -10.24827 -10.24046  -1.21045
 Alpha  occ. eigenvalues --   -1.18824  -1.15659  -1.14566  -1.12327  -1.09894
 Alpha  occ. eigenvalues --   -1.07317  -1.02685  -1.01163  -0.93151  -0.92729
 Alpha  occ. eigenvalues --   -0.90042  -0.89012  -0.87121  -0.85378  -0.82751
 Alpha  occ. eigenvalues --   -0.79606  -0.76934  -0.76475  -0.76012  -0.75846
 Alpha  occ. eigenvalues --   -0.75736  -0.75374  -0.72312  -0.70535  -0.69374
 Alpha  occ. eigenvalues --   -0.68564  -0.68003  -0.66627  -0.65597  -0.65367
 Alpha  occ. eigenvalues --   -0.64337  -0.63952  -0.62281  -0.61831  -0.59893
 Alpha  occ. eigenvalues --   -0.58137  -0.57544  -0.57449  -0.56720  -0.55776
 Alpha  occ. eigenvalues --   -0.55112  -0.54750  -0.54408  -0.54213  -0.53879
 Alpha  occ. eigenvalues --   -0.53370  -0.52401  -0.51751  -0.51556  -0.50679
 Alpha  occ. eigenvalues --   -0.49869  -0.49730  -0.48456  -0.48308  -0.48083
 Alpha  occ. eigenvalues --   -0.47805  -0.47091  -0.46771  -0.46688  -0.46500
 Alpha  occ. eigenvalues --   -0.45558  -0.45313  -0.44837  -0.44347  -0.43567
 Alpha  occ. eigenvalues --   -0.42699  -0.42325  -0.42261  -0.41812  -0.41593
 Alpha  occ. eigenvalues --   -0.41518  -0.41268  -0.41048  -0.40060  -0.39989
 Alpha  occ. eigenvalues --   -0.39313  -0.38750  -0.36806  -0.36046  -0.35673
 Alpha  occ. eigenvalues --   -0.34016  -0.33862  -0.28352
 Alpha virt. eigenvalues --   -0.13658  -0.13325  -0.08354  -0.07847  -0.07168
 Alpha virt. eigenvalues --   -0.06232  -0.06078  -0.02732  -0.02267  -0.00681
 Alpha virt. eigenvalues --    0.00119   0.00780   0.01076   0.01449   0.02591

 Mulliken charges:
               1
     1  N   -0.751097
     2  H    0.423289
     3  H    0.423130
     4  H    0.440613
     5  C   -0.278899
     6  H    0.249431
     7  H    0.249580
     8  C    0.637771
     9  O   -0.528480
    10  N   -0.586229
    11  H    0.374391
    12  C   -0.089498
    13  H    0.195012
    14  C    0.631834
    15  C   -0.262243
    16  H    0.153588
    17  H    0.164730
    18  O   -0.545583
    19  C   -0.071418
    20  H    0.115796
    21  C   -0.447875
    22  H    0.155160
    23  H    0.158033
    24  H    0.146693
    25  C   -0.460299
    26  H    0.152116
    27  H    0.155397
    28  H    0.159204
    29  N   -0.606055
    30  H    0.361343
    31  C   -0.062263
    32  H    0.178011
    33  C    0.622380
    34  C   -0.075007
    35  H    0.147184
    36  O   -0.541868
    37  C   -0.473143
    38  H    0.150108
    39  H    0.165633
    40  H    0.165660
    41  C   -0.445745
    42  H    0.158525
    43  H    0.159143
    44  H    0.136635
    45  N   -0.597694
    46  H    0.356310
    47  C   -0.057447
    48  H    0.206921
    49  C    0.589393
    50  C   -0.268303
    51  H    0.150791
    52  H    0.169653
    53  O   -0.466570
    54  C   -0.260840
    55  H    0.132473
    56  H    0.151717
    57  C   -0.268496
    58  H    0.132366
    59  H    0.127960
    60  C   -0.140564
    61  H    0.131959
    62  H    0.144914
    63  N   -0.702107
    64  H    0.298112
    65  H    0.292728
    66  O   -0.555088
    67  H    0.427119
 Sum of Mulliken charges =   1.00000

 Dipole moment (field-independent basis, Debye):
    X=            -14.6809    Y=              4.6443    Z=             11.2262  Tot=             19.0559
 Quadrupole moment (field-independent basis, Debye-Ang):
   XX=            -45.3238   YY=           -174.1493   ZZ=            -87.9283
   XY=            -26.3749   XZ=            -97.9386   YZ=              4.1224

 Normal termination of Gaussian 16 at Fri May 27 02:24:35 2022.
