 Gaussian 16, Revision C.01,
 Gaussian 16:  ES64L-G16RevC.01  3-Jul-2019

 -------------------------------------------------------------------
 # B3LYP/6-31G* guess=read geom=check nosymm integral(ultrafinegrid)
 -------------------------------------------------------------------

 ------------------------------------------------------
 Candidate Structure: Conf:727 Charge calc in gas phase
 ------------------------------------------------------
 Structure from the checkpoint file:  "conf-727.chk"
 Charge =  1 Multiplicity = 1

                          Input orientation:
 ---------------------------------------------------------------------
 Center     Atomic      Atomic             Coordinates (Angstroms)
 Number     Number       Type             X           Y           Z
 ---------------------------------------------------------------------
      1          7           0       -5.588317   -1.075613    3.818153
      2          1           0       -6.287058   -0.465225    4.249917
      3          1           0       -5.735466   -1.118100    2.748848
      4          1           0       -5.679854   -2.010290    4.224861
      5          6           0       -4.188977   -0.527718    3.872800
      6          1           0       -3.537637   -1.227342    4.399228
      7          1           0       -4.187888    0.429175    4.397449
      8          6           0       -3.804263   -0.375436    2.373357
      9          8           0       -4.675538   -0.699578    1.546999
     10          7           0       -2.594512    0.080027    2.114074
     11          1           0       -1.903233    0.292915    2.842240
     12          6           0       -2.025741    0.271645    0.772842
     13          1           0       -2.283020   -0.598419    0.161889
     14          6           0       -0.501984    0.321918    1.043568
     15          6           0       -2.578228    1.567111    0.126599
     16          1           0       -3.671710    1.521987    0.211823
     17          1           0       -2.242666    2.415279    0.737404
     18          8           0       -0.101271    0.560067    2.189845
     19          6           0       -2.218343    1.817281   -1.353791
     20          1           0       -1.126170    1.870334   -1.451052
     21          6           0       -2.732280    0.705761   -2.282927
     22          1           0       -3.820906    0.595207   -2.199271
     23          1           0       -2.498893    0.941425   -3.326160
     24          1           0       -2.282749   -0.272317   -2.071363
     25          6           0       -2.782906    3.181151   -1.782730
     26          1           0       -3.878476    3.192802   -1.719439
     27          1           0       -2.400737    3.991580   -1.151206
     28          1           0       -2.508027    3.405318   -2.818711
     29          7           0        0.296921    0.102710   -0.007449
     30          1           0       -0.071128   -0.034375   -0.946081
     31          6           0        1.752559    0.220474    0.037036
     32          1           0        2.006405    1.035378    0.724127
     33          6           0        2.157939    0.593346   -1.402262
     34          6           0        2.414761   -1.089921    0.569856
     35          1           0        1.901775   -1.270959    1.523329
     36          8           0        1.394226    0.371687   -2.342291
     37          6           0        2.177684   -2.291235   -0.355708
     38          1           0        2.707044   -2.172079   -1.306944
     39          1           0        2.549139   -3.206411    0.117941
     40          1           0        1.113191   -2.436928   -0.569912
     41          6           0        3.910083   -0.910563    0.874447
     42          1           0        4.503922   -0.852136   -0.043782
     43          1           0        4.279036   -1.773284    1.439113
     44          1           0        4.098770   -0.019398    1.487819
     45          7           0        3.365607    1.192181   -1.554530
     46          1           0        3.992990    1.211179   -0.760820
     47          6           0        3.954870    1.389900   -2.869912
     48          1           0        3.145347    1.657688   -3.554958
     49          6           0        4.563533    0.076485   -3.374358
     50          6           0        5.010532    2.514141   -2.844963
     51          1           0        5.785683    2.257198   -2.107686
     52          1           0        5.507497    2.529772   -3.820768
     53          8           0        4.767945   -0.908564   -2.699850
     54          6           0        4.428963    3.899041   -2.533300
     55          1           0        3.874797    3.860046   -1.587309
     56          1           0        3.703543    4.166382   -3.316343
     57          6           0        5.514463    4.978710   -2.436929
     58          1           0        6.207516    4.721877   -1.625272
     59          1           0        6.098129    4.998022   -3.368069
     60          6           0        4.964637    6.385579   -2.174669
     61          1           0        5.810244    7.078860   -2.103709
     62          1           0        4.365356    6.710368   -3.044719
     63          7           0        4.231862    6.446257   -0.900894
     64          1           0        4.130600    7.417025   -0.610962
     65          1           0        3.283185    6.099060   -1.030126
     66          8           0        4.872157    0.159428   -4.683332
     67          1           0        5.272946   -0.693743   -4.938007
 ---------------------------------------------------------------------

 SCF Done:  E(RB3LYP) =  -1396.63930083     A.U. after    1 cycles

 Alpha  occ. eigenvalues --  -19.28289 -19.26904 -19.22252 -19.21448 -19.20528
 Alpha  occ. eigenvalues --  -14.61735 -14.50317 -14.45724 -14.44639 -14.36526
 Alpha  occ. eigenvalues --  -10.45060 -10.42239 -10.39314 -10.39292 -10.37504
 Alpha  occ. eigenvalues --  -10.35013 -10.31961 -10.31455 -10.28803 -10.27822
 Alpha  occ. eigenvalues --  -10.27283 -10.26450 -10.25960 -10.25548 -10.25213
 Alpha  occ. eigenvalues --  -10.24747 -10.24571 -10.24017 -10.23519  -1.20720
 Alpha  occ. eigenvalues --   -1.17880  -1.15312  -1.14218  -1.12406  -1.08908
 Alpha  occ. eigenvalues --   -1.06988  -1.02347  -1.01169  -0.93163  -0.92354
 Alpha  occ. eigenvalues --   -0.89793  -0.88606  -0.86838  -0.84889  -0.82301
 Alpha  occ. eigenvalues --   -0.79412  -0.76866  -0.76209  -0.75722  -0.75667
 Alpha  occ. eigenvalues --   -0.75380  -0.75316  -0.71989  -0.70391  -0.69146
 Alpha  occ. eigenvalues --   -0.68596  -0.67204  -0.66617  -0.65440  -0.64173
 Alpha  occ. eigenvalues --   -0.63947  -0.63244  -0.61749  -0.61308  -0.59391
 Alpha  occ. eigenvalues --   -0.58291  -0.57033  -0.56929  -0.55843  -0.55252
 Alpha  occ. eigenvalues --   -0.54780  -0.54615  -0.54074  -0.53984  -0.53890
 Alpha  occ. eigenvalues --   -0.52761  -0.52376  -0.51750  -0.51582  -0.50851
 Alpha  occ. eigenvalues --   -0.50440  -0.49383  -0.48271  -0.48004  -0.47801
 Alpha  occ. eigenvalues --   -0.46961  -0.46739  -0.46405  -0.46319  -0.45730
 Alpha  occ. eigenvalues --   -0.45230  -0.44872  -0.44631  -0.43898  -0.43487
 Alpha  occ. eigenvalues --   -0.42833  -0.42403  -0.41669  -0.41436  -0.41093
 Alpha  occ. eigenvalues --   -0.40872  -0.40778  -0.39800  -0.39470  -0.39234
 Alpha  occ. eigenvalues --   -0.38927  -0.38437  -0.36484  -0.35741  -0.35043
 Alpha  occ. eigenvalues --   -0.34128  -0.33565  -0.28805
 Alpha virt. eigenvalues --   -0.13335  -0.13066  -0.08219  -0.07542  -0.06514
 Alpha virt. eigenvalues --   -0.06095  -0.05880  -0.02396  -0.01555  -0.00763
 Alpha virt. eigenvalues --   -0.00110   0.00865   0.01050   0.02086   0.02304

 Mulliken charges:
               1
     1  N   -0.751907
     2  H    0.422095
     3  H    0.440714
     4  H    0.422323
     5  C   -0.276514
     6  H    0.247897
     7  H    0.247927
     8  C    0.641911
     9  O   -0.534249
    10  N   -0.603586
    11  H    0.377140
    12  C   -0.069849
    13  H    0.192939
    14  C    0.629684
    15  C   -0.258595
    16  H    0.159041
    17  H    0.152570
    18  O   -0.551133
    19  C   -0.097910
    20  H    0.146215
    21  C   -0.454581
    22  H    0.151617
    23  H    0.171855
    24  H    0.138348
    25  C   -0.447737
    26  H    0.147157
    27  H    0.147964
    28  H    0.162906
    29  N   -0.621679
    30  H    0.376584
    31  C   -0.067889
    32  H    0.179059
    33  C    0.638513
    34  C   -0.068100
    35  H    0.153535
    36  O   -0.543082
    37  C   -0.466816
    38  H    0.185668
    39  H    0.156041
    40  H    0.135732
    41  C   -0.491451
    42  H    0.180702
    43  H    0.165842
    44  H    0.141557
    45  N   -0.594075
    46  H    0.346206
    47  C   -0.050189
    48  H    0.204282
    49  C    0.596408
    50  C   -0.296384
    51  H    0.146457
    52  H    0.178632
    53  O   -0.459499
    54  C   -0.266124
    55  H    0.144923
    56  H    0.135437
    57  C   -0.236127
    58  H    0.145019
    59  H    0.133685
    60  C   -0.151350
    61  H    0.149346
    62  H    0.119993
    63  N   -0.718323
    64  H    0.304433
    65  H    0.292373
    66  O   -0.557425
    67  H    0.423846
 Sum of Mulliken charges =   1.00000

 Dipole moment (field-independent basis, Debye):
    X=            -14.4824    Y=              0.4107    Z=             11.3728  Tot=             18.4188
 Quadrupole moment (field-independent basis, Debye-Ang):
   XX=            -47.3129   YY=           -145.0185   ZZ=           -101.0901
   XY=             26.1172   XZ=            -98.4245   YZ=            -25.5712

 Normal termination of Gaussian 16 at Fri May 27 02:43:55 2022.
