 Gaussian 16, Revision C.01,
 Gaussian 16:  ES64L-G16RevC.01  3-Jul-2019

 -------------------------------------------------------------------
 # B3LYP/6-31G* guess=read geom=check nosymm integral(ultrafinegrid)
 -------------------------------------------------------------------

 ------------------------------------------------------
 Candidate Structure: Conf:472 Charge calc in gas phase
 ------------------------------------------------------
 Structure from the checkpoint file:  "conf-472.chk"
 Charge =  1 Multiplicity = 1

                          Input orientation:
 ---------------------------------------------------------------------
 Center     Atomic      Atomic             Coordinates (Angstroms)
 Number     Number       Type             X           Y           Z
 ---------------------------------------------------------------------
      1          7           0       -5.401631    1.215272    4.146417
      2          1           0       -6.116946    1.947012    4.161868
      3          1           0       -5.574536    0.539518    3.322075
      4          1           0       -5.439407    0.707439    5.034166
      5          6           0       -4.028582    1.718692    3.796040
      6          1           0       -3.330852    1.480326    4.600557
      7          1           0       -4.057412    2.800235    3.653481
      8          6           0       -3.693309    0.961293    2.479434
      9          8           0       -4.567977    0.186978    2.052972
     10          7           0       -2.516790    1.205568    1.936128
     11          1           0       -1.820335    1.830594    2.356566
     12          6           0       -2.002141    0.584848    0.707596
     13          1           0       -2.225599   -0.485344    0.742015
     14          6           0       -0.477153    0.831430    0.801310
     15          6           0       -2.651754    1.231651   -0.542277
     16          1           0       -3.736978    1.214587   -0.378504
     17          1           0       -2.347169    2.285928   -0.570229
     18          8           0       -0.052969    1.712956    1.558758
     19          6           0       -2.358880    0.568763   -1.905625
     20          1           0       -1.276344    0.587252   -2.086811
     21          6           0       -2.833341   -0.892101   -1.966234
     22          1           0       -3.909277   -0.964977   -1.762818
     23          1           0       -2.651462   -1.311709   -2.960758
     24          1           0       -2.315895   -1.541764   -1.249364
     25          6           0       -3.022668    1.397125   -3.017475
     26          1           0       -4.114015    1.409696   -2.902484
     27          1           0       -2.671195    2.435354   -3.010615
     28          1           0       -2.797449    0.974215   -4.001994
     29          7           0        0.299714    0.057398    0.032717
     30          1           0       -0.090223   -0.609313   -0.630305
     31          6           0        1.740287    0.248445   -0.115813
     32          1           0        1.947103    1.323296   -0.059625
     33          6           0        2.058852   -0.282617   -1.529681
     34          6           0        2.532446   -0.459082    1.027771
     35          1           0        2.046899   -0.101674    1.944957
     36          8           0        1.267103   -1.034249   -2.103013
     37          6           0        2.407376   -1.987388    0.973346
     38          1           0        2.900769   -2.401840    0.086601
     39          1           0        2.878680   -2.436330    1.854096
     40          1           0        1.360637   -2.308928    0.954711
     41          6           0        4.000710   -0.012369    1.087242
     42          1           0        4.581472   -0.384504    0.236112
     43          1           0        4.472656   -0.403758    1.994531
     44          1           0        4.090824    1.080892    1.118538
     45          7           0        3.232152    0.112068   -2.070797
     46          1           0        3.828378    0.760686   -1.575031
     47          6           0        3.674564   -0.343232   -3.389785
     48          1           0        3.228535   -1.325178   -3.561931
     49          6           0        5.186249   -0.522577   -3.411941
     50          6           0        3.211449    0.621320   -4.512077
     51          1           0        2.133342    0.761741   -4.366733
     52          1           0        3.686013    1.597620   -4.351735
     53          8           0        5.779023   -1.289834   -4.129578
     54          6           0        3.470020    0.104713   -5.935244
     55          1           0        3.046458   -0.904429   -6.022483
     56          1           0        4.547527   -0.005768   -6.108047
     57          6           0        2.855852    0.995947   -7.026804
     58          1           0        2.936312    0.468963   -7.988053
     59          1           0        1.782752    1.138735   -6.844693
     60          6           0        3.512435    2.372604   -7.173149
     61          1           0        3.410217    2.939137   -6.238596
     62          1           0        4.598154    2.234890   -7.338532
     63          7           0        2.836937    3.143007   -8.221793
     64          1           0        3.255343    4.068761   -8.297410
     65          1           0        2.987095    2.694256   -9.125071
     66          8           0        5.814791    0.334170   -2.561538
     67          1           0        6.773457    0.180881   -2.666153
 ---------------------------------------------------------------------

 SCF Done:  E(RB3LYP) =  -1396.63459957     A.U. after    1 cycles

 Alpha  occ. eigenvalues --  -19.28419 -19.27763 -19.22528 -19.21576 -19.20670
 Alpha  occ. eigenvalues --  -14.61860 -14.50484 -14.45961 -14.45036 -14.35683
 Alpha  occ. eigenvalues --  -10.45202 -10.42373 -10.39780 -10.39567 -10.37819
 Alpha  occ. eigenvalues --  -10.35175 -10.32425 -10.31610 -10.28883 -10.27972
 Alpha  occ. eigenvalues --  -10.27833 -10.25969 -10.25559 -10.25514 -10.25503
 Alpha  occ. eigenvalues --  -10.25120 -10.25026 -10.24074 -10.23117  -1.20856
 Alpha  occ. eigenvalues --   -1.18326  -1.15450  -1.14471  -1.12564  -1.09358
 Alpha  occ. eigenvalues --   -1.07149  -1.02618  -1.01403  -0.92494  -0.92472
 Alpha  occ. eigenvalues --   -0.89938  -0.88970  -0.86795  -0.85071  -0.82276
 Alpha  occ. eigenvalues --   -0.79571  -0.76949  -0.76295  -0.76193  -0.75839
 Alpha  occ. eigenvalues --   -0.75500  -0.75250  -0.71988  -0.70212  -0.69642
 Alpha  occ. eigenvalues --   -0.68530  -0.67576  -0.67225  -0.65531  -0.64600
 Alpha  occ. eigenvalues --   -0.64296  -0.62970  -0.62027  -0.61838  -0.59600
 Alpha  occ. eigenvalues --   -0.59054  -0.57378  -0.56311  -0.55780  -0.55646
 Alpha  occ. eigenvalues --   -0.54805  -0.54526  -0.54347  -0.53929  -0.53492
 Alpha  occ. eigenvalues --   -0.52760  -0.52411  -0.51821  -0.51163  -0.50729
 Alpha  occ. eigenvalues --   -0.50299  -0.49825  -0.48821  -0.48319  -0.48038
 Alpha  occ. eigenvalues --   -0.47669  -0.47009  -0.46589  -0.46424  -0.46374
 Alpha  occ. eigenvalues --   -0.45561  -0.45230  -0.44539  -0.43597  -0.43038
 Alpha  occ. eigenvalues --   -0.42980  -0.42593  -0.42090  -0.41689  -0.41614
 Alpha  occ. eigenvalues --   -0.41432  -0.41021  -0.40121  -0.39557  -0.39333
 Alpha  occ. eigenvalues --   -0.38571  -0.37589  -0.36775  -0.35998  -0.35513
 Alpha  occ. eigenvalues --   -0.34482  -0.32993  -0.27944
 Alpha virt. eigenvalues --   -0.13459  -0.13190  -0.08457  -0.07681  -0.07168
 Alpha virt. eigenvalues --   -0.06109  -0.05933  -0.02526  -0.01678  -0.00972
 Alpha virt. eigenvalues --   -0.00854   0.00810   0.01162   0.02235   0.02914

 Mulliken charges:
               1
     1  N   -0.751785
     2  H    0.422477
     3  H    0.440933
     4  H    0.422462
     5  C   -0.276529
     6  H    0.247734
     7  H    0.248050
     8  C    0.642274
     9  O   -0.533474
    10  N   -0.603862
    11  H    0.376696
    12  C   -0.069423
    13  H    0.193273
    14  C    0.628027
    15  C   -0.259333
    16  H    0.159603
    17  H    0.152948
    18  O   -0.551015
    19  C   -0.098556
    20  H    0.145589
    21  C   -0.454444
    22  H    0.151721
    23  H    0.173071
    24  H    0.136975
    25  C   -0.448068
    26  H    0.146753
    27  H    0.149795
    28  H    0.165040
    29  N   -0.622353
    30  H    0.378281
    31  C   -0.061590
    32  H    0.176719
    33  C    0.635251
    34  C   -0.070679
    35  H    0.157063
    36  O   -0.545287
    37  C   -0.457824
    38  H    0.163107
    39  H    0.159671
    40  H    0.145946
    41  C   -0.475566
    42  H    0.156560
    43  H    0.167104
    44  H    0.149570
    45  N   -0.621699
    46  H    0.359450
    47  C   -0.047672
    48  H    0.209652
    49  C    0.592055
    50  C   -0.269654
    51  H    0.162200
    52  H    0.147461
    53  O   -0.439224
    54  C   -0.274425
    55  H    0.147941
    56  H    0.157739
    57  C   -0.254360
    58  H    0.137290
    59  H    0.145937
    60  C   -0.133851
    61  H    0.133415
    62  H    0.116088
    63  N   -0.717440
    64  H    0.299540
    65  H    0.297137
    66  O   -0.586560
    67  H    0.426073
 Sum of Mulliken charges =   1.00000

 Dipole moment (field-independent basis, Debye):
    X=            -12.8722    Y=              7.4692    Z=             12.9230  Tot=             19.7100
 Quadrupole moment (field-independent basis, Debye-Ang):
   XX=            -47.1316   YY=           -166.3824   ZZ=            -86.9826
   XY=            -17.2505   XZ=            -94.3481   YZ=              9.2683

 Normal termination of Gaussian 16 at Fri May 27 02:24:34 2022.
