 Gaussian 16, Revision C.01,
 Gaussian 16:  ES64L-G16RevC.01  3-Jul-2019

 -------------------------------------------------------------------
 # B3LYP/6-31G* guess=read geom=check nosymm integral(ultrafinegrid)
 -------------------------------------------------------------------

 ------------------------------------------------------
 Candidate Structure: Conf:418 Charge calc in gas phase
 ------------------------------------------------------
 Structure from the checkpoint file:  "conf-418.chk"
 Charge =  1 Multiplicity = 1

                          Input orientation:
 ---------------------------------------------------------------------
 Center     Atomic      Atomic             Coordinates (Angstroms)
 Number     Number       Type             X           Y           Z
 ---------------------------------------------------------------------
      1          7           0       -5.493903    0.427187    4.021354
      2          1           0       -6.301173    1.056403    4.017727
      3          1           0       -5.568131   -0.279563    3.211522
      4          1           0       -5.472487   -0.065390    4.918352
      5          6           0       -4.197223    1.105582    3.673988
      6          1           0       -3.483612    0.978719    4.490028
      7          1           0       -4.370823    2.170347    3.510288
      8          6           0       -3.743071    0.379511    2.375386
      9          8           0       -4.496333   -0.514165    1.954612
     10          7           0       -2.607690    0.791211    1.839808
     11          1           0       -1.975471    1.423691    2.342874
     12          6           0       -1.915797    0.171731    0.701662
     13          1           0       -2.188716   -0.886473    0.662375
     14          6           0       -0.415789    0.336424    1.051691
     15          6           0       -2.230659    0.873378   -0.639628
     16          1           0       -1.980654    1.936195   -0.521882
     17          1           0       -1.537237    0.477054   -1.393767
     18          8           0       -0.081306    1.151120    1.917094
     19          6           0       -3.672683    0.730805   -1.167261
     20          1           0       -4.362970    1.077291   -0.384100
     21          6           0       -3.857835    1.642687   -2.390589
     22          1           0       -3.188663    1.344683   -3.207259
     23          1           0       -4.884666    1.585599   -2.767463
     24          1           0       -3.645238    2.690927   -2.149822
     25          6           0       -4.029559   -0.723048   -1.510551
     26          1           0       -3.344015   -1.126612   -2.266615
     27          1           0       -3.999998   -1.376777   -0.632672
     28          1           0       -5.042981   -0.781725   -1.922343
     29          7           0        0.429147   -0.436843    0.349555
     30          1           0        0.089511   -0.941444   -0.467860
     31          6           0        1.875191   -0.231815    0.308024
     32          1           0        2.079652    0.780892    0.672081
     33          6           0        2.258356   -0.344226   -1.184305
     34          6           0        2.667004   -1.245161    1.185231
     35          1           0        3.729089   -1.010130    1.026201
     36          8           0        1.471502   -0.831944   -2.000090
     37          6           0        2.362575   -1.045646    2.676047
     38          1           0        1.318628   -1.290482    2.901708
     39          1           0        2.997149   -1.702228    3.281031
     40          1           0        2.538660   -0.012270    2.992313
     41          6           0        2.431328   -2.699992    0.755016
     42          1           0        1.383513   -2.987509    0.901644
     43          1           0        3.046496   -3.375936    1.357806
     44          1           0        2.682086   -2.868760   -0.297570
     45          7           0        3.491250    0.093554   -1.507714
     46          1           0        4.121075    0.468062   -0.806237
     47          6           0        4.050952   -0.028503   -2.850644
     48          1           0        3.749037   -0.993304   -3.270880
     49          6           0        5.564425   -0.006448   -2.673799
     50          6           0        3.543523    1.103844   -3.783082
     51          1           0        2.453341    1.111073   -3.671130
     52          1           0        3.911674    2.064781   -3.399848
     53          8           0        6.122153    0.427127   -1.686631
     54          6           0        3.896636    0.943807   -5.267044
     55          1           0        3.570131   -0.049303   -5.606205
     56          1           0        4.984072    0.974026   -5.405933
     57          6           0        3.242787    2.023917   -6.139433
     58          1           0        2.149923    1.986626   -6.012203
     59          1           0        3.559821    3.017077   -5.788189
     60          6           0        3.579498    1.902189   -7.639369
     61          1           0        3.148010    2.761715   -8.167068
     62          1           0        4.666874    1.975307   -7.774173
     63          7           0        3.131694    0.691812   -8.329590
     64          1           0        3.567613   -0.136159   -7.928675
     65          1           0        2.125379    0.573388   -8.220131
     66          8           0        6.215645   -0.504189   -3.737599
     67          1           0        7.171810   -0.419861   -3.554175
 ---------------------------------------------------------------------

 SCF Done:  E(RB3LYP) =  -1396.63893298     A.U. after    1 cycles

 Alpha  occ. eigenvalues --  -19.28675 -19.28040 -19.22760 -19.22487 -19.20618
 Alpha  occ. eigenvalues --  -14.62109 -14.50662 -14.45925 -14.44702 -14.35736
 Alpha  occ. eigenvalues --  -10.45472 -10.42544 -10.40471 -10.39692 -10.37642
 Alpha  occ. eigenvalues --  -10.35302 -10.32217 -10.31993 -10.29066 -10.28274
 Alpha  occ. eigenvalues --  -10.27978 -10.26200 -10.25557 -10.25526 -10.25317
 Alpha  occ. eigenvalues --  -10.24994 -10.24970 -10.24519 -10.23554  -1.21078
 Alpha  occ. eigenvalues --   -1.19076  -1.15689  -1.14637  -1.12467  -1.10115
 Alpha  occ. eigenvalues --   -1.07357  -1.02682  -1.01248  -0.92742  -0.92504
 Alpha  occ. eigenvalues --   -0.90059  -0.89114  -0.86993  -0.85352  -0.82422
 Alpha  occ. eigenvalues --   -0.79421  -0.76909  -0.76436  -0.76043  -0.76016
 Alpha  occ. eigenvalues --   -0.75765  -0.75595  -0.72486  -0.70885  -0.69564
 Alpha  occ. eigenvalues --   -0.68510  -0.67864  -0.66052  -0.65406  -0.65137
 Alpha  occ. eigenvalues --   -0.64223  -0.63616  -0.62364  -0.62125  -0.59883
 Alpha  occ. eigenvalues --   -0.58240  -0.57643  -0.57408  -0.56665  -0.55605
 Alpha  occ. eigenvalues --   -0.55284  -0.54550  -0.54071  -0.53873  -0.53632
 Alpha  occ. eigenvalues --   -0.53167  -0.52472  -0.52324  -0.51558  -0.50969
 Alpha  occ. eigenvalues --   -0.50043  -0.49517  -0.49073  -0.48284  -0.48186
 Alpha  occ. eigenvalues --   -0.48111  -0.46872  -0.46656  -0.46250  -0.46016
 Alpha  occ. eigenvalues --   -0.45911  -0.45446  -0.45283  -0.43799  -0.43594
 Alpha  occ. eigenvalues --   -0.42637  -0.42286  -0.41811  -0.41684  -0.41496
 Alpha  occ. eigenvalues --   -0.41474  -0.41334  -0.40805  -0.39989  -0.39978
 Alpha  occ. eigenvalues --   -0.38917  -0.38202  -0.36790  -0.36324  -0.35814
 Alpha  occ. eigenvalues --   -0.34336  -0.33795  -0.27693
 Alpha virt. eigenvalues --   -0.13684  -0.13359  -0.08402  -0.07864  -0.07597
 Alpha virt. eigenvalues --   -0.06259  -0.05974  -0.02751  -0.02263  -0.00539
 Alpha virt. eigenvalues --   -0.00156   0.00481   0.00942   0.01441   0.02577

 Mulliken charges:
               1
     1  N   -0.751136
     2  H    0.423135
     3  H    0.440725
     4  H    0.423257
     5  C   -0.278850
     6  H    0.249241
     7  H    0.249381
     8  C    0.638222
     9  O   -0.528363
    10  N   -0.586297
    11  H    0.373751
    12  C   -0.088877
    13  H    0.195562
    14  C    0.627113
    15  C   -0.264474
    16  H    0.152816
    17  H    0.168478
    18  O   -0.544037
    19  C   -0.071373
    20  H    0.115025
    21  C   -0.447662
    22  H    0.156577
    23  H    0.157703
    24  H    0.146202
    25  C   -0.460268
    26  H    0.152748
    27  H    0.154722
    28  H    0.159056
    29  N   -0.600055
    30  H    0.364279
    31  C   -0.074905
    32  H    0.183657
    33  C    0.635358
    34  C   -0.077957
    35  H    0.142919
    36  O   -0.552064
    37  C   -0.443059
    38  H    0.141476
    39  H    0.158354
    40  H    0.158702
    41  C   -0.462720
    42  H    0.145960
    43  H    0.163385
    44  H    0.163608
    45  N   -0.622637
    46  H    0.359901
    47  C   -0.029738
    48  H    0.196185
    49  C    0.583914
    50  C   -0.269458
    51  H    0.169171
    52  H    0.148519
    53  O   -0.466046
    54  C   -0.263993
    55  H    0.130287
    56  H    0.151181
    57  C   -0.263154
    58  H    0.123911
    59  H    0.131736
    60  C   -0.145801
    61  H    0.149009
    62  H    0.144555
    63  N   -0.702090
    64  H    0.298315
    65  H    0.292606
    66  O   -0.552232
    67  H    0.426548
 Sum of Mulliken charges =   1.00000

 Dipole moment (field-independent basis, Debye):
    X=            -14.7681    Y=              2.7694    Z=             13.0772  Tot=             19.9193
 Quadrupole moment (field-independent basis, Debye-Ang):
   XX=            -41.1731   YY=           -168.4511   ZZ=           -117.9187
   XY=            -21.9886   XZ=            -89.1804   YZ=              6.8151

 Normal termination of Gaussian 16 at Fri May 27 02:24:34 2022.
