 Gaussian 16, Revision C.01,
 Gaussian 16:  ES64L-G16RevC.01  3-Jul-2019

 -------------------------------------------------------------------
 # B3LYP/6-31G* guess=read geom=check nosymm integral(ultrafinegrid)
 -------------------------------------------------------------------

 -----------------------------------------------------
 Candidate Structure: Conf:34 Charge calc in gas phase
 -----------------------------------------------------
 Structure from the checkpoint file:  "conf-34.chk"
 Charge =  1 Multiplicity = 1

                          Input orientation:
 ---------------------------------------------------------------------
 Center     Atomic      Atomic             Coordinates (Angstroms)
 Number     Number       Type             X           Y           Z
 ---------------------------------------------------------------------
      1          7           0       -3.788333    0.408152    4.726440
      2          1           0       -3.097625    0.614279    5.453392
      3          1           0       -4.703128    0.292399    5.170944
      4          1           0       -3.515085   -0.489637    4.206340
      5          6           0       -3.784220    1.403565    3.598772
      6          1           0       -3.015465    2.156905    3.781125
      7          1           0       -4.761627    1.882466    3.520154
      8          6           0       -3.420510    0.550338    2.357819
      9          8           0       -3.200762   -0.650702    2.552331
     10          7           0       -3.382283    1.173736    1.179038
     11          1           0       -3.409006    2.187842    1.199527
     12          6           0       -2.603717    0.605870    0.064871
     13          1           0       -2.973918   -0.407315   -0.107992
     14          6           0       -1.123542    0.557891    0.540948
     15          6           0       -2.830334    1.494175   -1.177599
     16          1           0       -3.914058    1.652921   -1.267444
     17          1           0       -2.378845    2.477267   -0.978879
     18          8           0       -0.755585    1.265971    1.478278
     19          6           0       -2.304843    0.962351   -2.528207
     20          1           0       -1.222003    0.802186   -2.453777
     21          6           0       -2.961842   -0.367381   -2.930946
     22          1           0       -4.051326   -0.260581   -3.011171
     23          1           0       -2.586503   -0.697589   -3.904612
     24          1           0       -2.759381   -1.178777   -2.220610
     25          6           0       -2.537360    2.027628   -3.611531
     26          1           0       -3.607626    2.229875   -3.745939
     27          1           0       -2.044830    2.973847   -3.359112
     28          1           0       -2.139254    1.691982   -4.574463
     29          7           0       -0.331017   -0.307219   -0.123414
     30          1           0       -0.656646   -0.748673   -0.979159
     31          6           0        1.118135   -0.357659    0.035899
     32          1           0        1.432234    0.582769    0.500597
     33          6           0        1.700074   -0.464147   -1.388059
     34          6           0        1.592874   -1.539492    0.934655
     35          1           0        2.691293   -1.491052    0.941499
     36          8           0        0.990894   -0.809776   -2.334595
     37          6           0        1.106054   -1.364234    2.379819
     38          1           0        0.012927   -1.421154    2.434914
     39          1           0        1.517150   -2.158073    3.013250
     40          1           0        1.413540   -0.398796    2.795519
     41          6           0        1.180920   -2.906915    0.370523
     42          1           0        0.089831   -3.013541    0.358112
     43          1           0        1.584303   -3.709863    0.996168
     44          1           0        1.545414   -3.063055   -0.650075
     45          7           0        3.015869   -0.169446   -1.502411
     46          1           0        3.573121   -0.032210   -0.665844
     47          6           0        3.787145   -0.437066   -2.711062
     48          1           0        3.235354   -1.170138   -3.308126
     49          6           0        5.111162   -1.047056   -2.263199
     50          6           0        4.041178    0.824415   -3.572589
     51          1           0        4.616048    1.547145   -2.977216
     52          1           0        4.678156    0.527936   -4.414243
     53          8           0        5.512200   -1.040736   -1.117761
     54          6           0        2.757099    1.479970   -4.093408
     55          1           0        2.134931    1.788463   -3.243098
     56          1           0        2.167613    0.737357   -4.647357
     57          6           0        3.030888    2.696361   -4.988132
     58          1           0        3.640316    3.430873   -4.440017
     59          1           0        3.627978    2.389555   -5.859603
     60          6           0        1.740928    3.379646   -5.475698
     61          1           0        1.127418    2.650238   -6.021354
     62          1           0        1.145484    3.688194   -4.604992
     63          7           0        1.906194    4.550763   -6.336910
     64          1           0        2.477457    5.251492   -5.865771
     65          1           0        2.417657    4.292671   -7.179998
     66          8           0        5.801079   -1.562341   -3.294385
     67          1           0        6.646168   -1.898105   -2.937893
 ---------------------------------------------------------------------

 SCF Done:  E(RB3LYP) =  -1396.63535832     A.U. after    2 cycles

 Alpha  occ. eigenvalues --  -19.28872 -19.27841 -19.22385 -19.21538 -19.20579
 Alpha  occ. eigenvalues --  -14.62167 -14.50792 -14.45441 -14.44616 -14.36139
 Alpha  occ. eigenvalues --  -10.45429 -10.42411 -10.40314 -10.38828 -10.37583
 Alpha  occ. eigenvalues --  -10.34965 -10.31996 -10.31810 -10.29343 -10.28002
 Alpha  occ. eigenvalues --  -10.27799 -10.26272 -10.25972 -10.25586 -10.25245
 Alpha  occ. eigenvalues --  -10.25005 -10.24969 -10.24733 -10.23891  -1.21307
 Alpha  occ. eigenvalues --   -1.18890  -1.15799  -1.13575  -1.12315  -1.09974
 Alpha  occ. eigenvalues --   -1.07477  -1.02028  -1.01200  -0.92953  -0.92594
 Alpha  occ. eigenvalues --   -0.90056  -0.88943  -0.87077  -0.84785  -0.82811
 Alpha  occ. eigenvalues --   -0.79688  -0.76540  -0.76119  -0.76034  -0.75938
 Alpha  occ. eigenvalues --   -0.75591  -0.74953  -0.73510  -0.70510  -0.68953
 Alpha  occ. eigenvalues --   -0.68083  -0.67188  -0.66613  -0.65700  -0.64774
 Alpha  occ. eigenvalues --   -0.64598  -0.64025  -0.62171  -0.61957  -0.59875
 Alpha  occ. eigenvalues --   -0.59146  -0.57343  -0.57021  -0.55630  -0.55595
 Alpha  occ. eigenvalues --   -0.55281  -0.55012  -0.54709  -0.53827  -0.53457
 Alpha  occ. eigenvalues --   -0.53214  -0.51974  -0.51771  -0.51539  -0.50593
 Alpha  occ. eigenvalues --   -0.50405  -0.49500  -0.49064  -0.48847  -0.48049
 Alpha  occ. eigenvalues --   -0.47301  -0.46688  -0.46363  -0.46319  -0.46116
 Alpha  occ. eigenvalues --   -0.45475  -0.44924  -0.44834  -0.43873  -0.43686
 Alpha  occ. eigenvalues --   -0.42553  -0.42242  -0.41827  -0.41546  -0.41409
 Alpha  occ. eigenvalues --   -0.41265  -0.41027  -0.40800  -0.40644  -0.40145
 Alpha  occ. eigenvalues --   -0.39707  -0.38729  -0.36162  -0.35739  -0.35288
 Alpha  occ. eigenvalues --   -0.34129  -0.33821  -0.28165
 Alpha virt. eigenvalues --   -0.14051  -0.13256  -0.08126  -0.07639  -0.07206
 Alpha virt. eigenvalues --   -0.06850  -0.06190  -0.02934  -0.01931  -0.01072
 Alpha virt. eigenvalues --   -0.00884  -0.00180   0.00562   0.01539   0.02657

 Mulliken charges:
               1
     1  N   -0.749870
     2  H    0.426340
     3  H    0.423124
     4  H    0.441044
     5  C   -0.284856
     6  H    0.259907
     7  H    0.244882
     8  C    0.657202
     9  O   -0.518536
    10  N   -0.573593
    11  H    0.352931
    12  C   -0.078464
    13  H    0.199192
    14  C    0.636715
    15  C   -0.290916
    16  H    0.158651
    17  H    0.150717
    18  O   -0.558517
    19  C   -0.104503
    20  H    0.158112
    21  C   -0.454830
    22  H    0.149835
    23  H    0.174471
    24  H    0.135801
    25  C   -0.448822
    26  H    0.148139
    27  H    0.150600
    28  H    0.166715
    29  N   -0.603937
    30  H    0.369762
    31  C   -0.071984
    32  H    0.181565
    33  C    0.631840
    34  C   -0.079868
    35  H    0.145593
    36  O   -0.544302
    37  C   -0.448362
    38  H    0.145661
    39  H    0.154227
    40  H    0.151843
    41  C   -0.462949
    42  H    0.148044
    43  H    0.161377
    44  H    0.164397
    45  N   -0.602228
    46  H    0.354877
    47  C   -0.054745
    48  H    0.203642
    49  C    0.586488
    50  C   -0.265030
    51  H    0.145000
    52  H    0.169429
    53  O   -0.468370
    54  C   -0.259442
    55  H    0.135252
    56  H    0.151487
    57  C   -0.266183
    58  H    0.126609
    59  H    0.132599
    60  C   -0.139486
    61  H    0.142547
    62  H    0.132155
    63  N   -0.702841
    64  H    0.294391
    65  H    0.297699
    66  O   -0.554886
    67  H    0.426656
 Sum of Mulliken charges =   1.00000

 Dipole moment (field-independent basis, Debye):
    X=            -10.5197    Y=              3.6095    Z=             12.5709  Tot=             16.7845
 Quadrupole moment (field-independent basis, Debye-Ang):
   XX=            -78.4710   YY=           -166.4053   ZZ=            -83.4792
   XY=            -17.7795   XZ=            -85.8439   YZ=             14.0752

 Normal termination of Gaussian 16 at Fri May 27 02:24:46 2022.
