 Gaussian 16, Revision C.01,
 Gaussian 16:  ES64L-G16RevC.01  3-Jul-2019

 -------------------------------------------------------------------
 # B3LYP/6-31G* guess=read geom=check nosymm integral(ultrafinegrid)
 -------------------------------------------------------------------

 ------------------------------------------------------
 Candidate Structure: Conf:879 Charge calc in gas phase
 ------------------------------------------------------
 Structure from the checkpoint file:  "conf-879.chk"
 Charge =  1 Multiplicity = 1

                          Input orientation:
 ---------------------------------------------------------------------
 Center     Atomic      Atomic             Coordinates (Angstroms)
 Number     Number       Type             X           Y           Z
 ---------------------------------------------------------------------
      1          7           0       -5.688714    2.053103    3.347020
      2          1           0       -6.428593    2.727683    3.135386
      3          1           0       -5.772344    1.189844    2.703086
      4          1           0       -5.777054    1.773141    4.327425
      5          6           0       -4.311330    2.529335    2.976409
      6          1           0       -3.670594    2.532213    3.859762
      7          1           0       -4.367611    3.540323    2.569449
      8          6           0       -3.847291    1.493181    1.913107
      9          8           0       -4.659136    0.593995    1.631405
     10          7           0       -2.640324    1.659276    1.409194
     11          1           0       -2.000010    2.402245    1.710965
     12          6           0       -2.005644    0.785155    0.413017
     13          1           0       -2.197058   -0.254404    0.694367
     14          6           0       -0.502307    1.126026    0.555721
     15          6           0       -2.568460    1.074022   -1.001736
     16          1           0       -3.662590    1.040447   -0.919848
     17          1           0       -2.296948    2.104330   -1.265875
     18          8           0       -0.173806    2.187780    1.099484
     19          6           0       -2.138621    0.116125   -2.133683
     20          1           0       -1.045401    0.144503   -2.228910
     21          6           0       -2.562814   -1.337674   -1.870176
     22          1           0       -3.650034   -1.412871   -1.741176
     23          1           0       -2.280706   -1.976610   -2.713085
     24          1           0       -2.092846   -1.766775   -0.976505
     25          6           0       -2.726502    0.616006   -3.463105
     26          1           0       -3.823653    0.602776   -3.439659
     27          1           0       -2.406593    1.640754   -3.684584
     28          1           0       -2.404427   -0.021895   -4.292746
     29          7           0        0.361142    0.228915    0.064149
     30          1           0        0.049684   -0.606212   -0.426427
     31          6           0        1.805142    0.441065   -0.001603
     32          1           0        1.982863    1.507360   -0.179496
     33          6           0        2.267494   -0.387186   -1.214585
     34          6           0        2.504907    0.047096    1.337949
     35          1           0        1.965386    0.629922    2.095890
     36          8           0        1.581047   -1.320331   -1.632558
     37          6           0        2.359536   -1.445400    1.665863
     38          1           0        2.917353   -2.066360    0.956932
     39          1           0        2.755503   -1.647613    2.666935
     40          1           0        1.311899   -1.765383    1.652518
     41          6           0        3.978200    0.481628    1.377002
     42          1           0        4.599701   -0.143966    0.727378
     43          1           0        4.369558    0.375186    2.394189
     44          1           0        4.101642    1.535308    1.092936
     45          7           0        3.437553   -0.019461   -1.791689
     46          1           0        4.020864    0.654327   -1.313213
     47          6           0        4.073460   -0.854767   -2.803420
     48          1           0        3.313707   -1.136204   -3.536950
     49          6           0        4.599541   -2.137255   -2.148742
     50          6           0        5.202142   -0.055160   -3.490204
     51          1           0        4.770119    0.909361   -3.786669
     52          1           0        5.984367    0.160840   -2.747980
     53          8           0        4.949535   -2.229995   -0.992359
     54          6           0        5.822259   -0.726372   -4.722517
     55          1           0        5.021962   -0.973922   -5.431927
     56          1           0        6.296257   -1.674370   -4.438304
     57          6           0        6.850326    0.179842   -5.413084
     58          1           0        6.361335    1.110689   -5.728219
     59          1           0        7.638941    0.451652   -4.696777
     60          6           0        7.505083   -0.459717   -6.643183
     61          1           0        8.225539    0.253263   -7.059909
     62          1           0        8.087639   -1.344382   -6.326056
     63          7           0        6.512350   -0.747930   -7.686933
     64          1           0        6.983988   -0.910900   -8.574325
     65          1           0        6.021433   -1.614365   -7.473973
     66          8           0        4.659131   -3.157372   -3.026123
     67          1           0        5.031177   -3.922656   -2.546315
 ---------------------------------------------------------------------

 SCF Done:  E(RB3LYP) =  -1396.63812813     A.U. after    1 cycles

 Alpha  occ. eigenvalues --  -19.28276 -19.26938 -19.22271 -19.21299 -19.20558
 Alpha  occ. eigenvalues --  -14.61722 -14.50314 -14.45767 -14.44664 -14.35758
 Alpha  occ. eigenvalues --  -10.45049 -10.42228 -10.39334 -10.39218 -10.37472
 Alpha  occ. eigenvalues --  -10.35001 -10.32004 -10.31456 -10.28747 -10.27733
 Alpha  occ. eigenvalues --  -10.27367 -10.26606 -10.25481 -10.25435 -10.25064
 Alpha  occ. eigenvalues --  -10.24685 -10.24389 -10.24102 -10.23173  -1.20710
 Alpha  occ. eigenvalues --   -1.17850  -1.15301  -1.14235  -1.12434  -1.08807
 Alpha  occ. eigenvalues --   -1.06983  -1.02378  -1.01153  -0.92503  -0.92333
 Alpha  occ. eigenvalues --   -0.89757  -0.88610  -0.86827  -0.84866  -0.81974
 Alpha  occ. eigenvalues --   -0.79309  -0.76821  -0.76112  -0.75709  -0.75537
 Alpha  occ. eigenvalues --   -0.75363  -0.75237  -0.72095  -0.70984  -0.69210
 Alpha  occ. eigenvalues --   -0.68095  -0.66802  -0.66394  -0.65378  -0.64149
 Alpha  occ. eigenvalues --   -0.63909  -0.62687  -0.61734  -0.61369  -0.59399
 Alpha  occ. eigenvalues --   -0.58898  -0.57324  -0.56811  -0.55699  -0.55173
 Alpha  occ. eigenvalues --   -0.54873  -0.54379  -0.53994  -0.53686  -0.53330
 Alpha  occ. eigenvalues --   -0.52963  -0.52135  -0.51799  -0.51464  -0.50824
 Alpha  occ. eigenvalues --   -0.50406  -0.49033  -0.48335  -0.47921  -0.47743
 Alpha  occ. eigenvalues --   -0.46768  -0.46661  -0.46306  -0.46141  -0.45386
 Alpha  occ. eigenvalues --   -0.45272  -0.45128  -0.44810  -0.43466  -0.43070
 Alpha  occ. eigenvalues --   -0.42810  -0.42500  -0.41664  -0.41341  -0.41064
 Alpha  occ. eigenvalues --   -0.40935  -0.40810  -0.39519  -0.39263  -0.39189
 Alpha  occ. eigenvalues --   -0.38645  -0.37774  -0.36502  -0.35786  -0.35093
 Alpha  occ. eigenvalues --   -0.34102  -0.33696  -0.28057
 Alpha virt. eigenvalues --   -0.13315  -0.13061  -0.08239  -0.07547  -0.06844
 Alpha virt. eigenvalues --   -0.05938  -0.05768  -0.02385  -0.01542  -0.00768
 Alpha virt. eigenvalues --   -0.00063   0.00848   0.01084   0.02358   0.02792

 Mulliken charges:
               1
     1  N   -0.751908
     2  H    0.422173
     3  H    0.440757
     4  H    0.422262
     5  C   -0.276533
     6  H    0.247826
     7  H    0.247944
     8  C    0.642131
     9  O   -0.534133
    10  N   -0.603591
    11  H    0.376996
    12  C   -0.069732
    13  H    0.192811
    14  C    0.629433
    15  C   -0.258903
    16  H    0.159022
    17  H    0.153146
    18  O   -0.550997
    19  C   -0.098095
    20  H    0.146451
    21  C   -0.454524
    22  H    0.151510
    23  H    0.172212
    24  H    0.137356
    25  C   -0.447816
    26  H    0.146518
    27  H    0.149633
    28  H    0.163878
    29  N   -0.621007
    30  H    0.376165
    31  C   -0.066262
    32  H    0.177895
    33  C    0.643513
    34  C   -0.068722
    35  H    0.153357
    36  O   -0.545269
    37  C   -0.465945
    38  H    0.184186
    39  H    0.156331
    40  H    0.136419
    41  C   -0.490042
    42  H    0.180154
    43  H    0.166298
    44  H    0.140004
    45  N   -0.608831
    46  H    0.345261
    47  C   -0.026417
    48  H    0.198615
    49  C    0.600557
    50  C   -0.304590
    51  H    0.163043
    52  H    0.151342
    53  O   -0.463533
    54  C   -0.270923
    55  H    0.151363
    56  H    0.145435
    57  C   -0.237613
    58  H    0.145317
    59  H    0.128565
    60  C   -0.148675
    61  H    0.147184
    62  H    0.118514
    63  N   -0.718119
    64  H    0.305217
    65  H    0.297441
    66  O   -0.553214
    67  H    0.421160
 Sum of Mulliken charges =   1.00000

 Dipole moment (field-independent basis, Debye):
    X=            -13.3772    Y=              7.5390    Z=              8.2998  Tot=             17.4548
 Quadrupole moment (field-independent basis, Debye-Ang):
   XX=            -25.1308   YY=           -146.7695   ZZ=           -108.7462
   XY=            -58.6714   XZ=            -93.8768   YZ=             38.7783

 Normal termination of Gaussian 16 at Fri May 27 02:43:54 2022.
