 Gaussian 16, Revision C.01,
 Gaussian 16:  ES64L-G16RevC.01  3-Jul-2019

 -------------------------------------------------------------------
 # B3LYP/6-31G* guess=read geom=check nosymm integral(ultrafinegrid)
 -------------------------------------------------------------------

 ------------------------------------------------------
 Candidate Structure: Conf:772 Charge calc in gas phase
 ------------------------------------------------------
 Structure from the checkpoint file:  "conf-772.chk"
 Charge =  1 Multiplicity = 1

                          Input orientation:
 ---------------------------------------------------------------------
 Center     Atomic      Atomic             Coordinates (Angstroms)
 Number     Number       Type             X           Y           Z
 ---------------------------------------------------------------------
      1          7           0       -5.629516    1.118827    4.107322
      2          1           0       -5.691650    0.547221    4.953945
      3          1           0       -6.298836    1.888842    4.187162
      4          1           0       -5.848523    0.520040    3.235291
      5          6           0       -4.230976    1.564133    3.780103
      6          1           0       -3.543282    1.224429    4.556342
      7          1           0       -4.195249    2.653123    3.719239
      8          6           0       -3.951709    0.889758    2.406470
      9          8           0       -4.875752    0.205131    1.932757
     10          7           0       -2.765991    1.102407    1.870608
     11          1           0       -2.029160    1.649541    2.329765
     12          6           0       -2.296185    0.547806    0.593460
     13          1           0       -2.583149   -0.506750    0.548482
     14          6           0       -0.758403    0.696001    0.691946
     15          6           0       -2.912135    1.326316   -0.596835
     16          1           0       -3.995695    1.361131   -0.424835
     17          1           0       -2.545053    2.359648   -0.546526
     18          8           0       -0.280273    1.489769    1.511935
     19          6           0       -2.665704    0.754735   -2.009747
     20          1           0       -1.584769    0.720414   -2.197805
     21          6           0       -3.229996   -0.665001   -2.179374
     22          1           0       -4.307746   -0.687153   -1.973629
     23          1           0       -3.077637   -1.016414   -3.204838
     24          1           0       -2.751318   -1.398714   -1.518970
     25          6           0       -3.280663    1.706248   -3.048707
     26          1           0       -4.368668    1.777532   -2.923769
     27          1           0       -2.865033    2.717045   -2.964585
     28          1           0       -3.086027    1.347836   -4.064857
     29          7           0       -0.032160   -0.060263   -0.140477
     30          1           0       -0.463279   -0.649170   -0.850202
     31          6           0        1.417023    0.055463   -0.286234
     32          1           0        1.688960    1.108453   -0.152225
     33          6           0        1.696959   -0.384732   -1.738823
     34          6           0        2.169360   -0.782360    0.794457
     35          1           0        1.708684   -0.467355    1.739626
     36          8           0        0.857794   -1.040752   -2.362836
     37          6           0        1.951616   -2.291932    0.626154
     38          1           0        2.416111   -2.666741   -0.293336
     39          1           0        2.398382   -2.833833    1.466499
     40          1           0        0.887307   -2.548180    0.591572
     41          6           0        3.662054   -0.430079    0.877252
     42          1           0        4.220883   -0.771931   -0.000708
     43          1           0        4.110471   -0.914159    1.751188
     44          1           0        3.818437    0.650304    0.986993
     45          7           0        2.884427   -0.017796   -2.259676
     46          1           0        3.562291    0.504003   -1.715875
     47          6           0        3.319509   -0.424720   -3.592712
     48          1           0        2.978186   -1.448927   -3.773727
     49          6           0        4.842485   -0.398840   -3.561529
     50          6           0        2.725882    0.499746   -4.689068
     51          1           0        1.655288    0.569726   -4.466068
     52          1           0        3.145200    1.507254   -4.565393
     53          8           0        5.491809    0.195285   -2.724947
     54          6           0        2.905046    0.012900   -6.132648
     55          1           0        2.522443   -1.014460   -6.215351
     56          1           0        3.969545   -0.035292   -6.389676
     57          6           0        2.169311    0.911940   -7.134921
     58          1           0        1.100086    0.959434   -6.892171
     59          1           0        2.551713    1.940936   -7.051877
     60          6           0        2.311623    0.440389   -8.584416
     61          1           0        3.385895    0.367289   -8.838428
     62          1           0        1.902472   -0.574284   -8.673492
     63          7           0        1.541039    1.308489   -9.480890
     64          1           0        1.981775    2.226653   -9.530486
     65          1           0        1.566591    0.936302  -10.428778
     66          8           0        5.391637   -1.092687   -4.571787
     67          1           0        6.360703   -0.995249   -4.492441
 ---------------------------------------------------------------------

 SCF Done:  E(RB3LYP) =  -1396.63973906     A.U. after    2 cycles

 Alpha  occ. eigenvalues --  -19.28286 -19.27868 -19.22321 -19.22310 -19.20368
 Alpha  occ. eigenvalues --  -14.61729 -14.50324 -14.45724 -14.44501 -14.35532
 Alpha  occ. eigenvalues --  -10.45059 -10.42238 -10.40296 -10.39350 -10.37474
 Alpha  occ. eigenvalues --  -10.35013 -10.32080 -10.31743 -10.28745 -10.27708
 Alpha  occ. eigenvalues --  -10.27634 -10.25922 -10.25451 -10.25316 -10.25023
 Alpha  occ. eigenvalues --  -10.24991 -10.24807 -10.24174 -10.23157  -1.20720
 Alpha  occ. eigenvalues --   -1.18907  -1.15310  -1.14257  -1.12262  -1.09919
 Alpha  occ. eigenvalues --   -1.06994  -1.02368  -1.01011  -0.92342  -0.92300
 Alpha  occ. eigenvalues --   -0.89776  -0.88733  -0.86742  -0.84905  -0.82313
 Alpha  occ. eigenvalues --   -0.79423  -0.76819  -0.76085  -0.75943  -0.75717
 Alpha  occ. eigenvalues --   -0.75393  -0.75344  -0.71995  -0.70690  -0.69351
 Alpha  occ. eigenvalues --   -0.68134  -0.67487  -0.65633  -0.65374  -0.64523
 Alpha  occ. eigenvalues --   -0.64155  -0.63627  -0.61790  -0.61663  -0.59410
 Alpha  occ. eigenvalues --   -0.58312  -0.57213  -0.56882  -0.56121  -0.55641
 Alpha  occ. eigenvalues --   -0.54534  -0.54271  -0.54204  -0.53544  -0.53383
 Alpha  occ. eigenvalues --   -0.53065  -0.52185  -0.51657  -0.51174  -0.50899
 Alpha  occ. eigenvalues --   -0.50498  -0.49623  -0.48709  -0.48345  -0.47854
 Alpha  occ. eigenvalues --   -0.47695  -0.46921  -0.46463  -0.46277  -0.45872
 Alpha  occ. eigenvalues --   -0.45197  -0.45101  -0.44605  -0.43468  -0.43248
 Alpha  occ. eigenvalues --   -0.42797  -0.42002  -0.41364  -0.41321  -0.41308
 Alpha  occ. eigenvalues --   -0.41032  -0.40883  -0.40461  -0.39268  -0.39195
 Alpha  occ. eigenvalues --   -0.38850  -0.38048  -0.36527  -0.36111  -0.35396
 Alpha  occ. eigenvalues --   -0.34054  -0.33529  -0.27786
 Alpha virt. eigenvalues --   -0.13323  -0.13072  -0.08249  -0.07554  -0.07358
 Alpha virt. eigenvalues --   -0.05962  -0.05763  -0.02391  -0.01537  -0.00707
 Alpha virt. eigenvalues --    0.00086   0.00939   0.01075   0.02384   0.03018

 Mulliken charges:
               1
     1  N   -0.751912
     2  H    0.422217
     3  H    0.422219
     4  H    0.440790
     5  C   -0.276530
     6  H    0.247705
     7  H    0.247992
     8  C    0.642195
     9  O   -0.534100
    10  N   -0.603781
    11  H    0.376965
    12  C   -0.069441
    13  H    0.192806
    14  C    0.628277
    15  C   -0.259227
    16  H    0.159205
    17  H    0.152964
    18  O   -0.550961
    19  C   -0.098423
    20  H    0.146023
    21  C   -0.454259
    22  H    0.151380
    23  H    0.172543
    24  H    0.137079
    25  C   -0.448193
    26  H    0.146542
    27  H    0.149330
    28  H    0.164996
    29  N   -0.622406
    30  H    0.377459
    31  C   -0.060454
    32  H    0.179106
    33  C    0.634361
    34  C   -0.072206
    35  H    0.156189
    36  O   -0.551130
    37  C   -0.456793
    38  H    0.160179
    39  H    0.159243
    40  H    0.144712
    41  C   -0.474969
    42  H    0.160660
    43  H    0.165550
    44  H    0.152680
    45  N   -0.623368
    46  H    0.363001
    47  C   -0.034303
    48  H    0.198830
    49  C    0.585662
    50  C   -0.268809
    51  H    0.169488
    52  H    0.146509
    53  O   -0.467649
    54  C   -0.269449
    55  H    0.142717
    56  H    0.150934
    57  C   -0.248971
    58  H    0.147973
    59  H    0.126494
    60  C   -0.135897
    61  H    0.115221
    62  H    0.141607
    63  N   -0.717016
    64  H    0.294048
    65  H    0.301851
    66  O   -0.551231
    67  H    0.425776
 Sum of Mulliken charges =   1.00000

 Dipole moment (field-independent basis, Debye):
    X=            -13.8609    Y=              4.8670    Z=             10.3151  Tot=             17.9503
 Quadrupole moment (field-independent basis, Debye-Ang):
   XX=            -45.9371   YY=           -164.6483   ZZ=            -68.4953
   XY=            -32.9113   XZ=           -112.6682   YZ=             15.9225

 Normal termination of Gaussian 16 at Fri May 27 02:44:12 2022.
