 Gaussian 16, Revision C.01,
 Gaussian 16:  ES64L-G16RevC.01  3-Jul-2019

 ----------------------------------------------------------------------
 # B3LYP/6-31G* empiricaldispersion=gd3 guess=read geom=check nosymm in
 tegral(ultrafinegrid)
 ----------------------------------------------------------------------

 ------------------------------------------------------
 Candidate Structure: Conf:885 Charge calc in gas phase
 ------------------------------------------------------
 Structure from the checkpoint file:  "conf-885.chk"
 Charge =  1 Multiplicity = 1

                          Input orientation:
 ---------------------------------------------------------------------
 Center     Atomic      Atomic             Coordinates (Angstroms)
 Number     Number       Type             X           Y           Z
 ---------------------------------------------------------------------
      1          7           0       -4.224364    3.469516    0.349898
      2          1           0       -3.981627    2.942563    1.189314
      3          1           0       -5.124494    3.942317    0.404371
      4          6           0       -4.034776    2.668664   -0.863022
      5          1           0       -4.987601    2.400328   -1.343905
      6          6           0       -3.289306    1.386045   -0.483073
      7          6           0       -3.161099    3.433214   -1.912726
      8          1           0       -3.245292    2.947653   -2.889585
      9          1           0       -3.590128    4.436995   -1.999806
     10          8           0       -2.867062    1.239701    0.698315
     11          6           0       -1.694204    3.541862   -1.531636
     12          6           0       -1.311209    4.131160   -0.315491
     13          1           0       -2.093790    4.439503    0.365396
     14          6           0       -0.698965    3.120365   -2.424514
     15          1           0       -0.981220    2.640356   -3.355753
     16          6           0        0.039689    4.325299   -0.019263
     17          1           0        0.321758    4.812593    0.907914
     18          6           0        0.652104    3.346563   -2.143049
     19          1           0        1.407913    3.083349   -2.875766
     20          6           0        1.026262    3.955892   -0.941537
     21          1           0        2.070509    4.166410   -0.739286
     22          7           0       -3.078492    0.467159   -1.449434
     23          6           0       -2.282075   -0.763606   -1.186174
     24          1           0       -2.316357   -0.986039   -0.121880
     25          6           0       -0.856091   -0.473401   -1.624486
     26          6           0       -2.948470   -1.864117   -2.073398
     27          1           0       -2.231078   -2.214309   -2.815068
     28          1           0       -3.284713   -2.705360   -1.465027
     29          8           0       -0.726474   -0.402462   -2.976539
     30          6           0       -4.139752   -1.152109   -2.781707
     31          1           0       -4.303227   -1.532683   -3.791631
     32          1           0       -5.055100   -1.275038   -2.196094
     33          6           0       -3.733756    0.336720   -2.782483
     34          1           0       -4.582717    1.012171   -2.870149
     35          1           0       -2.991684    0.540251   -3.557621
     36          7           0        0.079100   -0.272712   -0.759267
     37          1           0       -0.288848   -0.109639    0.788200
     38          6           0        1.434187    0.178275   -1.221343
     39          1           0        1.304268    0.884198   -2.048726
     40          6           0        2.201722   -1.024291   -1.742811
     41          6           0        2.203593    0.856741   -0.082760
     42          1           0        1.727556    1.825705    0.076898
     43          1           0        3.218343    1.057503   -0.441595
     44          8           0        3.123604   -1.625010   -1.234187
     45          6           0        2.255808    0.028748    1.232399
     46          1           0        1.711152   -0.912128    1.101338
     47          1           0        3.288857   -0.254465    1.449805
     48          6           0        1.691350    0.806157    2.449785
     49          1           0        2.339538    1.663290    2.668862
     50          1           0        1.708392    0.155490    3.333396
     51          6           0        0.266127    1.350324    2.242405
     52          1           0       -0.139522    1.764054    3.168801
     53          1           0        0.227050    2.121815    1.470009
     54          7           0       -0.664621    0.246676    1.759643
     55          1           0       -1.619391    0.637947    1.502722
     56          1           0       -0.735061   -0.515642    2.445878
     57          8           0        1.656348   -1.386393   -2.994983
     58          1           0        0.211894   -0.686128   -3.265181
     59          1           0        2.113118   -2.185510   -3.377244
 ---------------------------------------------------------------------

 SCF Done:  E(RB3LYP) =  -1300.59728874     A.U. after   13 cycles

 Alpha  occ. eigenvalues --  -19.33623 -19.30765 -19.27855 -19.25117 -14.52020
 Alpha  occ. eigenvalues --  -14.49777 -14.47130 -14.40678 -10.45511 -10.42761
 Alpha  occ. eigenvalues --  -10.41763 -10.36493 -10.36058 -10.35107 -10.34235
 Alpha  occ. eigenvalues --  -10.33721 -10.30764 -10.30529 -10.30325 -10.29880
 Alpha  occ. eigenvalues --  -10.29562 -10.28976 -10.28925 -10.28497 -10.28372
 Alpha  occ. eigenvalues --  -10.28350 -10.28193 -10.27393  -1.22438  -1.19175
 Alpha  occ. eigenvalues --   -1.15848  -1.14563  -1.07433  -1.06842  -1.04188
 Alpha  occ. eigenvalues --   -0.98180  -0.94585  -0.92830  -0.91256  -0.89098
 Alpha  occ. eigenvalues --   -0.87293  -0.86435  -0.83585  -0.82448  -0.81855
 Alpha  occ. eigenvalues --   -0.78844  -0.77348  -0.75366  -0.72802  -0.71816
 Alpha  occ. eigenvalues --   -0.70978  -0.69752  -0.69517  -0.68355  -0.68031
 Alpha  occ. eigenvalues --   -0.67210  -0.66727  -0.64164  -0.63226  -0.62675
 Alpha  occ. eigenvalues --   -0.62027  -0.61246  -0.59719  -0.59511  -0.58407
 Alpha  occ. eigenvalues --   -0.57743  -0.57702  -0.57023  -0.55869  -0.55520
 Alpha  occ. eigenvalues --   -0.55211  -0.55130  -0.54540  -0.54154  -0.53734
 Alpha  occ. eigenvalues --   -0.53120  -0.52623  -0.51331  -0.51082  -0.50827
 Alpha  occ. eigenvalues --   -0.50302  -0.49903  -0.49497  -0.48763  -0.47873
 Alpha  occ. eigenvalues --   -0.47547  -0.47159  -0.46943  -0.46299  -0.46046
 Alpha  occ. eigenvalues --   -0.45518  -0.45211  -0.44705  -0.44487  -0.44282
 Alpha  occ. eigenvalues --   -0.43362  -0.43003  -0.42290  -0.40880  -0.39458
 Alpha  occ. eigenvalues --   -0.38733  -0.37642  -0.34363  -0.33803  -0.32093
 Alpha virt. eigenvalues --   -0.14379  -0.12627  -0.10579  -0.09864  -0.09502
 Alpha virt. eigenvalues --   -0.06166  -0.05542  -0.02965  -0.02324  -0.00728
 Alpha virt. eigenvalues --   -0.00412   0.00032   0.00971   0.01354   0.01610

 Mulliken charges:
               1
     1  N   -0.751047
     2  H    0.337762
     3  H    0.323788
     4  C   -0.058678
     5  H    0.157993
     6  C    0.628572
     7  C   -0.328751
     8  H    0.147163
     9  H    0.187955
    10  O   -0.599001
    11  C    0.122468
    12  C   -0.164017
    13  H    0.182350
    14  C   -0.189887
    15  H    0.135921
    16  C   -0.152615
    17  H    0.146831
    18  C   -0.145534
    19  H    0.143114
    20  C   -0.144864
    21  H    0.148856
    22  N   -0.422804
    23  C   -0.052253
    24  H    0.170135
    25  C    0.620105
    26  C   -0.308958
    27  H    0.181136
    28  H    0.178858
    29  O   -0.633047
    30  C   -0.285311
    31  H    0.180445
    32  H    0.171942
    33  C   -0.163856
    34  H    0.186802
    35  H    0.198344
    36  N   -0.547117
    37  H    0.439269
    38  C   -0.093456
    39  H    0.189009
    40  C    0.640180
    41  C   -0.308362
    42  H    0.176686
    43  H    0.177488
    44  O   -0.406282
    45  C   -0.282619
    46  H    0.147913
    47  H    0.186118
    48  C   -0.288553
    49  H    0.178374
    50  H    0.160869
    51  C   -0.194603
    52  H    0.195125
    53  H    0.212005
    54  N   -0.824141
    55  H    0.447284
    56  H    0.370883
    57  O   -0.645820
    58  H    0.474447
    59  H    0.445383
 Sum of Mulliken charges =   1.00000

 Dipole moment (field-independent basis, Debye):
    X=             -5.5335    Y=              0.9950    Z=             -3.0207  Tot=              6.3823
 Quadrupole moment (field-independent basis, Debye-Ang):
   XX=           -121.6518   YY=           -147.8956   ZZ=           -125.6026
   XY=             -3.6285   XZ=              7.6883   YZ=              9.5500

 Normal termination of Gaussian 16 at Sat Jul  9 03:34:17 2022.
