 Gaussian 16, Revision C.01,
 Gaussian 16:  ES64L-G16RevC.01  3-Jul-2019

 ----------------------------------------------------------------------
 # B3LYP/6-31G* empiricaldispersion=gd3bj guess=read geom=check nosymm
 integral(ultrafinegrid)
 ----------------------------------------------------------------------

 ------------------------------------------------------
 Candidate Structure: Conf:304 Charge calc in gas phase
 ------------------------------------------------------
 Structure from the checkpoint file:  "conf-304.chk"
 Charge =  1 Multiplicity = 1

                          Input orientation:
 ---------------------------------------------------------------------
 Center     Atomic      Atomic             Coordinates (Angstroms)
 Number     Number       Type             X           Y           Z
 ---------------------------------------------------------------------
      1          7           0       -6.591712   -2.396690   -7.780147
      2          1           0       -7.442409   -2.196477   -7.225420
      3          1           0       -6.223225   -1.477834   -8.096892
      4          1           0       -6.774009   -3.036366   -8.567418
      5          6           0       -5.497669   -2.978174   -6.933011
      6          1           0       -5.950477   -3.695691   -6.244765
      7          6           0       -4.916851   -1.747382   -6.220239
      8          6           0       -4.500498   -3.668684   -7.890706
      9          1           0       -3.997435   -2.882558   -8.465323
     10          8           0       -4.909174   -0.687250   -6.852323
     11          6           0       -3.476396   -4.501654   -7.136399
     12          1           0       -2.903650   -3.882406   -6.438974
     13          1           0       -2.775464   -4.957870   -7.840212
     14          1           0       -3.964522   -5.298829   -6.560706
     15          8           0       -5.255217   -4.417226   -8.844494
     16          1           0       -5.316092   -5.340934   -8.550604
     17          7           0       -4.516870   -1.908006   -4.959137
     18          1           0       -4.466232   -2.814119   -4.498153
     19          6           0       -4.291307   -0.788967   -4.060336
     20          1           0       -3.866009    0.037075   -4.632866
     21          6           0       -3.335520   -1.313744   -2.977826
     22          6           0       -5.635368   -0.354048   -3.381351
     23          1           0       -5.815787   -1.028341   -2.537407
     24          1           0       -5.498128    0.650869   -2.969689
     25          8           0       -3.302281   -2.526476   -2.746382
     26          6           0       -6.821247   -0.403404   -4.316941
     27          6           0       -7.604556   -1.562516   -4.390269
     28          1           0       -7.396917   -2.388978   -3.715042
     29          6           0       -7.125107    0.662596   -5.173547
     30          1           0       -6.522951    1.565765   -5.135779
     31          6           0       -8.666105   -1.660508   -5.297798
     32          1           0       -9.292670   -2.549104   -5.304155
     33          6           0       -8.176864    0.573550   -6.083822
     34          1           0       -8.400856    1.414957   -6.732343
     35          6           0       -8.953265   -0.588633   -6.151957
     36          1           0       -9.795370   -0.644107   -6.836425
     37          7           0       -2.648504   -0.379762   -2.314669
     38          1           0       -2.734556    0.615589   -2.517070
     39          6           0       -1.804097   -0.652827   -1.161485
     40          1           0       -2.341794   -1.325927   -0.483480
     41          6           0       -1.593692    0.716016   -0.491289
     42          6           0       -0.467211   -1.293300   -1.568837
     43          1           0        0.137977   -1.530368   -0.689542
     44          1           0        0.109705   -0.604997   -2.190938
     45          1           0       -0.664818   -2.217961   -2.116580
     46          8           0       -1.925014    1.750244   -1.067396
     47          7           0       -1.051948    0.684667    0.751286
     48          1           0       -0.611894   -0.187554    1.019774
     49          6           0       -0.401286    1.878868    1.282399
     50          1           0       -1.073856    2.718312    1.093097
     51          6           0        0.904246    2.102126    0.482057
     52          6           0       -0.179034    1.708487    2.810859
     53          1           0        0.838091    1.345316    3.002999
     54          1           0       -0.853340    0.903598    3.121053
     55          8           0        1.316550    1.233981   -0.306283
     56          6           0       -0.472531    2.935346    3.711137
     57          1           0       -1.202272    3.588429    3.216659
     58          1           0       -0.919215    2.587238    4.645018
     59          6           0        0.769772    3.762526    4.079932
     60          8           0        1.127108    3.771398    5.277769
     61          8           0        1.356834    4.372384    3.116041
     62          7           0        1.530203    3.261728    0.724124
     63          1           0        1.281406    3.791057    1.594831
     64          6           0        2.876690    3.521987    0.206263
     65          1           0        2.925550    3.113966   -0.807503
     66          6           0        3.850857    2.741761    1.103453
     67          6           0        3.161815    5.016881    0.201822
     68          1           0        4.181241    5.209402   -0.145488
     69          1           0        3.050187    5.433539    1.205892
     70          1           0        2.459976    5.526317   -0.463981
     71          8           0        4.472558    3.257834    2.039712
     72          7           0        3.908266    1.419189    0.842575
     73          1           0        3.230693    1.073503    0.165689
     74          6           0        4.462013    0.473957    1.799596
     75          1           0        3.841748    0.486726    2.707570
     76          6           0        5.900426    0.862298    2.181404
     77          6           0        4.480132   -0.942686    1.206679
     78          1           0        5.183040   -0.939238    0.366088
     79          1           0        4.901837   -1.609265    1.970749
     80          8           0        6.782213    1.014510    1.348025
     81          6           0        3.119460   -1.504277    0.750278
     82          1           0        2.733622   -0.888441   -0.072228
     83          6           0        3.311132   -2.926847    0.209696
     84          1           0        3.661963   -3.602689    0.999560
     85          1           0        4.048477   -2.948045   -0.600448
     86          1           0        2.369174   -3.329523   -0.180593
     87          6           0        2.072592   -1.481120    1.869553
     88          1           0        2.420051   -2.032835    2.752037
     89          1           0        1.140073   -1.954557    1.536492
     90          1           0        1.835076   -0.459604    2.181031
     91          7           0        6.110220    0.928838    3.526910
     92          1           0        5.306849    0.917972    4.138843
     93          6           0        7.391680    1.266523    4.108059
     94          1           0        8.127677    1.126430    3.306623
     95          6           0        7.791151    0.316187    5.234158
     96          6           0        7.436016    2.728349    4.593474
     97          1           0        8.275591    2.844607    5.285180
     98          1           0        6.518046    2.911073    5.167266
     99          8           0        8.682400    0.543368    6.020841
    100          6           0        7.549616    3.724837    3.432028
    101          1           0        7.027536    3.341788    2.550379
    102          1           0        8.602229    3.838838    3.146197
    103          6           0        6.975273    5.108752    3.757082
    104          1           0        7.267486    5.824697    2.981423
    105          1           0        7.375614    5.501684    4.697885
    106          7           0        5.514531    5.090344    3.803533
    107          1           0        5.069935    4.696346    2.969041
    108          7           0        5.220869    5.132872    6.140637
    109          1           0        4.614424    5.472556    6.873236
    110          1           0        6.208305    5.272837    6.283134
    111          7           0        3.402960    5.076913    4.718141
    112          1           0        2.954589    4.940339    3.797975
    113          1           0        2.733719    4.698001    5.407412
    114          6           0        4.715458    5.094884    4.878456
    115          8           0        7.058605   -0.819703    5.260592
    116          1           0        7.421499   -1.350914    5.995221
 ---------------------------------------------------------------------

 SCF Done:  E(RB3LYP) =  -2782.56329237     A.U. after    3 cycles

 Alpha  occ. eigenvalues --  -19.29549 -19.25346 -19.25286 -19.21015 -19.19348
 Alpha  occ. eigenvalues --  -19.19313 -19.18348 -19.17547 -19.16259 -19.13234
 Alpha  occ. eigenvalues --  -19.12360 -14.58188 -14.48767 -14.44674 -14.44143
 Alpha  occ. eigenvalues --  -14.42704 -14.42618 -14.41413 -14.41131 -14.39731
 Alpha  occ. eigenvalues --  -14.39472 -10.42580 -10.39330 -10.39018 -10.38846
 Alpha  occ. eigenvalues --  -10.38218 -10.37566 -10.36022 -10.34498 -10.34431
 Alpha  occ. eigenvalues --  -10.33941 -10.33755 -10.31254 -10.31010 -10.30703
 Alpha  occ. eigenvalues --  -10.30646 -10.30478 -10.30267 -10.30147 -10.30093
 Alpha  occ. eigenvalues --  -10.29779 -10.29619 -10.29567 -10.29430 -10.29066
 Alpha  occ. eigenvalues --  -10.28895 -10.28420 -10.25045 -10.24986 -10.24688
 Alpha  occ. eigenvalues --  -10.24662 -10.24230 -10.24167 -10.23578 -10.22853
 Alpha  occ. eigenvalues --  -10.22786 -10.22125  -1.18406  -1.16801  -1.16201
 Alpha  occ. eigenvalues --   -1.13160  -1.12279  -1.11283  -1.10120  -1.08765
 Alpha  occ. eigenvalues --   -1.08240  -1.07672  -1.07050  -1.05839  -1.05540
 Alpha  occ. eigenvalues --   -1.01411  -0.99480  -0.98458  -0.98283  -0.97738
 Alpha  occ. eigenvalues --   -0.97546  -0.96685  -0.96443  -0.94890  -0.92739
 Alpha  occ. eigenvalues --   -0.89834  -0.87072  -0.86531  -0.85710  -0.85470
 Alpha  occ. eigenvalues --   -0.85378  -0.84081  -0.82691  -0.82277  -0.81255
 Alpha  occ. eigenvalues --   -0.79410  -0.78011  -0.76286  -0.76152  -0.74877
 Alpha  occ. eigenvalues --   -0.74247  -0.73546  -0.73121  -0.71771  -0.71594
 Alpha  occ. eigenvalues --   -0.70919  -0.70651  -0.70197  -0.69690  -0.69129
 Alpha  occ. eigenvalues --   -0.67865  -0.67520  -0.67405  -0.66069  -0.65704
 Alpha  occ. eigenvalues --   -0.65039  -0.64747  -0.64499  -0.63891  -0.63476
 Alpha  occ. eigenvalues --   -0.62680  -0.62334  -0.61660  -0.61480  -0.61267
 Alpha  occ. eigenvalues --   -0.60220  -0.59258  -0.58894  -0.58361  -0.58227
 Alpha  occ. eigenvalues --   -0.57514  -0.57261  -0.56729  -0.56397  -0.56272
 Alpha  occ. eigenvalues --   -0.55779  -0.55675  -0.54963  -0.54921  -0.54354
 Alpha  occ. eigenvalues --   -0.53874  -0.53515  -0.53280  -0.52987  -0.52983
 Alpha  occ. eigenvalues --   -0.52772  -0.52590  -0.52324  -0.52254  -0.51793
 Alpha  occ. eigenvalues --   -0.51479  -0.51433  -0.51222  -0.50967  -0.50559
 Alpha  occ. eigenvalues --   -0.50275  -0.50253  -0.49797  -0.49133  -0.48779
 Alpha  occ. eigenvalues --   -0.48468  -0.48291  -0.48085  -0.47834  -0.47427
 Alpha  occ. eigenvalues --   -0.47246  -0.47098  -0.47055  -0.46892  -0.46596
 Alpha  occ. eigenvalues --   -0.46180  -0.45983  -0.45532  -0.45277  -0.45164
 Alpha  occ. eigenvalues --   -0.44976  -0.44638  -0.44594  -0.44531  -0.44465
 Alpha  occ. eigenvalues --   -0.44177  -0.43898  -0.43623  -0.43305  -0.43226
 Alpha  occ. eigenvalues --   -0.42827  -0.42591  -0.42374  -0.41905  -0.41823
 Alpha  occ. eigenvalues --   -0.41417  -0.41093  -0.40437  -0.40380  -0.39908
 Alpha  occ. eigenvalues --   -0.39784  -0.39263  -0.38745  -0.38507  -0.38215
 Alpha  occ. eigenvalues --   -0.38045  -0.37862  -0.37165  -0.35971  -0.35900
 Alpha  occ. eigenvalues --   -0.34974  -0.34573  -0.34470  -0.33937  -0.33656
 Alpha  occ. eigenvalues --   -0.33445  -0.32674  -0.32217  -0.31741  -0.31309
 Alpha  occ. eigenvalues --   -0.30499  -0.29696  -0.29566  -0.28276  -0.27929
 Alpha  occ. eigenvalues --   -0.26492
 Alpha virt. eigenvalues --   -0.12865  -0.11698  -0.11262  -0.07345  -0.06705
 Alpha virt. eigenvalues --   -0.05037  -0.04954  -0.04715  -0.04555  -0.03720
 Alpha virt. eigenvalues --   -0.03582  -0.02867  -0.02507  -0.02047  -0.01136

 Mulliken charges:
               1
     1  N   -0.749639
     2  H    0.409406
     3  H    0.419425
     4  H    0.415836
     5  C   -0.130550
     6  H    0.190163
     7  C    0.663026
     8  C    0.131464
     9  H    0.190997
    10  O   -0.534752
    11  C   -0.501652
    12  H    0.194382
    13  H    0.206790
    14  H    0.162098
    15  O   -0.629737
    16  H    0.420372
    17  N   -0.602981
    18  H    0.361102
    19  C   -0.060860
    20  H    0.199483
    21  C    0.636635
    22  C   -0.370698
    23  H    0.180797
    24  H    0.186892
    25  O   -0.553300
    26  C    0.163913
    27  C   -0.189750
    28  H    0.147516
    29  C   -0.143872
    30  H    0.159124
    31  C   -0.195593
    32  H    0.158231
    33  C   -0.129967
    34  H    0.165124
    35  C   -0.170448
    36  H    0.161544
    37  N   -0.617602
    38  H    0.363982
    39  C   -0.057258
    40  H    0.180643
    41  C    0.636821
    42  C   -0.451674
    43  H    0.164427
    44  H    0.182913
    45  H    0.174961
    46  O   -0.535375
    47  N   -0.602763
    48  H    0.339722
    49  C   -0.058784
    50  H    0.200965
    51  C    0.617941
    52  C   -0.316651
    53  H    0.162488
    54  H    0.159053
    55  O   -0.583253
    56  C   -0.336479
    57  H    0.151663
    58  H    0.159910
    59  C    0.600807
    60  O   -0.575393
    61  O   -0.636284
    62  N   -0.610670
    63  H    0.410515
    64  C   -0.067531
    65  H    0.175913
    66  C    0.643352
    67  C   -0.466640
    68  H    0.156872
    69  H    0.179364
    70  H    0.164519
    71  O   -0.569387
    72  N   -0.616989
    73  H    0.388634
    74  C   -0.041127
    75  H    0.138946
    76  C    0.659193
    77  C   -0.288975
    78  H    0.174238
    79  H    0.150037
    80  O   -0.535139
    81  C   -0.100489
    82  H    0.156928
    83  C   -0.445925
    84  H    0.146799
    85  H    0.151739
    86  H    0.138944
    87  C   -0.468560
    88  H    0.149929
    89  H    0.132456
    90  H    0.153917
    91  N   -0.594488
    92  H    0.333668
    93  C   -0.070161
    94  H    0.221231
    95  C    0.584225
    96  C   -0.279962
    97  H    0.177386
    98  H    0.140871
    99  O   -0.457432
   100  C   -0.283333
   101  H    0.201595
   102  H    0.156073
   103  C   -0.172517
   104  H    0.178994
   105  H    0.143879
   106  N   -0.600214
   107  H    0.399357
   108  N   -0.755338
   109  H    0.368077
   110  H    0.359054
   111  N   -0.790910
   112  H    0.402747
   113  H    0.377060
   114  C    0.759266
   115  O   -0.562626
   116  H    0.417331
 Sum of Mulliken charges =   1.00000

 Dipole moment (field-independent basis, Debye):
    X=            -17.2856    Y=             -8.4116    Z=            -20.0856  Tot=             27.8025
 Quadrupole moment (field-independent basis, Debye-Ang):
   XX=           -131.7759   YY=           -256.1178   ZZ=           -108.5160
   XY=            105.4647   XZ=            221.0544   YZ=            103.5191

 Normal termination of Gaussian 16 at Sat Jul 16 02:11:08 2022.
