 Gaussian 16, Revision C.01,
 Gaussian 16:  ES64L-G16RevC.01  3-Jul-2019

 ----------------------------------------------------------------------
 # B3LYP/6-31G* empiricaldispersion=gd3bj guess=read geom=check nosymm
 integral(ultrafinegrid)
 ----------------------------------------------------------------------

 ------------------------------------------------------
 Candidate Structure: Conf:197 Charge calc in gas phase
 ------------------------------------------------------
 Structure from the checkpoint file:  "conf-197.chk"
 Charge =  1 Multiplicity = 1

                          Input orientation:
 ---------------------------------------------------------------------
 Center     Atomic      Atomic             Coordinates (Angstroms)
 Number     Number       Type             X           Y           Z
 ---------------------------------------------------------------------
      1          7           0       -5.388992   -2.195263   -2.066790
      2          1           0       -4.628207   -0.648414   -2.459942
      3          1           0       -6.400474   -2.077269   -2.051584
      4          1           0       -5.097320   -2.482135   -1.132353
      5          6           0       -5.028813   -3.234524   -3.061948
      6          1           0       -5.315047   -4.244081   -2.726796
      7          6           0       -3.504926   -3.152563   -3.190713
      8          6           0       -5.713530   -2.957730   -4.421141
      9          1           0       -5.239827   -3.639408   -5.147492
     10          8           0       -2.977322   -2.377919   -3.998912
     11          6           0       -7.208348   -3.253308   -4.387512
     12          1           0       -7.402004   -4.295888   -4.114226
     13          1           0       -7.634537   -3.065046   -5.376271
     14          1           0       -7.730041   -2.597976   -3.680501
     15          8           0       -5.558072   -1.611444   -4.813411
     16          1           0       -4.601150   -1.424855   -4.800866
     17          7           0       -2.790403   -3.913479   -2.324750
     18          1           0       -3.350496   -4.505343   -1.721565
     19          6           0       -1.543078   -3.470201   -1.670606
     20          1           0       -1.695710   -2.423530   -1.379857
     21          6           0       -0.252528   -3.406827   -2.494494
     22          6           0       -1.343369   -4.309467   -0.397886
     23          1           0       -1.068209   -5.333022   -0.677123
     24          1           0       -0.479742   -3.889486    0.123692
     25          8           0        0.817126   -3.285327   -1.887066
     26          6           0       -2.573832   -4.334817    0.487545
     27          6           0       -3.278647   -3.158657    0.799646
     28          1           0       -2.954920   -2.203098    0.399455
     29          6           0       -3.053218   -5.550907    0.987719
     30          1           0       -2.524393   -6.470151    0.747939
     31          6           0       -4.421031   -3.208057    1.598880
     32          1           0       -4.948555   -2.287431    1.834709
     33          6           0       -4.194700   -5.600090    1.792091
     34          1           0       -4.545248   -6.555566    2.171326
     35          6           0       -4.883288   -4.428290    2.099854
     36          1           0       -5.773063   -4.463298    2.721533
     37          7           0       -0.360192   -3.354549   -3.841087
     38          1           0       -1.291959   -3.162902   -4.208599
     39          6           0        0.754107   -2.866942   -4.664736
     40          1           0        1.672545   -3.215309   -4.185434
     41          6           0        0.710900   -1.321628   -4.625186
     42          6           0        0.641242   -3.392912   -6.087373
     43          1           0        1.484735   -3.042332   -6.688082
     44          1           0       -0.273282   -3.026522   -6.562272
     45          1           0        0.635924   -4.486321   -6.083577
     46          8           0        0.338071   -0.638594   -5.572330
     47          7           0        1.044333   -0.799409   -3.410178
     48          1           0        1.328205   -1.426286   -2.660107
     49          6           0        0.861110    0.597147   -3.090904
     50          1           0        0.825138    1.144700   -4.037880
     51          6           0        2.038573    1.052450   -2.235439
     52          6           0       -0.437708    0.834240   -2.276787
     53          1           0       -0.437152    1.850364   -1.862622
     54          1           0       -0.419138    0.149442   -1.425248
     55          8           0        2.652874    0.263866   -1.509212
     56          6           0       -1.720421    0.588683   -3.075186
     57          1           0       -2.079938    1.491819   -3.577672
     58          1           0       -1.552390   -0.142957   -3.874226
     59          6           0       -2.841133   -0.001613   -2.242285
     60          8           0       -4.014679    0.062379   -2.848061
     61          8           0       -2.665644   -0.550219   -1.157016
     62          7           0        2.312490    2.381629   -2.246365
     63          1           0        1.770732    2.993194   -2.842528
     64          6           0        3.378601    2.973448   -1.433773
     65          1           0        4.199830    2.248465   -1.424339
     66          6           0        2.901052    3.151296    0.025787
     67          6           0        3.841107    4.286165   -2.049771
     68          1           0        4.692656    4.686943   -1.493988
     69          1           0        3.039561    5.032008   -2.027310
     70          1           0        4.152887    4.124737   -3.085290
     71          8           0        2.738656    4.263463    0.556121
     72          7           0        2.640877    2.003467    0.663619
     73          1           0        2.793547    1.136033    0.145505
     74          6           0        2.148282    1.957048    2.022139
     75          1           0        1.341128    2.692428    2.119189
     76          6           0        3.257383    2.399702    2.996936
     77          6           0        1.610706    0.547095    2.334212
     78          1           0        2.448017   -0.162665    2.303263
     79          1           0        1.231405    0.531153    3.363930
     80          8           0        4.389236    2.714261    2.613948
     81          6           0        0.487529    0.066738    1.395598
     82          1           0        0.897656    0.000163    0.381249
     83          6           0        0.045549   -1.345141    1.796279
     84          1           0       -0.371324   -1.358652    2.811357
     85          1           0        0.881644   -2.052367    1.760057
     86          1           0       -0.731134   -1.704065    1.115946
     87          6           0       -0.706181    1.028267    1.375912
     88          1           0       -1.117709    1.161264    2.385405
     89          1           0       -1.501214    0.634529    0.736048
     90          1           0       -0.433765    2.017366    0.989135
     91          7           0        2.886534    2.445499    4.293812
     92          1           0        1.979662    2.087699    4.561676
     93          6           0        3.813435    2.760152    5.379694
     94          1           0        4.627978    2.020408    5.365281
     95          6           0        3.130289    2.559911    6.732038
     96          6           0        4.430935    4.175740    5.271608
     97          1           0        4.372845    4.655518    6.251277
     98          1           0        3.799931    4.755375    4.590616
     99          8           0        3.544984    3.016582    7.767833
    100          6           0        5.894801    4.175039    4.789970
    101          1           0        6.101870    3.275061    4.205707
    102          1           0        6.575639    4.170220    5.647247
    103          6           0        6.230053    5.390906    3.929079
    104          1           0        7.305158    5.400957    3.703954
    105          1           0        5.982782    6.315724    4.465867
    106          7           0        5.457722    5.350713    2.680645
    107          1           0        5.001181    4.461302    2.445916
    108          7           0        6.009219    7.527232    2.108893
    109          1           0        5.929476    8.317328    1.486759
    110          1           0        6.799073    7.523674    2.735720
    111          7           0        4.525572    6.319002    0.792555
    112          1           0        3.840559    5.550703    0.674080
    113          1           0        4.453513    7.107273    0.166702
    114          6           0        5.329054    6.386755    1.856851
    115          8           0        2.030651    1.773709    6.648696
    116          1           0        1.679570    1.675359    7.554593
 ---------------------------------------------------------------------

 SCF Done:  E(RB3LYP) =  -2782.59895411     A.U. after    2 cycles

 Alpha  occ. eigenvalues --  -19.30287 -19.24048 -19.22555 -19.22532 -19.22446
 Alpha  occ. eigenvalues --  -19.21362 -19.20800 -19.19221 -19.18183 -19.17667
 Alpha  occ. eigenvalues --  -19.17007 -14.50482 -14.48892 -14.48285 -14.46831
 Alpha  occ. eigenvalues --  -14.46272 -14.45180 -14.44026 -14.41440 -14.41293
 Alpha  occ. eigenvalues --  -14.41165 -10.45871 -10.42477 -10.39466 -10.38942
 Alpha  occ. eigenvalues --  -10.38074 -10.37262 -10.37081 -10.34923 -10.34758
 Alpha  occ. eigenvalues --  -10.34494 -10.34020 -10.33531 -10.32993 -10.30724
 Alpha  occ. eigenvalues --  -10.30139 -10.30072 -10.29660 -10.29097 -10.28895
 Alpha  occ. eigenvalues --  -10.28535 -10.28250 -10.27955 -10.26384 -10.26372
 Alpha  occ. eigenvalues --  -10.26133 -10.25821 -10.25558 -10.25440 -10.25389
 Alpha  occ. eigenvalues --  -10.25326 -10.25316 -10.25043 -10.24080 -10.23872
 Alpha  occ. eigenvalues --  -10.23276 -10.22683  -1.21011  -1.14899  -1.14659
 Alpha  occ. eigenvalues --   -1.14352  -1.13751  -1.13025  -1.12453  -1.12008
 Alpha  occ. eigenvalues --   -1.09759  -1.08708  -1.06404  -1.05704  -1.03785
 Alpha  occ. eigenvalues --   -1.03476  -1.02962  -1.02421  -1.02003  -1.00887
 Alpha  occ. eigenvalues --   -0.98684  -0.97867  -0.97057  -0.92077  -0.91106
 Alpha  occ. eigenvalues --   -0.89643  -0.87774  -0.86653  -0.86056  -0.85710
 Alpha  occ. eigenvalues --   -0.83106  -0.82767  -0.82148  -0.80855  -0.80091
 Alpha  occ. eigenvalues --   -0.79883  -0.79465  -0.76716  -0.76331  -0.75859
 Alpha  occ. eigenvalues --   -0.75093  -0.73731  -0.73335  -0.72459  -0.71735
 Alpha  occ. eigenvalues --   -0.71500  -0.70678  -0.69606  -0.68687  -0.68057
 Alpha  occ. eigenvalues --   -0.68007  -0.67933  -0.67075  -0.66796  -0.64876
 Alpha  occ. eigenvalues --   -0.64775  -0.64514  -0.64391  -0.63693  -0.63570
 Alpha  occ. eigenvalues --   -0.63337  -0.63141  -0.62630  -0.62163  -0.60173
 Alpha  occ. eigenvalues --   -0.59756  -0.59464  -0.59420  -0.58775  -0.58428
 Alpha  occ. eigenvalues --   -0.58124  -0.57906  -0.57857  -0.57284  -0.57151
 Alpha  occ. eigenvalues --   -0.56666  -0.56273  -0.55795  -0.55652  -0.55236
 Alpha  occ. eigenvalues --   -0.55113  -0.54287  -0.53986  -0.53841  -0.53267
 Alpha  occ. eigenvalues --   -0.53124  -0.52910  -0.52565  -0.52328  -0.52147
 Alpha  occ. eigenvalues --   -0.51808  -0.51675  -0.51554  -0.51261  -0.50497
 Alpha  occ. eigenvalues --   -0.50339  -0.49897  -0.49767  -0.49393  -0.49239
 Alpha  occ. eigenvalues --   -0.48924  -0.48846  -0.48464  -0.48157  -0.48033
 Alpha  occ. eigenvalues --   -0.47970  -0.47810  -0.47302  -0.46751  -0.46680
 Alpha  occ. eigenvalues --   -0.46456  -0.46267  -0.46185  -0.46020  -0.45768
 Alpha  occ. eigenvalues --   -0.45663  -0.45311  -0.45131  -0.44869  -0.44305
 Alpha  occ. eigenvalues --   -0.44201  -0.43915  -0.43684  -0.43410  -0.43178
 Alpha  occ. eigenvalues --   -0.42920  -0.42594  -0.42552  -0.42208  -0.41980
 Alpha  occ. eigenvalues --   -0.41650  -0.41465  -0.41308  -0.41118  -0.40863
 Alpha  occ. eigenvalues --   -0.40609  -0.40286  -0.39974  -0.39753  -0.39577
 Alpha  occ. eigenvalues --   -0.38767  -0.38309  -0.38081  -0.37833  -0.37133
 Alpha  occ. eigenvalues --   -0.36326  -0.36096  -0.35338  -0.35174  -0.34938
 Alpha  occ. eigenvalues --   -0.34737  -0.34341  -0.33790  -0.33018  -0.32492
 Alpha  occ. eigenvalues --   -0.31612  -0.31481  -0.31037  -0.30915  -0.30525
 Alpha  occ. eigenvalues --   -0.29451
 Alpha virt. eigenvalues --   -0.09734  -0.09541  -0.09067  -0.08466  -0.07820
 Alpha virt. eigenvalues --   -0.07322  -0.06829  -0.06548  -0.06106  -0.05274
 Alpha virt. eigenvalues --   -0.04226  -0.03130  -0.02974  -0.01826  -0.01124

 Mulliken charges:
               1
     1  N   -0.779066
     2  H    0.468739
     3  H    0.340598
     4  H    0.339354
     5  C   -0.085644
     6  H    0.139321
     7  C    0.635663
     8  C    0.145619
     9  H    0.129763
    10  O   -0.556801
    11  C   -0.461450
    12  H    0.146046
    13  H    0.182197
    14  H    0.145508
    15  O   -0.637486
    16  H    0.428097
    17  N   -0.610507
    18  H    0.346535
    19  C   -0.094084
    20  H    0.231569
    21  C    0.633543
    22  C   -0.376224
    23  H    0.162230
    24  H    0.204481
    25  O   -0.556012
    26  C    0.108520
    27  C   -0.211867
    28  H    0.193585
    29  C   -0.191377
    30  H    0.140362
    31  C   -0.157341
    32  H    0.140798
    33  C   -0.126955
    34  H    0.146397
    35  C   -0.129101
    36  H    0.143767
    37  N   -0.609734
    38  H    0.380662
    39  C   -0.074383
    40  H    0.184901
    41  C    0.616963
    42  C   -0.448131
    43  H    0.166614
    44  H    0.172674
    45  H    0.157494
    46  O   -0.527881
    47  N   -0.613361
    48  H    0.379523
    49  C   -0.078434
    50  H    0.184002
    51  C    0.645990
    52  C   -0.283217
    53  H    0.136445
    54  H    0.191333
    55  O   -0.546750
    56  C   -0.376858
    57  H    0.176845
    58  H    0.228179
    59  C    0.601800
    60  O   -0.592402
    61  O   -0.506702
    62  N   -0.600396
    63  H    0.346071
    64  C   -0.057884
    65  H    0.201922
    66  C    0.651246
    67  C   -0.487376
    68  H    0.164434
    69  H    0.162827
    70  H    0.180873
    71  O   -0.588182
    72  N   -0.606167
    73  H    0.402056
    74  C   -0.060836
    75  H    0.189505
    76  C    0.654347
    77  C   -0.306592
    78  H    0.162492
    79  H    0.140365
    80  O   -0.561809
    81  C   -0.089169
    82  H    0.151965
    83  C   -0.461340
    84  H    0.140817
    85  H    0.156182
    86  H    0.170502
    87  C   -0.478473
    88  H    0.133738
    89  H    0.194309
    90  H    0.136829
    91  N   -0.631473
    92  H    0.372147
    93  C   -0.013195
    94  H    0.209761
    95  C    0.574616
    96  C   -0.294274
    97  H    0.197340
    98  H    0.162395
    99  O   -0.433636
   100  C   -0.311629
   101  H    0.191355
   102  H    0.175328
   103  C   -0.163703
   104  H    0.175046
   105  H    0.175040
   106  N   -0.632868
   107  H    0.420609
   108  N   -0.764854
   109  H    0.371583
   110  H    0.381685
   111  N   -0.811572
   112  H    0.449251
   113  H    0.356297
   114  C    0.805302
   115  O   -0.582347
   116  H    0.435191
 Sum of Mulliken charges =   1.00000

 Dipole moment (field-independent basis, Debye):
    X=             12.4473    Y=             16.1060    Z=             10.0954  Tot=             22.7213
 Quadrupole moment (field-independent basis, Debye-Ang):
   XX=           -201.0028   YY=           -153.1512   ZZ=           -298.9352
   XY=            156.9528   XZ=             30.3271   YZ=             38.6013

 Normal termination of Gaussian 16 at Sat Jul 16 02:10:53 2022.
