 Gaussian 16, Revision C.01,
 Gaussian 16:  ES64L-G16RevC.01  3-Jul-2019

 ----------------------------------------------------------------------
 # B3LYP/6-31G* empiricaldispersion=gd3bj guess=read geom=check nosymm
 integral(ultrafinegrid)
 ----------------------------------------------------------------------

 ------------------------------------------------------
 Candidate Structure: Conf:607 Charge calc in gas phase
 ------------------------------------------------------
 Structure from the checkpoint file:  "conf-607.chk"
 Charge =  1 Multiplicity = 1

                          Input orientation:
 ---------------------------------------------------------------------
 Center     Atomic      Atomic             Coordinates (Angstroms)
 Number     Number       Type             X           Y           Z
 ---------------------------------------------------------------------
      1          7           0       -5.629004   -1.638024   -1.112625
      2          1           0       -5.204409   -0.774540   -0.734032
      3          1           0       -6.041650   -1.398021   -2.034590
      4          1           0       -6.308786   -2.048584   -0.458272
      5          6           0       -4.575937   -2.665585   -1.407700
      6          1           0       -3.791628   -2.612770   -0.646389
      7          6           0       -4.025645   -2.236127   -2.772637
      8          6           0       -5.255935   -4.044658   -1.389959
      9          1           0       -6.004142   -4.080454   -2.191033
     10          8           0       -4.785679   -1.660254   -3.562875
     11          6           0       -4.247509   -5.172722   -1.552312
     12          1           0       -3.800998   -5.145490   -2.550995
     13          1           0       -4.751907   -6.134314   -1.421745
     14          1           0       -3.425257   -5.066042   -0.836300
     15          8           0       -6.018211   -4.132989   -0.177395
     16          1           0       -5.409336   -4.406193    0.530004
     17          7           0       -2.729749   -2.500658   -2.931959
     18          1           0       -2.255299   -2.916535   -2.106872
     19          6           0       -1.906923   -1.766348   -3.865078
     20          1           0       -2.522585   -1.494039   -4.727163
     21          6           0       -0.742945   -2.673787   -4.286995
     22          6           0       -1.353940   -0.471908   -3.170081
     23          1           0       -0.535773   -0.762163   -2.503661
     24          1           0       -0.941832    0.196256   -3.935814
     25          8           0       -0.634048   -3.822668   -3.875428
     26          6           0       -2.406651    0.258574   -2.364459
     27          6           0       -3.344070    1.096262   -2.981779
     28          1           0       -3.303884    1.245405   -4.057756
     29          6           0       -2.482214    0.059359   -0.979235
     30          1           0       -1.760623   -0.598386   -0.497692
     31          6           0       -4.341313    1.725568   -2.238405
     32          1           0       -5.058150    2.373297   -2.734672
     33          6           0       -3.476861    0.697107   -0.228326
     34          1           0       -3.496686    0.562348    0.850751
     35          6           0       -4.410885    1.531790   -0.854433
     36          1           0       -5.169212    2.045644   -0.268822
     37          7           0        0.192749   -2.099420   -5.104756
     38          1           0        0.163246   -1.091986   -5.205631
     39          6           0        1.547892   -2.668328   -5.141408
     40          1           0        1.431674   -3.751948   -5.195891
     41          6           0        2.199474   -2.244952   -3.813849
     42          6           0        2.321419   -2.140558   -6.341565
     43          1           0        3.308967   -2.609711   -6.390501
     44          1           0        2.468293   -1.060012   -6.251582
     45          1           0        1.782170   -2.360334   -7.267145
     46          8           0        2.536378   -1.063994   -3.652346
     47          7           0        2.289354   -3.187521   -2.850929
     48          1           0        1.854296   -4.077801   -3.058596
     49          6           0        2.412235   -2.863750   -1.417933
     50          1           0        1.796579   -1.974311   -1.233496
     51          6           0        3.820063   -2.472541   -0.947272
     52          6           0        1.839851   -3.988264   -0.551417
     53          1           0        2.053954   -3.714886    0.482933
     54          1           0        2.399376   -4.914130   -0.742668
     55          8           0        4.237447   -2.819324    0.163844
     56          6           0        0.339644   -4.237591   -0.721223
     57          1           0        0.088514   -4.579621   -1.732509
     58          1           0        0.035247   -5.055467   -0.057927
     59          6           0       -0.588265   -3.044325   -0.435299
     60          8           0       -1.834888   -3.312435   -0.480852
     61          8           0       -0.096328   -1.905102   -0.236216
     62          7           0        4.501213   -1.607279   -1.740285
     63          1           0        3.973048   -1.187103   -2.510042
     64          6           0        5.645665   -0.863502   -1.210638
     65          1           0        6.160262   -1.537958   -0.519962
     66          6           0        5.099835    0.338989   -0.410043
     67          6           0        6.573613   -0.423586   -2.333852
     68          1           0        7.429578    0.123354   -1.928821
     69          1           0        6.053769    0.243751   -3.027373
     70          1           0        6.935387   -1.298579   -2.880849
     71          8           0        5.271973    1.508703   -0.781277
     72          7           0        4.360341    0.006102    0.673945
     73          1           0        4.277057   -0.987065    0.887963
     74          6           0        3.337240    0.904663    1.227736
     75          1           0        3.006315    1.540000    0.398990
     76          6           0        3.968253    1.833808    2.278174
     77          6           0        2.164856    0.094836    1.780135
     78          1           0        1.911460   -0.692519    1.059861
     79          1           0        2.486889   -0.392313    2.707766
     80          8           0        3.693139    1.831681    3.473589
     81          6           0        0.892821    0.919178    2.053219
     82          1           0        1.144448    1.704567    2.776940
     83          6           0        0.349609    1.571903    0.773951
     84          1           0        0.187003    0.813301    0.000776
     85          1           0        1.025046    2.336283    0.372407
     86          1           0       -0.611494    2.062133    0.967303
     87          6           0       -0.172455    0.004333    2.672488
     88          1           0       -0.433782   -0.797898    1.973177
     89          1           0       -1.082169    0.570993    2.907531
     90          1           0        0.187861   -0.450519    3.602832
     91          7           0        4.887226    2.690173    1.752558
     92          1           0        5.135908    2.578504    0.766479
     93          6           0        5.641624    3.545008    2.630630
     94          1           0        6.233192    2.954257    3.341834
     95          6           0        4.693824    4.432994    3.444427
     96          6           0        6.561004    4.435360    1.781769
     97          1           0        5.927278    5.060816    1.141324
     98          1           0        7.155196    3.787735    1.124988
     99          8           0        3.755864    5.042602    2.991029
    100          6           0        7.489019    5.310562    2.627985
    101          1           0        8.123097    4.672085    3.257853
    102          1           0        6.903305    5.947440    3.300135
    103          6           0        8.369258    6.190526    1.745108
    104          1           0        7.746439    6.856474    1.137452
    105          1           0        8.977889    5.569952    1.074573
    106          7           0        9.252724    7.022840    2.582749
    107          1           0        9.382376    6.727575    3.542603
    108          7           0       10.013800    8.359663    0.850863
    109          1           0       10.341453    9.257806    0.525335
    110          1           0        9.678713    7.706985    0.157398
    111          7           0       10.576362    8.873947    3.035922
    112          1           0       10.405870    8.799597    4.028660
    113          1           0       11.285334    9.527816    2.736068
    114          6           0        9.945887    8.075658    2.158297
    115          8           0        5.109927    4.550295    4.729444
    116          1           0        4.445255    5.106733    5.178456
 ---------------------------------------------------------------------

 SCF Done:  E(RB3LYP) =  -2782.54182216     A.U. after    2 cycles

 Alpha  occ. eigenvalues --  -19.25907 -19.22860 -19.19808 -19.18375 -19.17756
 Alpha  occ. eigenvalues --  -19.17450 -19.17280 -19.16135 -19.15862 -19.11888
 Alpha  occ. eigenvalues --  -19.11532 -14.54729 -14.54551 -14.54548 -14.51562
 Alpha  occ. eigenvalues --  -14.41869 -14.41540 -14.40502 -14.39982 -14.39963
 Alpha  occ. eigenvalues --  -14.39304 -10.50976 -10.37988 -10.37552 -10.35083
 Alpha  occ. eigenvalues --  -10.34656 -10.34117 -10.33499 -10.32694 -10.32612
 Alpha  occ. eigenvalues --  -10.31663 -10.31319 -10.30686 -10.30660 -10.29711
 Alpha  occ. eigenvalues --  -10.29293 -10.29104 -10.28937 -10.27710 -10.26891
 Alpha  occ. eigenvalues --  -10.26527 -10.24933 -10.24843 -10.24791 -10.24544
 Alpha  occ. eigenvalues --  -10.24515 -10.24346 -10.23429 -10.22989 -10.22881
 Alpha  occ. eigenvalues --  -10.22497 -10.21392 -10.20879 -10.20829 -10.20233
 Alpha  occ. eigenvalues --  -10.19282 -10.18731  -1.19484  -1.16612  -1.11229
 Alpha  occ. eigenvalues --   -1.10112  -1.09682  -1.09045  -1.08809  -1.08609
 Alpha  occ. eigenvalues --   -1.08040  -1.07635  -1.07489  -1.07356  -1.05592
 Alpha  occ. eigenvalues --   -1.04747  -0.98785  -0.98407  -0.97843  -0.97677
 Alpha  occ. eigenvalues --   -0.97060  -0.95796  -0.95737  -0.92583  -0.90941
 Alpha  occ. eigenvalues --   -0.86089  -0.85935  -0.84161  -0.83785  -0.83073
 Alpha  occ. eigenvalues --   -0.81820  -0.81660  -0.80885  -0.79630  -0.79182
 Alpha  occ. eigenvalues --   -0.79061  -0.77405  -0.76454  -0.76318  -0.74889
 Alpha  occ. eigenvalues --   -0.73415  -0.72234  -0.71935  -0.70444  -0.70218
 Alpha  occ. eigenvalues --   -0.69687  -0.69176  -0.68807  -0.68132  -0.67296
 Alpha  occ. eigenvalues --   -0.66241  -0.65897  -0.65648  -0.65342  -0.64710
 Alpha  occ. eigenvalues --   -0.64043  -0.63666  -0.63590  -0.63446  -0.62770
 Alpha  occ. eigenvalues --   -0.62605  -0.62027  -0.61816  -0.61276  -0.59508
 Alpha  occ. eigenvalues --   -0.59324  -0.58427  -0.57802  -0.57482  -0.57012
 Alpha  occ. eigenvalues --   -0.56601  -0.56414  -0.56062  -0.55235  -0.54868
 Alpha  occ. eigenvalues --   -0.53976  -0.53726  -0.53503  -0.53371  -0.53028
 Alpha  occ. eigenvalues --   -0.52687  -0.52136  -0.51906  -0.51495  -0.51369
 Alpha  occ. eigenvalues --   -0.50898  -0.50679  -0.50551  -0.50213  -0.49690
 Alpha  occ. eigenvalues --   -0.49420  -0.48943  -0.48209  -0.47829  -0.47523
 Alpha  occ. eigenvalues --   -0.47472  -0.47168  -0.47029  -0.47014  -0.46904
 Alpha  occ. eigenvalues --   -0.46720  -0.46170  -0.45807  -0.45748  -0.45493
 Alpha  occ. eigenvalues --   -0.45409  -0.45274  -0.45152  -0.44899  -0.44639
 Alpha  occ. eigenvalues --   -0.44182  -0.43887  -0.43829  -0.43614  -0.43434
 Alpha  occ. eigenvalues --   -0.43303  -0.43126  -0.42872  -0.42747  -0.42565
 Alpha  occ. eigenvalues --   -0.42035  -0.41915  -0.41707  -0.41562  -0.41429
 Alpha  occ. eigenvalues --   -0.41079  -0.40729  -0.40563  -0.40354  -0.39911
 Alpha  occ. eigenvalues --   -0.39783  -0.39581  -0.39285  -0.38845  -0.38375
 Alpha  occ. eigenvalues --   -0.38254  -0.37726  -0.37650  -0.36062  -0.35814
 Alpha  occ. eigenvalues --   -0.35245  -0.34579  -0.34258  -0.33687  -0.33573
 Alpha  occ. eigenvalues --   -0.32808  -0.32725  -0.32401  -0.31946  -0.31826
 Alpha  occ. eigenvalues --   -0.31452  -0.30293  -0.30242  -0.29953  -0.29669
 Alpha  occ. eigenvalues --   -0.28965  -0.28550  -0.28161  -0.27631  -0.26004
 Alpha  occ. eigenvalues --   -0.25381
 Alpha virt. eigenvalues --   -0.14622  -0.10604  -0.06891  -0.06821  -0.06010
 Alpha virt. eigenvalues --   -0.05826  -0.05425  -0.05246  -0.04796  -0.04416
 Alpha virt. eigenvalues --   -0.04324  -0.02966  -0.02369  -0.02057  -0.01146

 Mulliken charges:
               1
     1  N   -0.756641
     2  H    0.408523
     3  H    0.404927
     4  H    0.401215
     5  C   -0.155646
     6  H    0.245319
     7  C    0.630757
     8  C    0.122265
     9  H    0.162848
    10  O   -0.563931
    11  C   -0.504142
    12  H    0.185134
    13  H    0.168017
    14  H    0.202254
    15  O   -0.635248
    16  H    0.412451
    17  N   -0.608579
    18  H    0.427864
    19  C   -0.083190
    20  H    0.196269
    21  C    0.625196
    22  C   -0.394120
    23  H    0.206648
    24  H    0.146781
    25  O   -0.515401
    26  C    0.130994
    27  C   -0.144376
    28  H    0.134192
    29  C   -0.188908
    30  H    0.238900
    31  C   -0.132705
    32  H    0.141879
    33  C   -0.214103
    34  H    0.149561
    35  C   -0.168733
    36  H    0.139859
    37  N   -0.589201
    38  H    0.340037
    39  C   -0.051661
    40  H    0.176692
    41  C    0.623655
    42  C   -0.465605
    43  H    0.165613
    44  H    0.171657
    45  H    0.167092
    46  O   -0.568149
    47  N   -0.593367
    48  H    0.356062
    49  C   -0.085218
    50  H    0.233393
    51  C    0.616494
    52  C   -0.290027
    53  H    0.183075
    54  H    0.135540
    55  O   -0.550453
    56  C   -0.389409
    57  H    0.174856
    58  H    0.156002
    59  C    0.588298
    60  O   -0.615274
    61  O   -0.555086
    62  N   -0.611555
    63  H    0.385554
    64  C   -0.064133
    65  H    0.185350
    66  C    0.614452
    67  C   -0.444145
    68  H    0.148114
    69  H    0.167284
    70  H    0.157355
    71  O   -0.563587
    72  N   -0.620770
    73  H    0.383752
    74  C   -0.076046
    75  H    0.177548
    76  C    0.652510
    77  C   -0.304171
    78  H    0.174850
    79  H    0.152698
    80  O   -0.531766
    81  C   -0.070642
    82  H    0.143391
    83  C   -0.468715
    84  H    0.171560
    85  H    0.131923
    86  H    0.134825
    87  C   -0.469608
    88  H    0.183635
    89  H    0.120366
    90  H    0.136285
    91  N   -0.653964
    92  H    0.381298
    93  C    0.032134
    94  H    0.170628
    95  C    0.595466
    96  C   -0.323188
    97  H    0.179905
    98  H    0.169030
    99  O   -0.458746
   100  C   -0.318706
   101  H    0.168265
   102  H    0.182163
   103  C   -0.145580
   104  H    0.192627
   105  H    0.189208
   106  N   -0.608951
   107  H    0.371444
   108  N   -0.756008
   109  H    0.389801
   110  H    0.398857
   111  N   -0.762942
   112  H    0.389408
   113  H    0.389043
   114  C    0.843003
   115  O   -0.575807
   116  H    0.414153
 Sum of Mulliken charges =   1.00000

 Dipole moment (field-independent basis, Debye):
    X=             33.1470    Y=             32.0535    Z=              3.6986  Tot=             46.2583
 Quadrupole moment (field-independent basis, Debye-Ang):
   XX=            157.8556   YY=            -39.7051   ZZ=           -287.3203
   XY=            364.5925   XZ=             83.8396   YZ=             83.3109

 Normal termination of Gaussian 16 at Sat Jul 16 02:10:49 2022.
