 Gaussian 16, Revision C.01,
 Gaussian 16:  ES64L-G16RevC.01  3-Jul-2019

 ----------------------------------------------------------------------
 # B3LYP/6-31G* empiricaldispersion=gd3bj guess=read geom=check nosymm
 integral(ultrafinegrid)
 ----------------------------------------------------------------------

 ------------------------------------------------------
 Candidate Structure: Conf:451 Charge calc in gas phase
 ------------------------------------------------------
 Structure from the checkpoint file:  "conf-451.chk"
 Charge =  1 Multiplicity = 1

                          Input orientation:
 ---------------------------------------------------------------------
 Center     Atomic      Atomic             Coordinates (Angstroms)
 Number     Number       Type             X           Y           Z
 ---------------------------------------------------------------------
      1          7           0       -6.364567   -4.302382   -2.203924
      2          1           0       -6.983901   -3.735892   -1.617749
      3          1           0       -6.633387   -4.162482   -3.211863
      4          1           0       -6.398777   -5.302909   -1.983283
      5          6           0       -4.940419   -3.799375   -2.168263
      6          1           0       -4.817129   -3.099089   -1.334376
      7          6           0       -4.819048   -3.055299   -3.514914
      8          6           0       -3.999159   -4.998438   -1.968652
      9          1           0       -3.018716   -4.711695   -2.356347
     10          8           0       -5.681056   -3.246220   -4.384544
     11          6           0       -3.877434   -5.374458   -0.496831
     12          1           0       -3.473806   -4.526441    0.059737
     13          1           0       -3.203862   -6.230984   -0.376598
     14          1           0       -4.851087   -5.652189   -0.072679
     15          8           0       -4.578657   -6.057009   -2.749883
     16          1           0       -4.047615   -6.856697   -2.616345
     17          7           0       -3.827981   -2.159700   -3.600575
     18          1           0       -3.156717   -2.138757   -2.808717
     19          6           0       -3.928390   -1.073251   -4.555421
     20          1           0       -4.389513   -1.475888   -5.463625
     21          6           0       -2.517685   -0.570260   -4.901618
     22          6           0       -4.840311    0.081832   -4.006904
     23          1           0       -4.261119    0.670813   -3.287010
     24          1           0       -5.100222    0.744381   -4.842826
     25          8           0       -1.509101   -1.240791   -4.693079
     26          6           0       -6.113646   -0.390351   -3.343307
     27          6           0       -7.270055   -0.633620   -4.094821
     28          1           0       -7.262793   -0.449120   -5.166055
     29          6           0       -6.135330   -0.643834   -1.968263
     30          1           0       -5.254614   -0.488005   -1.354044
     31          6           0       -8.419924   -1.136304   -3.490943
     32          1           0       -9.307798   -1.318958   -4.088980
     33          6           0       -7.286378   -1.151755   -1.357385
     34          1           0       -7.276974   -1.327839   -0.284874
     35          6           0       -8.432056   -1.400998   -2.117049
     36          1           0       -9.336215   -1.773875   -1.642738
     37          7           0       -2.439253    0.689961   -5.429432
     38          1           0       -3.268083    1.267166   -5.458684
     39          6           0       -1.154184    1.373882   -5.617552
     40          1           0       -0.433724    0.604054   -5.906630
     41          6           0       -0.757393    1.951705   -4.241777
     42          6           0       -1.259018    2.447094   -6.690095
     43          1           0       -0.284609    2.920326   -6.845556
     44          1           0       -1.966279    3.227945   -6.394679
     45          1           0       -1.583015    2.004365   -7.635360
     46          8           0       -0.938718    3.145573   -3.959079
     47          7           0       -0.288840    1.024508   -3.368834
     48          1           0       -0.349408    0.071608   -3.737492
     49          6           0       -0.536923    1.082201   -1.909074
     50          1           0       -1.020631    2.036551   -1.682533
     51          6           0        0.739957    1.022632   -1.069534
     52          6           0       -1.500637   -0.087450   -1.639267
     53          1           0       -1.046331   -1.002498   -2.028628
     54          1           0       -2.365461    0.115538   -2.283048
     55          8           0        0.705797    1.103939    0.152200
     56          6           0       -2.025274   -0.428852   -0.247581
     57          1           0       -1.198787   -0.665839    0.429747
     58          1           0       -2.604182    0.383213    0.200969
     59          6           0       -2.927780   -1.678893   -0.443325
     60          8           0       -4.040243   -1.725019    0.125851
     61          8           0       -2.467930   -2.551698   -1.255284
     62          7           0        1.908170    0.884541   -1.753904
     63          1           0        1.886810    0.893742   -2.763497
     64          6           0        3.175902    0.804443   -1.064435
     65          1           0        3.170993   -0.068613   -0.399889
     66          6           0        3.446654    2.052089   -0.216753
     67          6           0        4.309214    0.682960   -2.094495
     68          1           0        5.286008    0.687387   -1.606220
     69          1           0        4.282784    1.538954   -2.778090
     70          1           0        4.200686   -0.239810   -2.672262
     71          8           0        3.032025    3.180134   -0.524494
     72          7           0        4.283811    1.886418    0.821736
     73          1           0        4.698517    0.976510    0.973475
     74          6           0        4.960967    3.045289    1.390482
     75          1           0        4.193839    3.727980    1.765560
     76          6           0        5.760293    3.729355    0.264963
     77          6           0        5.904970    2.624330    2.522881
     78          1           0        6.698239    1.998537    2.092785
     79          1           0        6.396686    3.531660    2.897138
     80          8           0        6.383701    3.071416   -0.564011
     81          6           0        5.231586    1.893169    3.698969
     82          1           0        4.789818    0.959551    3.320544
     83          6           0        6.292989    1.519528    4.741131
     84          1           0        6.750910    2.419382    5.170157
     85          1           0        7.093274    0.913750    4.300963
     86          1           0        5.849085    0.947578    5.562408
     87          6           0        4.105855    2.721554    4.329015
     88          1           0        4.480953    3.695845    4.668315
     89          1           0        3.690789    2.205374    5.200624
     90          1           0        3.280261    2.895739    3.630637
     91          7           0        5.719439    5.084996    0.272194
     92          1           0        5.204624    5.555147    1.003851
     93          6           0        6.504139    5.912377   -0.633219
     94          1           0        7.364554    5.311685   -0.949920
     95          6           0        7.068614    7.145863    0.066263
     96          6           0        5.701058    6.339498   -1.882576
     97          1           0        6.194988    7.204284   -2.333670
     98          1           0        4.713458    6.675024   -1.541310
     99          8           0        7.685633    8.010000   -0.507819
    100          6           0        5.563023    5.206519   -2.920381
    101          1           0        5.661296    4.228514   -2.437899
    102          1           0        6.382976    5.270842   -3.643011
    103          6           0        4.239660    5.243365   -3.685832
    104          1           0        4.271483    4.543294   -4.530928
    105          1           0        4.056714    6.249710   -4.087045
    106          7           0        3.155824    4.869516   -2.775110
    107          1           0        3.414108    4.510572   -1.856490
    108          7           0        1.472690    4.832273   -4.395545
    109          1           0        0.503066    4.627881   -4.614322
    110          1           0        1.984363    5.452048   -5.004279
    111          7           0        1.044733    4.102392   -2.240119
    112          1           0        1.455634    3.668219   -1.411884
    113          1           0        0.137340    3.785841   -2.587049
    114          6           0        1.896351    4.603366   -3.135802
    115          8           0        6.797053    7.176775    1.391854
    116          1           0        7.197122    7.997840    1.737892
 ---------------------------------------------------------------------

 SCF Done:  E(RB3LYP) =  -2782.57383156     A.U. after    2 cycles

 Alpha  occ. eigenvalues --  -19.28847 -19.24056 -19.23004 -19.22852 -19.22574
 Alpha  occ. eigenvalues --  -19.21554 -19.20682 -19.20271 -19.19887 -19.12758
 Alpha  occ. eigenvalues --  -19.12673 -14.51729 -14.48191 -14.47481 -14.46451
 Alpha  occ. eigenvalues --  -14.46319 -14.46198 -14.45654 -14.45368 -14.45073
 Alpha  occ. eigenvalues --  -14.42523 -10.43659 -10.41009 -10.40138 -10.39368
 Alpha  occ. eigenvalues --  -10.38757 -10.37866 -10.37159 -10.36730 -10.33908
 Alpha  occ. eigenvalues --  -10.33566 -10.33449 -10.33247 -10.32533 -10.32339
 Alpha  occ. eigenvalues --  -10.32284 -10.31687 -10.31531 -10.30907 -10.28409
 Alpha  occ. eigenvalues --  -10.28312 -10.28187 -10.28172 -10.28043 -10.27375
 Alpha  occ. eigenvalues --  -10.26751 -10.26632 -10.25951 -10.25750 -10.25671
 Alpha  occ. eigenvalues --  -10.25587 -10.25550 -10.24938 -10.24284 -10.24061
 Alpha  occ. eigenvalues --  -10.23910 -10.22469  -1.19562  -1.15298  -1.14846
 Alpha  occ. eigenvalues --   -1.13614  -1.12687  -1.12649  -1.12493  -1.11955
 Alpha  occ. eigenvalues --   -1.10504  -1.10303  -1.06023  -1.05843  -1.03657
 Alpha  occ. eigenvalues --   -1.02969  -1.02490  -1.02346  -1.02103  -1.01322
 Alpha  occ. eigenvalues --   -1.00320  -1.00172  -0.96948  -0.92459  -0.90327
 Alpha  occ. eigenvalues --   -0.89391  -0.88905  -0.87405  -0.86240  -0.85613
 Alpha  occ. eigenvalues --   -0.85288  -0.84814  -0.82583  -0.81228  -0.81002
 Alpha  occ. eigenvalues --   -0.79144  -0.78349  -0.77728  -0.75691  -0.75206
 Alpha  occ. eigenvalues --   -0.74830  -0.74599  -0.73720  -0.73185  -0.71592
 Alpha  occ. eigenvalues --   -0.70755  -0.69882  -0.69710  -0.69071  -0.68843
 Alpha  occ. eigenvalues --   -0.68705  -0.67662  -0.67518  -0.67383  -0.67128
 Alpha  occ. eigenvalues --   -0.66087  -0.65810  -0.65583  -0.65252  -0.64543
 Alpha  occ. eigenvalues --   -0.64389  -0.63468  -0.62629  -0.61691  -0.61209
 Alpha  occ. eigenvalues --   -0.60941  -0.60644  -0.59946  -0.59285  -0.58761
 Alpha  occ. eigenvalues --   -0.58441  -0.58084  -0.57837  -0.57522  -0.57103
 Alpha  occ. eigenvalues --   -0.56716  -0.56558  -0.56135  -0.55404  -0.55191
 Alpha  occ. eigenvalues --   -0.54977  -0.54779  -0.54110  -0.53923  -0.53598
 Alpha  occ. eigenvalues --   -0.52972  -0.52752  -0.52577  -0.52305  -0.52157
 Alpha  occ. eigenvalues --   -0.52061  -0.51957  -0.51659  -0.51357  -0.50907
 Alpha  occ. eigenvalues --   -0.50757  -0.50357  -0.50076  -0.49940  -0.49392
 Alpha  occ. eigenvalues --   -0.49247  -0.49134  -0.49005  -0.48763  -0.48557
 Alpha  occ. eigenvalues --   -0.48463  -0.48214  -0.47981  -0.47888  -0.47584
 Alpha  occ. eigenvalues --   -0.47496  -0.47137  -0.46995  -0.46940  -0.46336
 Alpha  occ. eigenvalues --   -0.46232  -0.46047  -0.45768  -0.45219  -0.45191
 Alpha  occ. eigenvalues --   -0.45015  -0.44803  -0.44446  -0.44352  -0.44199
 Alpha  occ. eigenvalues --   -0.43915  -0.43584  -0.43359  -0.42941  -0.42422
 Alpha  occ. eigenvalues --   -0.42218  -0.41054  -0.40924  -0.40820  -0.40566
 Alpha  occ. eigenvalues --   -0.40293  -0.40159  -0.40044  -0.39963  -0.39491
 Alpha  occ. eigenvalues --   -0.38956  -0.38690  -0.37619  -0.37305  -0.37075
 Alpha  occ. eigenvalues --   -0.36921  -0.36583  -0.35782  -0.35297  -0.34931
 Alpha  occ. eigenvalues --   -0.34654  -0.34529  -0.34413  -0.33697  -0.33435
 Alpha  occ. eigenvalues --   -0.33095  -0.31556  -0.30953  -0.28761  -0.27421
 Alpha  occ. eigenvalues --   -0.26520
 Alpha virt. eigenvalues --   -0.10788  -0.09040  -0.08331  -0.08162  -0.07973
 Alpha virt. eigenvalues --   -0.07281  -0.07131  -0.06678  -0.06171  -0.05738
 Alpha virt. eigenvalues --   -0.03618  -0.02868  -0.01922  -0.01592  -0.01066

 Mulliken charges:
               1
     1  N   -0.758307
     2  H    0.398756
     3  H    0.421051
     4  H    0.402270
     5  C   -0.134060
     6  H    0.267815
     7  C    0.632198
     8  C    0.115481
     9  H    0.194929
    10  O   -0.552486
    11  C   -0.475827
    12  H    0.221594
    13  H    0.148755
    14  H    0.126125
    15  O   -0.651572
    16  H    0.414017
    17  N   -0.623652
    18  H    0.421291
    19  C   -0.051145
    20  H    0.213382
    21  C    0.623571
    22  C   -0.395114
    23  H    0.168851
    24  H    0.147506
    25  O   -0.523812
    26  C    0.156663
    27  C   -0.140946
    28  H    0.132131
    29  C   -0.190659
    30  H    0.180517
    31  C   -0.133411
    32  H    0.146124
    33  C   -0.191398
    34  H    0.162395
    35  C   -0.158255
    36  H    0.143407
    37  N   -0.602083
    38  H    0.348297
    39  C   -0.058922
    40  H    0.194240
    41  C    0.612329
    42  C   -0.467617
    43  H    0.158264
    44  H    0.172958
    45  H    0.181839
    46  O   -0.562492
    47  N   -0.627970
    48  H    0.386934
    49  C   -0.080239
    50  H    0.181048
    51  C    0.620699
    52  C   -0.314458
    53  H    0.195614
    54  H    0.127514
    55  O   -0.517831
    56  C   -0.329430
    57  H    0.174352
    58  H    0.144910
    59  C    0.583084
    60  O   -0.574186
    61  O   -0.622550
    62  N   -0.614255
    63  H    0.343785
    64  C   -0.033975
    65  H    0.179977
    66  C    0.691891
    67  C   -0.488493
    68  H    0.198421
    69  H    0.155546
    70  H    0.179190
    71  O   -0.599251
    72  N   -0.580090
    73  H    0.349761
    74  C   -0.046246
    75  H    0.172963
    76  C    0.634114
    77  C   -0.302029
    78  H    0.160781
    79  H    0.157634
    80  O   -0.541370
    81  C   -0.075690
    82  H    0.126803
    83  C   -0.444512
    84  H    0.149691
    85  H    0.148339
    86  H    0.159371
    87  C   -0.456381
    88  H    0.143055
    89  H    0.163646
    90  H    0.156540
    91  N   -0.605639
    92  H    0.351123
    93  C   -0.063444
    94  H    0.220918
    95  C    0.588069
    96  C   -0.278607
    97  H    0.193363
    98  H    0.152400
    99  O   -0.441027
   100  C   -0.336930
   101  H    0.202750
   102  H    0.174748
   103  C   -0.145812
   104  H    0.168936
   105  H    0.167567
   106  N   -0.632081
   107  H    0.405291
   108  N   -0.785576
   109  H    0.394166
   110  H    0.368256
   111  N   -0.820327
   112  H    0.418552
   113  H    0.403034
   114  C    0.775569
   115  O   -0.576126
   116  H    0.429128
 Sum of Mulliken charges =   1.00000

 Dipole moment (field-independent basis, Debye):
    X=              2.6727    Y=              8.6879    Z=            -13.1909  Tot=             16.0194
 Quadrupole moment (field-independent basis, Debye-Ang):
   XX=           -200.6884   YY=           -216.4992   ZZ=           -249.3802
   XY=             90.6129   XZ=             38.0404   YZ=            -26.3902

 Normal termination of Gaussian 16 at Sat Jul 16 02:10:46 2022.
