 Gaussian 16, Revision C.01,
 Gaussian 16:  ES64L-G16RevC.01  3-Jul-2019

 ----------------------------------------------------------------------
 # B3LYP/6-31G* empiricaldispersion=gd3bj guess=read geom=check nosymm
 integral(ultrafinegrid)
 ----------------------------------------------------------------------

 -----------------------------------------------------
 Candidate Structure: Conf:34 Charge calc in gas phase
 -----------------------------------------------------
 Structure from the checkpoint file:  "conf-34.chk"
 Charge =  1 Multiplicity = 1

                          Input orientation:
 ---------------------------------------------------------------------
 Center     Atomic      Atomic             Coordinates (Angstroms)
 Number     Number       Type             X           Y           Z
 ---------------------------------------------------------------------
      1          7           0       -6.892454   -3.440411   -6.767486
      2          1           0       -7.786342   -2.952326   -6.833377
      3          1           0       -6.248076   -3.065195   -7.468046
      4          1           0       -7.019439   -4.443430   -6.918895
      5          6           0       -6.263950   -3.251662   -5.447430
      6          1           0       -7.011623   -3.335328   -4.652210
      7          6           0       -5.598273   -1.885708   -5.416361
      8          6           0       -5.219102   -4.356273   -5.246370
      9          1           0       -4.430093   -4.197809   -5.994095
     10          8           0       -5.022695   -1.443123   -6.396710
     11          6           0       -4.634835   -4.410076   -3.852483
     12          1           0       -4.134003   -3.482953   -3.591925
     13          1           0       -3.911833   -5.224799   -3.782761
     14          1           0       -5.436962   -4.594714   -3.132341
     15          8           0       -5.903295   -5.582032   -5.532396
     16          1           0       -5.271126   -6.300442   -5.463694
     17          7           0       -5.695003   -1.197337   -4.242600
     18          1           0       -5.917315   -1.737655   -3.420957
     19          6           0       -4.805883   -0.063078   -3.999264
     20          1           0       -4.711645    0.472976   -4.944278
     21          6           0       -3.453297   -0.604750   -3.550542
     22          6           0       -5.415368    0.842247   -2.917294
     23          1           0       -6.465180    0.992783   -3.167782
     24          1           0       -5.370460    0.307718   -1.967584
     25          8           0       -3.387864   -1.451357   -2.658235
     26          6           0       -4.734259    2.183251   -2.824902
     27          6           0       -3.520471    2.327472   -2.153493
     28          1           0       -3.070480    1.461758   -1.662921
     29          6           0       -5.284963    3.302257   -3.453282
     30          1           0       -6.231016    3.206934   -3.971147
     31          6           0       -2.854101    3.549896   -2.138653
     32          1           0       -1.888445    3.610933   -1.650749
     33          6           0       -4.636285    4.532854   -3.413055
     34          1           0       -5.085301    5.390876   -3.900832
     35          6           0       -3.414243    4.659600   -2.754337
     36          1           0       -2.903829    5.617321   -2.733864
     37          7           0       -2.363626   -0.136571   -4.209847
     38          1           0       -2.444137    0.756641   -4.666976
     39          6           0       -1.023347   -0.484461   -3.745107
     40          1           0       -1.037135   -1.550336   -3.521935
     41          6           0       -0.695471    0.286155   -2.446757
     42          6           0       -0.014039   -0.143248   -4.828428
     43          1           0        0.995626   -0.373670   -4.484768
     44          1           0       -0.056548    0.927543   -5.038187
     45          1           0       -0.230175   -0.702054   -5.738704
     46          8           0       -0.720402    1.531141   -2.423525
     47          7           0       -0.456257   -0.498806   -1.358524
     48          1           0       -0.324134   -1.480117   -1.514450
     49          6           0        0.075947    0.085860   -0.140841
     50          1           0       -0.360049    1.085659   -0.067654
     51          6           0        1.596390    0.198084   -0.237905
     52          6           0       -0.278996   -0.707571    1.106973
     53          1           0        0.238769   -1.671446    1.090480
     54          1           0       -1.353094   -0.903360    1.091105
     55          8           0        2.343811   -0.724659    0.070145
     56          6           0        0.115401    0.073414    2.352797
     57          1           0        1.159521    0.383540    2.254315
     58          1           0       -0.485734    0.970091    2.493164
     59          6           0        0.080502   -0.749486    3.661546
     60          8           0       -0.180176   -0.088927    4.676477
     61          8           0        0.394111   -1.952214    3.555471
     62          7           0        2.059223    1.391429   -0.667078
     63          1           0        1.388823    2.086670   -0.948658
     64          6           0        3.429849    1.772428   -0.377508
     65          1           0        4.096540    1.118219   -0.943738
     66          6           0        3.734162    1.534233    1.129701
     67          6           0        3.648465    3.239023   -0.715620
     68          1           0        4.700300    3.509941   -0.622167
     69          1           0        3.073701    3.838395   -0.006733
     70          1           0        3.312625    3.452840   -1.729564
     71          8           0        2.916897    1.769955    2.057459
     72          7           0        4.997619    1.063685    1.326417
     73          1           0        5.677503    1.194060    0.599813
     74          6           0        5.512906    0.835063    2.657717
     75          1           0        4.698533    1.057586    3.347325
     76          6           0        6.655084    1.814308    2.899502
     77          6           0        5.974572   -0.604866    2.850877
     78          1           0        6.869151   -0.781022    2.250123
     79          1           0        6.262065   -0.738685    3.897719
     80          8           0        7.515974    2.022275    2.053437
     81          6           0        4.900913   -1.640077    2.501512
     82          1           0        4.681801   -1.557499    1.435146
     83          6           0        5.427473   -3.044929    2.775285
     84          1           0        5.665646   -3.161226    3.835850
     85          1           0        6.333297   -3.243541    2.197400
     86          1           0        4.683610   -3.799988    2.509841
     87          6           0        3.607759   -1.371132    3.266925
     88          1           0        3.784604   -1.463843    4.342956
     89          1           0        2.826853   -2.081185    2.982702
     90          1           0        3.233673   -0.365626    3.075981
     91          7           0        6.644974    2.410830    4.116882
     92          1           0        5.911958    2.198813    4.774621
     93          6           0        7.683021    3.341532    4.508463
     94          1           0        8.521755    3.192215    3.826374
     95          6           0        8.178504    3.056925    5.912001
     96          6           0        7.235863    4.808877    4.417530
     97          1           0        8.078221    5.426646    4.724828
     98          1           0        6.425876    4.993978    5.125072
     99          8           0        9.305273    3.232605    6.292947
    100          6           0        6.788013    5.192422    3.014288
    101          1           0        5.874691    4.649775    2.759483
    102          1           0        7.541703    4.889273    2.285960
    103          6           0        6.512440    6.676153    2.888835
    104          1           0        5.802616    6.969939    3.665382
    105          1           0        6.054913    6.904399    1.918706
    106          7           0        7.770663    7.435050    3.068434
    107          1           0        8.569101    7.020321    2.607881
    108          7           0        6.654305    9.493258    3.100209
    109          1           0        6.695015   10.457919    3.388100
    110          1           0        5.800790    9.006174    3.317508
    111          7           0        8.994292    9.396852    2.955313
    112          1           0        9.805489    8.876844    3.261355
    113          1           0        9.024140   10.381618    3.170785
    114          6           0        7.793545    8.777880    3.058561
    115          8           0        7.183199    2.628051    6.725079
    116          1           0        7.575419    2.494939    7.597487
 ---------------------------------------------------------------------

 SCF Done:  E(RB3LYP) =  -2782.37355923     A.U. after    3 cycles

 Alpha  occ. eigenvalues --  -19.28973 -19.26382 -19.25829 -19.20733 -19.20026
 Alpha  occ. eigenvalues --  -19.17006 -19.16716 -19.14481 -19.13444 -19.00753
 Alpha  occ. eigenvalues --  -19.00317 -14.61880 -14.51952 -14.51402 -14.51261
 Alpha  occ. eigenvalues --  -14.48480 -14.44027 -14.42318 -14.40698 -14.39431
 Alpha  occ. eigenvalues --  -14.38631 -10.46612 -10.42770 -10.40493 -10.38803
 Alpha  occ. eigenvalues --  -10.38758 -10.36891 -10.35141 -10.33782 -10.33717
 Alpha  occ. eigenvalues --  -10.32539 -10.31998 -10.30841 -10.30207 -10.29916
 Alpha  occ. eigenvalues --  -10.29002 -10.28845 -10.27876 -10.27477 -10.26864
 Alpha  occ. eigenvalues --  -10.25972 -10.25044 -10.24776 -10.24097 -10.24064
 Alpha  occ. eigenvalues --  -10.23881 -10.23850 -10.23572 -10.23412 -10.23154
 Alpha  occ. eigenvalues --  -10.20221 -10.18541 -10.18108 -10.17211 -10.16290
 Alpha  occ. eigenvalues --  -10.13922 -10.12068  -1.19638  -1.17628  -1.17138
 Alpha  occ. eigenvalues --   -1.16285  -1.15360  -1.12061  -1.09415  -1.08651
 Alpha  occ. eigenvalues --   -1.07869  -1.06069  -1.05681  -1.05006  -1.04938
 Alpha  occ. eigenvalues --   -1.04549  -1.00429  -0.99386  -0.96874  -0.95986
 Alpha  occ. eigenvalues --   -0.95471  -0.94261  -0.93927  -0.91225  -0.90768
 Alpha  occ. eigenvalues --   -0.87449  -0.85553  -0.85347  -0.84768  -0.84085
 Alpha  occ. eigenvalues --   -0.83044  -0.81362  -0.80336  -0.79399  -0.79241
 Alpha  occ. eigenvalues --   -0.78700  -0.77783  -0.77648  -0.76232  -0.76151
 Alpha  occ. eigenvalues --   -0.73673  -0.73656  -0.72384  -0.71977  -0.71586
 Alpha  occ. eigenvalues --   -0.71179  -0.70307  -0.68834  -0.68733  -0.68581
 Alpha  occ. eigenvalues --   -0.67539  -0.67051  -0.66610  -0.66258  -0.65959
 Alpha  occ. eigenvalues --   -0.65611  -0.64852  -0.64737  -0.64150  -0.63649
 Alpha  occ. eigenvalues --   -0.63261  -0.62255  -0.61984  -0.61535  -0.60576
 Alpha  occ. eigenvalues --   -0.60478  -0.59670  -0.59046  -0.58870  -0.58717
 Alpha  occ. eigenvalues --   -0.57559  -0.57290  -0.56643  -0.56116  -0.55530
 Alpha  occ. eigenvalues --   -0.55337  -0.55068  -0.54840  -0.54531  -0.54089
 Alpha  occ. eigenvalues --   -0.53655  -0.53431  -0.53161  -0.52739  -0.52438
 Alpha  occ. eigenvalues --   -0.51596  -0.51335  -0.51143  -0.51055  -0.50755
 Alpha  occ. eigenvalues --   -0.50434  -0.50142  -0.49512  -0.49070  -0.48711
 Alpha  occ. eigenvalues --   -0.48499  -0.47992  -0.47598  -0.47239  -0.47028
 Alpha  occ. eigenvalues --   -0.46981  -0.46446  -0.46280  -0.46243  -0.45747
 Alpha  occ. eigenvalues --   -0.45701  -0.45483  -0.45116  -0.44907  -0.44777
 Alpha  occ. eigenvalues --   -0.44315  -0.44073  -0.43894  -0.43618  -0.43390
 Alpha  occ. eigenvalues --   -0.43270  -0.42909  -0.42818  -0.42247  -0.41912
 Alpha  occ. eigenvalues --   -0.41550  -0.41448  -0.40775  -0.40702  -0.40688
 Alpha  occ. eigenvalues --   -0.40248  -0.40093  -0.39646  -0.39410  -0.38698
 Alpha  occ. eigenvalues --   -0.38624  -0.38593  -0.38380  -0.37895  -0.37581
 Alpha  occ. eigenvalues --   -0.37330  -0.36496  -0.35241  -0.35117  -0.34753
 Alpha  occ. eigenvalues --   -0.33665  -0.33531  -0.32417  -0.32329  -0.31928
 Alpha  occ. eigenvalues --   -0.31775  -0.31269  -0.31145  -0.30874  -0.30530
 Alpha  occ. eigenvalues --   -0.29784  -0.29736  -0.29219  -0.29082  -0.28323
 Alpha  occ. eigenvalues --   -0.27528  -0.26830  -0.26298  -0.16337  -0.14774
 Alpha  occ. eigenvalues --   -0.14214
 Alpha virt. eigenvalues --   -0.13354  -0.13275  -0.10415  -0.08162  -0.07158
 Alpha virt. eigenvalues --   -0.06056  -0.06009  -0.05389  -0.04829  -0.04748
 Alpha virt. eigenvalues --   -0.04528  -0.03552  -0.03393  -0.02967  -0.02831

 Mulliken charges:
               1
     1  N   -0.719398
     2  H    0.427881
     3  H    0.422360
     4  H    0.436006
     5  C   -0.147628
     6  H    0.217581
     7  C    0.624721
     8  C    0.123083
     9  H    0.167078
    10  O   -0.503115
    11  C   -0.504053
    12  H    0.219858
    13  H    0.184064
    14  H    0.177541
    15  O   -0.648112
    16  H    0.433116
    17  N   -0.583243
    18  H    0.353591
    19  C   -0.064339
    20  H    0.187089
    21  C    0.632587
    22  C   -0.379000
    23  H    0.158264
    24  H    0.184900
    25  O   -0.538274
    26  C    0.146976
    27  C   -0.188525
    28  H    0.160933
    29  C   -0.186424
    30  H    0.116825
    31  C   -0.109801
    32  H    0.153831
    33  C   -0.128618
    34  H    0.133730
    35  C   -0.131334
    36  H    0.133526
    37  N   -0.571809
    38  H    0.349321
    39  C   -0.055055
    40  H    0.160854
    41  C    0.630514
    42  C   -0.468379
    43  H    0.176820
    44  H    0.172699
    45  H    0.159421
    46  O   -0.561803
    47  N   -0.577778
    48  H    0.340464
    49  C   -0.063310
    50  H    0.160545
    51  C    0.628723
    52  C   -0.259336
    53  H    0.171450
    54  H    0.119495
    55  O   -0.522000
    56  C   -0.397001
    57  H    0.193243
    58  H    0.101660
    59  C    0.566809
    60  O   -0.574627
    61  O   -0.592241
    62  N   -0.602172
    63  H    0.339107
    64  C   -0.006630
    65  H    0.159796
    66  C    0.620394
    67  C   -0.487603
    68  H    0.148663
    69  H    0.170266
    70  H    0.163304
    71  O   -0.527811
    72  N   -0.576826
    73  H    0.334971
    74  C   -0.086322
    75  H    0.193256
    76  C    0.622923
    77  C   -0.253325
    78  H    0.134464
    79  H    0.128883
    80  O   -0.550459
    81  C   -0.081146
    82  H    0.147890
    83  C   -0.439443
    84  H    0.133327
    85  H    0.120734
    86  H    0.154594
    87  C   -0.470745
    88  H    0.117231
    89  H    0.202047
    90  H    0.176709
    91  N   -0.613617
    92  H    0.363479
    93  C   -0.047037
    94  H    0.207563
    95  C    0.585243
    96  C   -0.275659
    97  H    0.157491
    98  H    0.161366
    99  O   -0.448994
   100  C   -0.312227
   101  H    0.196659
   102  H    0.177459
   103  C   -0.170752
   104  H    0.176412
   105  H    0.190430
   106  N   -0.580314
   107  H    0.363048
   108  N   -0.731338
   109  H    0.372673
   110  H    0.386610
   111  N   -0.734544
   112  H    0.377381
   113  H    0.368397
   114  C    0.734450
   115  O   -0.569343
   116  H    0.426730
 Sum of Mulliken charges =   1.00000

 Dipole moment (field-independent basis, Debye):
    X=              1.7487    Y=             23.2967    Z=            -26.0033  Tot=             34.9566
 Quadrupole moment (field-independent basis, Debye-Ang):
   XX=             51.0223   YY=             32.5004   ZZ=           -178.8012
   XY=            347.1802   XZ=            263.8469   YZ=            218.2421

 Normal termination of Gaussian 16 at Sat Jul 16 02:11:01 2022.
