 Gaussian 16, Revision C.01,
 Gaussian 16:  ES64L-G16RevC.01  3-Jul-2019

 ----------------------------------------------------------------------
 # B3LYP/6-31G* empiricaldispersion=gd3bj guess=read geom=check nosymm
 integral(ultrafinegrid)
 ----------------------------------------------------------------------

 ------------------------------------------------------
 Candidate Structure: Conf:746 Charge calc in gas phase
 ------------------------------------------------------
 Structure from the checkpoint file:  "conf-746.chk"
 Charge =  1 Multiplicity = 1

                          Input orientation:
 ---------------------------------------------------------------------
 Center     Atomic      Atomic             Coordinates (Angstroms)
 Number     Number       Type             X           Y           Z
 ---------------------------------------------------------------------
      1          7           0       -8.333748   -2.317514   -4.909188
      2          1           0       -8.757125   -1.934262   -4.063800
      3          1           0       -8.333370   -1.591612   -5.630503
      4          1           0       -8.857721   -3.131733   -5.233243
      5          6           0       -6.930580   -2.702590   -4.676832
      6          1           0       -6.838713   -3.210795   -3.708704
      7          6           0       -6.079779   -1.435324   -4.699145
      8          6           0       -6.496979   -3.697981   -5.771459
      9          1           0       -6.581364   -3.192932   -6.736531
     10          8           0       -6.408626   -0.468810   -5.371555
     11          6           0       -5.101950   -4.258318   -5.588372
     12          1           0       -4.335707   -3.485003   -5.614791
     13          1           0       -4.896950   -4.978404   -6.383079
     14          1           0       -5.033813   -4.780735   -4.627109
     15          8           0       -7.444313   -4.761441   -5.827554
     16          1           0       -7.294318   -5.318629   -5.060824
     17          7           0       -4.943620   -1.473412   -3.954247
     18          1           0       -4.611623   -2.345141   -3.568579
     19          6           0       -3.909300   -0.473026   -4.087435
     20          1           0       -4.093412    0.087557   -5.007089
     21          6           0       -2.576727   -1.213181   -4.134597
     22          6           0       -3.937102    0.508372   -2.903023
     23          1           0       -3.788152   -0.051763   -1.977106
     24          1           0       -3.098943    1.201912   -3.003245
     25          8           0       -2.461823   -2.341380   -3.688054
     26          6           0       -5.244104    1.248861   -2.860650
     27          6           0       -5.452633    2.369724   -3.663013
     28          1           0       -4.642592    2.721028   -4.297254
     29          6           0       -6.295873    0.794141   -2.062277
     30          1           0       -6.145289   -0.085596   -1.445138
     31          6           0       -6.683353    3.022856   -3.673453
     32          1           0       -6.821487    3.892391   -4.305443
     33          6           0       -7.530343    1.441825   -2.072468
     34          1           0       -8.331154    1.074626   -1.440815
     35          6           0       -7.728627    2.555798   -2.880106
     36          1           0       -8.687726    3.061604   -2.887079
     37          7           0       -1.535843   -0.526655   -4.694604
     38          1           0       -1.662477    0.466176   -4.804177
     39          6           0       -0.166362   -0.892660   -4.356449
     40          1           0       -0.161698   -1.965836   -4.173310
     41          6           0        0.217653   -0.145879   -3.080982
     42          6           0        0.774611   -0.521288   -5.492056
     43          1           0        1.799355   -0.825099   -5.265512
     44          1           0        0.762623    0.559481   -5.645489
     45          1           0        0.461160   -1.009762   -6.415702
     46          8           0       -0.114706    1.026116   -2.910241
     47          7           0        0.954973   -0.829266   -2.183661
     48          1           0        1.271057   -1.759007   -2.398147
     49          6           0        1.355478   -0.238442   -0.916500
     50          1           0        0.554518    0.457725   -0.645021
     51          6           0        2.646884    0.562602   -1.100505
     52          6           0        1.516766   -1.292109    0.171745
     53          1           0        1.956205   -0.815637    1.049504
     54          1           0        2.218238   -2.057706   -0.157198
     55          8           0        3.718286    0.228501   -0.585188
     56          6           0        0.197788   -1.940013    0.584653
     57          1           0       -0.508418   -1.184491    0.933027
     58          1           0       -0.240855   -2.508616   -0.237714
     59          6           0        0.561486   -2.895147    1.742628
     60          8           0        0.499879   -2.405180    2.885104
     61          8           0        0.904350   -4.041696    1.403325
     62          7           0        2.550915    1.654709   -1.886817
     63          1           0        1.640505    1.926657   -2.239581
     64          6           0        3.654717    2.593147   -2.011501
     65          1           0        4.570191    1.994558   -2.029239
     66          6           0        3.675391    3.495520   -0.765886
     67          6           0        3.507473    3.399721   -3.287672
     68          1           0        4.352295    4.081209   -3.406526
     69          1           0        2.591878    3.993557   -3.261626
     70          1           0        3.475270    2.722840   -4.143100
     71          8           0        3.216583    4.628443   -0.754014
     72          7           0        4.214447    2.918686    0.337793
     73          1           0        4.416568    1.924071    0.328703
     74          6           0        4.085652    3.558385    1.634515
     75          1           0        4.163071    4.635622    1.469677
     76          6           0        5.214642    3.042232    2.507136
     77          6           0        2.746053    3.219605    2.283478
     78          1           0        1.957687    3.615800    1.642304
     79          1           0        2.650120    2.129055    2.285758
     80          8           0        5.260851    1.868311    2.844927
     81          6           0        2.558494    3.735184    3.713670
     82          1           0        3.349065    3.292169    4.330910
     83          6           0        2.662191    5.255098    3.788496
     84          1           0        1.913017    5.715315    3.136867
     85          1           0        3.645594    5.622068    3.489254
     86          1           0        2.479461    5.601069    4.808966
     87          6           0        1.211297    3.253562    4.247185
     88          1           0        0.398469    3.665030    3.644580
     89          1           0        1.064234    3.570147    5.281805
     90          1           0        1.146546    2.164280    4.214405
     91          7           0        6.163059    3.942477    2.864409
     92          1           0        6.011861    4.918617    2.678894
     93          6           0        7.221781    3.576556    3.787872
     94          1           0        7.608017    2.598288    3.491969
     95          6           0        6.711344    3.426506    5.206390
     96          6           0        8.344759    4.619381    3.726797
     97          1           0        7.948408    5.586179    4.030713
     98          1           0        8.639550    4.702513    2.677685
     99          8           0        7.138888    2.635858    6.011426
    100          6           0        9.549717    4.236252    4.569459
    101          1           0        9.901232    3.239997    4.282154
    102          1           0        9.269610    4.177038    5.617490
    103          6           0       10.708750    5.212901    4.425839
    104          1           0       11.065475    5.223288    3.393980
    105          1           0       11.556899    4.897273    5.040480
    106          7           0       10.375437    6.613924    4.747293
    107          1           0        9.947002    7.131858    3.993753
    108          7           0       10.170972    6.183204    7.029236
    109          1           0       10.138399    6.557544    7.963585
    110          1           0       10.748674    5.368056    6.904882
    111          7           0        9.454127    8.232248    6.139709
    112          1           0        9.618755    8.917878    5.414781
    113          1           0        9.424415    8.608544    7.075739
    114          6           0       10.018381    7.009315    5.976284
    115          8           0        5.744886    4.322021    5.520111
    116          1           0        5.538864    4.163734    6.447704
 ---------------------------------------------------------------------

 SCF Done:  E(RB3LYP) =  -2782.38312422     A.U. after    4 cycles

 Alpha  occ. eigenvalues --  -19.29027 -19.26606 -19.24757 -19.20847 -19.20547
 Alpha  occ. eigenvalues --  -19.17265 -19.16224 -19.14255 -19.14199 -19.00682
 Alpha  occ. eigenvalues --  -19.00609 -14.61322 -14.52049 -14.51927 -14.51843
 Alpha  occ. eigenvalues --  -14.47347 -14.43457 -14.42480 -14.41093 -14.38702
 Alpha  occ. eigenvalues --  -14.38082 -10.46991 -10.42028 -10.40008 -10.38804
 Alpha  occ. eigenvalues --  -10.38586 -10.37182 -10.35764 -10.33925 -10.33247
 Alpha  occ. eigenvalues --  -10.32486 -10.31508 -10.31061 -10.31034 -10.29728
 Alpha  occ. eigenvalues --  -10.29592 -10.29592 -10.29535 -10.26903 -10.26314
 Alpha  occ. eigenvalues --  -10.26234 -10.26199 -10.25745 -10.25629 -10.25480
 Alpha  occ. eigenvalues --  -10.25435 -10.25393 -10.25055 -10.24490 -10.21503
 Alpha  occ. eigenvalues --  -10.21502 -10.20787 -10.20554 -10.19341 -10.18817
 Alpha  occ. eigenvalues --  -10.17308 -10.13586  -1.19002  -1.17878  -1.16720
 Alpha  occ. eigenvalues --   -1.16667  -1.14982  -1.12959  -1.09520  -1.08937
 Alpha  occ. eigenvalues --   -1.08596  -1.06818  -1.06152  -1.05855  -1.05280
 Alpha  occ. eigenvalues --   -1.04242  -1.00381  -0.99472  -0.97518  -0.95662
 Alpha  occ. eigenvalues --   -0.95044  -0.94447  -0.93459  -0.92418  -0.91543
 Alpha  occ. eigenvalues --   -0.87787  -0.85916  -0.85583  -0.84898  -0.84373
 Alpha  occ. eigenvalues --   -0.84206  -0.81493  -0.81137  -0.80878  -0.80321
 Alpha  occ. eigenvalues --   -0.78862  -0.78074  -0.77632  -0.76714  -0.75507
 Alpha  occ. eigenvalues --   -0.74417  -0.74211  -0.72929  -0.72789  -0.72316
 Alpha  occ. eigenvalues --   -0.71497  -0.71078  -0.70040  -0.69730  -0.69127
 Alpha  occ. eigenvalues --   -0.68234  -0.67750  -0.67419  -0.66968  -0.66149
 Alpha  occ. eigenvalues --   -0.65426  -0.65139  -0.64724  -0.64477  -0.64082
 Alpha  occ. eigenvalues --   -0.63688  -0.62291  -0.61994  -0.61275  -0.61042
 Alpha  occ. eigenvalues --   -0.60914  -0.60410  -0.58766  -0.58591  -0.58321
 Alpha  occ. eigenvalues --   -0.57893  -0.57695  -0.57208  -0.57096  -0.56950
 Alpha  occ. eigenvalues --   -0.56474  -0.55971  -0.55397  -0.54788  -0.54160
 Alpha  occ. eigenvalues --   -0.53932  -0.53385  -0.52995  -0.52870  -0.52312
 Alpha  occ. eigenvalues --   -0.52069  -0.51694  -0.51549  -0.51164  -0.50998
 Alpha  occ. eigenvalues --   -0.50768  -0.50401  -0.50052  -0.49783  -0.49694
 Alpha  occ. eigenvalues --   -0.49383  -0.49040  -0.48698  -0.48422  -0.47633
 Alpha  occ. eigenvalues --   -0.47552  -0.47068  -0.46889  -0.46487  -0.46368
 Alpha  occ. eigenvalues --   -0.45796  -0.45443  -0.45300  -0.45210  -0.45164
 Alpha  occ. eigenvalues --   -0.44871  -0.44752  -0.44309  -0.43782  -0.43653
 Alpha  occ. eigenvalues --   -0.43333  -0.43224  -0.42949  -0.42685  -0.42668
 Alpha  occ. eigenvalues --   -0.42301  -0.42199  -0.41830  -0.41473  -0.41117
 Alpha  occ. eigenvalues --   -0.41020  -0.40971  -0.40694  -0.40487  -0.40274
 Alpha  occ. eigenvalues --   -0.39925  -0.39136  -0.38985  -0.38732  -0.38463
 Alpha  occ. eigenvalues --   -0.38211  -0.37277  -0.36231  -0.35378  -0.35334
 Alpha  occ. eigenvalues --   -0.35149  -0.34990  -0.34704  -0.34228  -0.33768
 Alpha  occ. eigenvalues --   -0.33510  -0.31854  -0.31692  -0.31306  -0.31093
 Alpha  occ. eigenvalues --   -0.30884  -0.30462  -0.30236  -0.30017  -0.28710
 Alpha  occ. eigenvalues --   -0.27769  -0.27185  -0.26467  -0.16387  -0.15161
 Alpha  occ. eigenvalues --   -0.14207
 Alpha virt. eigenvalues --   -0.13468  -0.11757  -0.10177  -0.09068  -0.07647
 Alpha virt. eigenvalues --   -0.06790  -0.06557  -0.05660  -0.05336  -0.05310
 Alpha virt. eigenvalues --   -0.04861  -0.04086  -0.03610  -0.03264  -0.02679

 Mulliken charges:
               1
     1  N   -0.711367
     2  H    0.429956
     3  H    0.425046
     4  H    0.422435
     5  C   -0.166125
     6  H    0.204471
     7  C    0.640659
     8  C    0.112394
     9  H    0.186601
    10  O   -0.505805
    11  C   -0.489768
    12  H    0.197276
    13  H    0.210587
    14  H    0.165330
    15  O   -0.608825
    16  H    0.412643
    17  N   -0.594956
    18  H    0.362362
    19  C   -0.084106
    20  H    0.195988
    21  C    0.623583
    22  C   -0.374405
    23  H    0.183912
    24  H    0.191849
    25  O   -0.515286
    26  C    0.186122
    27  C   -0.165407
    28  H    0.129030
    29  C   -0.193733
    30  H    0.123798
    31  C   -0.125636
    32  H    0.144170
    33  C   -0.146625
    34  H    0.129385
    35  C   -0.130089
    36  H    0.140176
    37  N   -0.579417
    38  H    0.340471
    39  C   -0.086649
    40  H    0.191472
    41  C    0.639953
    42  C   -0.453620
    43  H    0.173214
    44  H    0.164548
    45  H    0.168673
    46  O   -0.570521
    47  N   -0.577213
    48  H    0.347754
    49  C   -0.073148
    50  H    0.176627
    51  C    0.619809
    52  C   -0.282368
    53  H    0.177193
    54  H    0.156030
    55  O   -0.538679
    56  C   -0.317232
    57  H    0.099520
    58  H    0.094565
    59  C    0.537672
    60  O   -0.578882
    61  O   -0.583124
    62  N   -0.609812
    63  H    0.363839
    64  C   -0.047319
    65  H    0.171432
    66  C    0.614724
    67  C   -0.457322
    68  H    0.158221
    69  H    0.168876
    70  H    0.145257
    71  O   -0.539211
    72  N   -0.632250
    73  H    0.383796
    74  C   -0.042825
    75  H    0.152798
    76  C    0.630985
    77  C   -0.262542
    78  H    0.149940
    79  H    0.176424
    80  O   -0.511604
    81  C   -0.093875
    82  H    0.136559
    83  C   -0.434854
    84  H    0.149454
    85  H    0.112110
    86  H    0.134046
    87  C   -0.447335
    88  H    0.138378
    89  H    0.133371
    90  H    0.177448
    91  N   -0.622423
    92  H    0.330900
    93  C   -0.012422
    94  H    0.215235
    95  C    0.600241
    96  C   -0.318605
    97  H    0.139686
    98  H    0.170600
    99  O   -0.454535
   100  C   -0.284143
   101  H    0.191986
   102  H    0.175217
   103  C   -0.205027
   104  H    0.199365
   105  H    0.183992
   106  N   -0.567213
   107  H    0.361905
   108  N   -0.727293
   109  H    0.374880
   110  H    0.386146
   111  N   -0.736898
   112  H    0.374117
   113  H    0.370365
   114  C    0.729639
   115  O   -0.566341
   116  H    0.419628
 Sum of Mulliken charges =   1.00000

 Dipole moment (field-independent basis, Debye):
    X=              6.5957    Y=             27.8256    Z=             -5.6686  Tot=             29.1530
 Quadrupole moment (field-independent basis, Debye-Ang):
   XX=            318.8124   YY=           -138.2853   ZZ=           -105.7278
   XY=            375.8373   XZ=            356.1250   YZ=            252.1011

 Normal termination of Gaussian 16 at Sat Jul 16 02:11:26 2022.
