 Gaussian 16, Revision C.01,
 Gaussian 16:  ES64L-G16RevC.01  3-Jul-2019

 ----------------------------------------------------------------------
 # B3LYP/6-31G* empiricaldispersion=gd3bj guess=read geom=check nosymm
 integral(ultrafinegrid)
 ----------------------------------------------------------------------

 ------------------------------------------------------
 Candidate Structure: Conf:156 Charge calc in gas phase
 ------------------------------------------------------
 Structure from the checkpoint file:  "conf-156.chk"
 Charge =  1 Multiplicity = 1

                          Input orientation:
 ---------------------------------------------------------------------
 Center     Atomic      Atomic             Coordinates (Angstroms)
 Number     Number       Type             X           Y           Z
 ---------------------------------------------------------------------
      1          7           0       -5.336901   -1.294166   -3.346624
      2          1           0       -5.396942   -1.455054   -2.342082
      3          1           0       -5.302020    0.377367   -3.554397
      4          1           0       -6.170748   -1.695808   -3.779221
      5          6           0       -4.171790   -2.008410   -3.919979
      6          1           0       -4.099716   -3.033938   -3.526842
      7          6           0       -2.934108   -1.196413   -3.523976
      8          6           0       -4.347263   -2.093858   -5.437130
      9          1           0       -4.370801   -1.068226   -5.827945
     10          8           0       -2.509265   -0.305676   -4.263096
     11          6           0       -3.230542   -2.885208   -6.108264
     12          1           0       -2.264588   -2.390691   -5.970724
     13          1           0       -3.414468   -2.960846   -7.185497
     14          1           0       -3.180454   -3.901048   -5.701802
     15          8           0       -5.620496   -2.725373   -5.606207
     16          1           0       -5.858453   -2.686096   -6.544786
     17          7           0       -2.418141   -1.541017   -2.313127
     18          1           0       -2.854964   -2.361409   -1.903498
     19          6           0       -1.792703   -0.740231   -1.246015
     20          1           0       -2.593889   -0.193763   -0.737612
     21          6           0       -0.779781    0.351347   -1.582941
     22          6           0       -1.150221   -1.720829   -0.231043
     23          1           0       -0.317774   -2.239436   -0.719167
     24          1           0       -0.738765   -1.115594    0.579729
     25          8           0       -0.368378    1.024874   -0.614393
     26          6           0       -2.159674   -2.714329    0.293822
     27          6           0       -3.136447   -2.308423    1.214329
     28          1           0       -3.124638   -1.288432    1.591884
     29          6           0       -2.186245   -4.033066   -0.178665
     30          1           0       -1.426886   -4.362955   -0.883907
     31          6           0       -4.112033   -3.200177    1.655050
     32          1           0       -4.855976   -2.874162    2.375998
     33          6           0       -3.164695   -4.928781    0.260557
     34          1           0       -3.165750   -5.950171   -0.108283
     35          6           0       -4.129642   -4.513354    1.177087
     36          1           0       -4.888069   -5.208779    1.523462
     37          7           0       -0.400743    0.557212   -2.845939
     38          1           0       -0.991199    0.136929   -3.575034
     39          6           0        0.483098    1.646741   -3.245389
     40          1           0        1.309995    1.701799   -2.530022
     41          6           0       -0.187029    3.027118   -3.191722
     42          6           0        1.061683    1.369060   -4.633349
     43          1           0        1.686729    2.210425   -4.937688
     44          1           0        0.265666    1.238567   -5.375143
     45          1           0        1.675861    0.465646   -4.607438
     46          8           0        0.474855    4.037512   -3.451287
     47          7           0       -1.476830    3.087186   -2.787557
     48          1           0       -2.009907    2.242596   -2.594567
     49          6           0       -2.061753    4.350731   -2.372591
     50          1           0       -1.936648    5.085023   -3.173584
     51          6           0       -1.323085    4.922606   -1.145245
     52          6           0       -3.557631    4.207390   -2.031442
     53          1           0       -3.937778    5.219575   -1.869427
     54          1           0       -3.658738    3.669140   -1.083455
     55          8           0       -1.310475    6.140685   -0.928331
     56          6           0       -4.400314    3.494314   -3.098188
     57          1           0       -5.436032    3.848761   -3.071985
     58          1           0       -4.039860    3.707589   -4.112741
     59          6           0       -4.435618    1.984211   -2.923622
     60          8           0       -5.333885    1.396751   -3.680090
     61          8           0       -3.692450    1.386782   -2.142182
     62          7           0       -0.760323    3.992281   -0.345165
     63          1           0       -0.854187    3.012919   -0.606690
     64          6           0        0.012581    4.274368    0.856154
     65          1           0       -0.035746    5.347630    1.029534
     66          6           0        1.501357    3.907971    0.666691
     67          6           0       -0.575959    3.528606    2.061126
     68          1           0        0.047858    3.677466    2.947883
     69          1           0       -0.640211    2.455059    1.858484
     70          1           0       -1.581173    3.904408    2.272002
     71          8           0        2.411684    4.732947    0.855711
     72          7           0        1.742513    2.621128    0.365422
     73          1           0        0.982873    2.007038    0.071220
     74          6           0        3.077236    2.040815    0.417970
     75          1           0        3.609061    2.539853    1.232158
     76          6           0        3.817784    2.280503   -0.905164
     77          6           0        2.980661    0.531122    0.678026
     78          1           0        2.573862    0.060366   -0.223739
     79          1           0        4.002902    0.147811    0.795057
     80          8           0        3.503156    1.684656   -1.935024
     81          6           0        2.139368    0.130731    1.901827
     82          1           0        1.104493    0.450588    1.720449
     83          6           0        2.133018   -1.396759    2.039031
     84          1           0        3.140995   -1.776907    2.245311
     85          1           0        1.777135   -1.877724    1.120404
     86          1           0        1.482808   -1.715024    2.861192
     87          6           0        2.625646    0.799663    3.192356
     88          1           0        3.677109    0.554650    3.388856
     89          1           0        2.040216    0.456564    4.052089
     90          1           0        2.536079    1.890907    3.148642
     91          7           0        4.824900    3.190629   -0.846112
     92          1           0        5.040225    3.607468    0.049935
     93          6           0        5.795332    3.369737   -1.919903
     94          1           0        5.756863    2.468954   -2.540942
     95          6           0        7.220058    3.485913   -1.390565
     96          6           0        5.474613    4.591035   -2.804715
     97          1           0        6.322478    4.759448   -3.473804
     98          1           0        5.416005    5.474572   -2.154363
     99          8           0        8.188913    3.549173   -2.106696
    100          6           0        4.169813    4.393475   -3.607304
    101          1           0        3.632052    3.508872   -3.257128
    102          1           0        4.413935    4.207031   -4.658288
    103          6           0        3.211819    5.576388   -3.566436
    104          1           0        2.363515    5.340982   -4.208780
    105          1           0        3.685313    6.495311   -3.933825
    106          7           0        2.724435    5.807323   -2.199430
    107          1           0        3.249124    5.418419   -1.423249
    108          7           0        0.775506    6.880603   -2.875349
    109          1           0       -0.110618    7.230780   -2.524160
    110          1           0        0.638668    6.162868   -3.582548
    111          7           0        1.407001    6.916028   -0.636628
    112          1           0        1.952075    6.459624    0.097624
    113          1           0        0.419767    7.028674   -0.409018
    114          6           0        1.632702    6.508136   -1.896064
    115          8           0        7.281717    3.551854   -0.038922
    116          1           0        8.224690    3.652074    0.194318
 ---------------------------------------------------------------------

 SCF Done:  E(RB3LYP) =  -2782.64177064     A.U. after    1 cycles

 Alpha  occ. eigenvalues --  -19.28814 -19.25295 -19.23432 -19.22780 -19.22776
 Alpha  occ. eigenvalues --  -19.22461 -19.22219 -19.22098 -19.21955 -19.21695
 Alpha  occ. eigenvalues --  -19.21104 -14.47413 -14.46511 -14.45891 -14.45809
 Alpha  occ. eigenvalues --  -14.45524 -14.45515 -14.45269 -14.45203 -14.45146
 Alpha  occ. eigenvalues --  -14.43958 -10.42530 -10.40886 -10.40248 -10.39775
 Alpha  occ. eigenvalues --  -10.39696 -10.38890 -10.38817 -10.38455 -10.38063
 Alpha  occ. eigenvalues --  -10.33793 -10.33211 -10.33030 -10.33021 -10.32588
 Alpha  occ. eigenvalues --  -10.32492 -10.32233 -10.32125 -10.31723 -10.28708
 Alpha  occ. eigenvalues --  -10.28678 -10.28548 -10.28477 -10.28138 -10.27513
 Alpha  occ. eigenvalues --  -10.27458 -10.27428 -10.27309 -10.27302 -10.27292
 Alpha  occ. eigenvalues --  -10.27079 -10.26771 -10.26735 -10.26553 -10.25718
 Alpha  occ. eigenvalues --  -10.24722 -10.24616  -1.19471  -1.17533  -1.14848
 Alpha  occ. eigenvalues --   -1.14245  -1.13849  -1.13583  -1.12965  -1.12739
 Alpha  occ. eigenvalues --   -1.11533  -1.10878  -1.10428  -1.08702  -1.03728
 Alpha  occ. eigenvalues --   -1.03568  -1.03092  -1.02348  -1.01924  -1.01248
 Alpha  occ. eigenvalues --   -1.00962  -0.99748  -0.99165  -0.94190  -0.90006
 Alpha  occ. eigenvalues --   -0.89414  -0.88937  -0.88808  -0.86952  -0.86270
 Alpha  occ. eigenvalues --   -0.85555  -0.85065  -0.82861  -0.82625  -0.82467
 Alpha  occ. eigenvalues --   -0.81821  -0.77959  -0.77759  -0.75803  -0.75511
 Alpha  occ. eigenvalues --   -0.75290  -0.74252  -0.73675  -0.73410  -0.72537
 Alpha  occ. eigenvalues --   -0.71991  -0.70818  -0.69595  -0.69212  -0.68940
 Alpha  occ. eigenvalues --   -0.68677  -0.68506  -0.68264  -0.68000  -0.67518
 Alpha  occ. eigenvalues --   -0.67104  -0.66583  -0.66406  -0.64904  -0.64200
 Alpha  occ. eigenvalues --   -0.63280  -0.62998  -0.62393  -0.61911  -0.61041
 Alpha  occ. eigenvalues --   -0.60616  -0.59908  -0.59334  -0.59265  -0.59162
 Alpha  occ. eigenvalues --   -0.58751  -0.58368  -0.57845  -0.57571  -0.57254
 Alpha  occ. eigenvalues --   -0.57213  -0.56942  -0.56330  -0.56172  -0.56141
 Alpha  occ. eigenvalues --   -0.55698  -0.55208  -0.55100  -0.54764  -0.54158
 Alpha  occ. eigenvalues --   -0.54084  -0.53844  -0.53608  -0.53574  -0.52973
 Alpha  occ. eigenvalues --   -0.52722  -0.52241  -0.52108  -0.51855  -0.51648
 Alpha  occ. eigenvalues --   -0.51405  -0.51086  -0.51027  -0.50810  -0.50525
 Alpha  occ. eigenvalues --   -0.50361  -0.50272  -0.50152  -0.49931  -0.49810
 Alpha  occ. eigenvalues --   -0.49181  -0.48876  -0.48688  -0.48488  -0.48411
 Alpha  occ. eigenvalues --   -0.48005  -0.47934  -0.47655  -0.47126  -0.46952
 Alpha  occ. eigenvalues --   -0.46849  -0.46425  -0.46346  -0.46260  -0.45999
 Alpha  occ. eigenvalues --   -0.45569  -0.45378  -0.45280  -0.44994  -0.44818
 Alpha  occ. eigenvalues --   -0.44380  -0.44076  -0.44049  -0.43940  -0.43904
 Alpha  occ. eigenvalues --   -0.43727  -0.43359  -0.43230  -0.42397  -0.42250
 Alpha  occ. eigenvalues --   -0.41663  -0.40566  -0.40346  -0.40235  -0.40124
 Alpha  occ. eigenvalues --   -0.39511  -0.38868  -0.38480  -0.38401  -0.37821
 Alpha  occ. eigenvalues --   -0.37524  -0.37320  -0.37170  -0.36751  -0.36395
 Alpha  occ. eigenvalues --   -0.35903  -0.35799  -0.35726  -0.34866  -0.34668
 Alpha  occ. eigenvalues --   -0.34390  -0.34082  -0.33716  -0.33553  -0.33344
 Alpha  occ. eigenvalues --   -0.32904
 Alpha virt. eigenvalues --   -0.10013  -0.09638  -0.09150  -0.08815  -0.08605
 Alpha virt. eigenvalues --   -0.08120  -0.08005  -0.07805  -0.07237  -0.07111
 Alpha virt. eigenvalues --   -0.06593  -0.02053  -0.01837  -0.01345  -0.01020

 Mulliken charges:
               1
     1  N   -0.790047
     2  H    0.334620
     3  H    0.479012
     4  H    0.367384
     5  C   -0.080843
     6  H    0.155054
     7  C    0.676430
     8  C    0.145525
     9  H    0.157810
    10  O   -0.556742
    11  C   -0.473628
    12  H    0.167108
    13  H    0.158804
    14  H    0.160714
    15  O   -0.644427
    16  H    0.410941
    17  N   -0.655167
    18  H    0.352789
    19  C   -0.013348
    20  H    0.211031
    21  C    0.620602
    22  C   -0.380430
    23  H    0.166335
    24  H    0.197370
    25  O   -0.590487
    26  C    0.126228
    27  C   -0.178976
    28  H    0.137255
    29  C   -0.203633
    30  H    0.142735
    31  C   -0.129766
    32  H    0.150849
    33  C   -0.126546
    34  H    0.152650
    35  C   -0.129606
    36  H    0.153652
    37  N   -0.627863
    38  H    0.399601
    39  C   -0.076767
    40  H    0.227398
    41  C    0.629579
    42  C   -0.470790
    43  H    0.183062
    44  H    0.164058
    45  H    0.178621
    46  O   -0.561989
    47  N   -0.673433
    48  H    0.406439
    49  C   -0.026290
    50  H    0.170649
    51  C    0.628597
    52  C   -0.304508
    53  H    0.182108
    54  H    0.170159
    55  O   -0.580210
    56  C   -0.366351
    57  H    0.198000
    58  H    0.193831
    59  C    0.608853
    60  O   -0.593841
    61  O   -0.536285
    62  N   -0.617401
    63  H    0.388169
    64  C   -0.077144
    65  H    0.174071
    66  C    0.636051
    67  C   -0.461949
    68  H    0.177530
    69  H    0.170947
    70  H    0.176855
    71  O   -0.583015
    72  N   -0.629812
    73  H    0.421029
    74  C   -0.063373
    75  H    0.168031
    76  C    0.643377
    77  C   -0.294845
    78  H    0.165794
    79  H    0.152571
    80  O   -0.530517
    81  C   -0.087449
    82  H    0.135621
    83  C   -0.447547
    84  H    0.152149
    85  H    0.140866
    86  H    0.151948
    87  C   -0.454759
    88  H    0.149350
    89  H    0.155432
    90  H    0.145227
    91  N   -0.608460
    92  H    0.362547
    93  C   -0.067952
    94  H    0.217466
    95  C    0.593065
    96  C   -0.288678
    97  H    0.195214
    98  H    0.145262
    99  O   -0.439508
   100  C   -0.332519
   101  H    0.210796
   102  H    0.168699
   103  C   -0.128339
   104  H    0.185071
   105  H    0.178060
   106  N   -0.609835
   107  H    0.366265
   108  N   -0.739990
   109  H    0.366994
   110  H    0.381152
   111  N   -0.763998
   112  H    0.386172
   113  H    0.383096
   114  C    0.738907
   115  O   -0.580133
   116  H    0.429556
 Sum of Mulliken charges =   1.00000

 Dipole moment (field-independent basis, Debye):
    X=             -3.2730    Y=              6.4446    Z=             -7.5801  Tot=             10.4740
 Quadrupole moment (field-independent basis, Debye-Ang):
   XX=           -254.3538   YY=           -253.5999   ZZ=           -279.4061
   XY=             42.6954   XZ=             30.8905   YZ=             -5.7943

 Normal termination of Gaussian 16 at Sat Jul 16 02:10:24 2022.
