 Gaussian 16, Revision C.01,
 Gaussian 16:  ES64L-G16RevC.01  3-Jul-2019

 ----------------------------------------------------------------------
 # B3LYP/6-31G* empiricaldispersion=gd3bj guess=read geom=check nosymm
 integral(ultrafinegrid)
 ----------------------------------------------------------------------

 ------------------------------------------------------
 Candidate Structure: Conf:950 Charge calc in gas phase
 ------------------------------------------------------
 Structure from the checkpoint file:  "conf-950.chk"
 Charge =  1 Multiplicity = 1

                          Input orientation:
 ---------------------------------------------------------------------
 Center     Atomic      Atomic             Coordinates (Angstroms)
 Number     Number       Type             X           Y           Z
 ---------------------------------------------------------------------
      1          7           0       -5.660063   -6.217645   -2.771493
      2          1           0       -5.482684   -5.798310   -1.843153
      3          1           0       -6.679251   -6.298144   -2.901768
      4          1           0       -5.252976   -7.151703   -2.808185
      5          6           0       -5.172001   -5.358044   -3.883442
      6          1           0       -4.106586   -5.538064   -4.049652
      7          6           0       -5.389458   -3.896578   -3.488073
      8          6           0       -5.976894   -5.665985   -5.152792
      9          1           0       -5.764486   -4.889407   -5.897010
     10          8           0       -6.510008   -3.375751   -3.562912
     11          6           0       -5.665476   -7.026135   -5.739261
     12          1           0       -4.614772   -7.093909   -6.036733
     13          1           0       -6.290263   -7.199577   -6.616939
     14          1           0       -5.873764   -7.822253   -5.020376
     15          8           0       -7.361986   -5.645979   -4.822849
     16          1           0       -7.542137   -4.745552   -4.505407
     17          7           0       -4.306207   -3.275523   -3.005547
     18          1           0       -3.385161   -3.689047   -3.064267
     19          6           0       -4.382861   -1.941637   -2.442350
     20          1           0       -5.371662   -1.554575   -2.676398
     21          6           0       -3.278170   -1.106256   -3.070021
     22          6           0       -4.186007   -2.031816   -0.908938
     23          1           0       -3.184914   -2.425954   -0.702431
     24          1           0       -4.234651   -1.034928   -0.464278
     25          8           0       -2.128059   -1.558405   -3.042910
     26          6           0       -5.225917   -2.944763   -0.317169
     27          6           0       -6.486299   -2.479979    0.057331
     28          1           0       -6.708789   -1.420978   -0.023158
     29          6           0       -4.958378   -4.315788   -0.196312
     30          1           0       -3.975092   -4.691461   -0.468772
     31          6           0       -7.461822   -3.359482    0.530512
     32          1           0       -8.434825   -2.975105    0.816108
     33          6           0       -5.930211   -5.197041    0.273219
     34          1           0       -5.698577   -6.256414    0.353200
     35          6           0       -7.190750   -4.723191    0.635504
     36          1           0       -7.949499   -5.405807    1.001681
     37          7           0       -3.568901    0.095854   -3.617388
     38          1           0       -4.517587    0.434415   -3.618900
     39          6           0       -2.538233    0.864397   -4.338735
     40          1           0       -1.872131    0.119841   -4.786667
     41          6           0       -1.752389    1.642747   -3.268865
     42          6           0       -3.136531    1.758244   -5.407008
     43          1           0       -2.352081    2.346856   -5.885064
     44          1           0       -3.857057    2.450760   -4.965873
     45          1           0       -3.638255    1.150507   -6.164076
     46          8           0       -1.753565    2.868682   -3.139218
     47          7           0       -1.104702    0.804851   -2.446866
     48          1           0       -1.231150   -0.190266   -2.610973
     49          6           0       -0.564231    1.169277   -1.155062
     50          1           0       -1.112105    2.047838   -0.786707
     51          6           0        0.899123    1.587436   -1.258038
     52          6           0       -0.863294   -0.033381   -0.268131
     53          1           0       -0.398794    0.060630    0.715168
     54          1           0       -0.445907   -0.945075   -0.704851
     55          8           0        1.821666    1.000990   -0.684418
     56          6           0       -2.385100   -0.110144   -0.188725
     57          1           0       -2.784073    0.764317    0.327927
     58          1           0       -2.784944   -0.119379   -1.201045
     59          6           0       -2.988096   -1.390247    0.442509
     60          8           0       -2.431858   -2.463527    0.121095
     61          8           0       -4.039782   -1.204681    1.091653
     62          7           0        1.104729    2.669692   -2.041367
     63          1           0        0.298485    3.145666   -2.438441
     64          6           0        2.439387    3.195367   -2.282488
     65          1           0        3.112629    2.331119   -2.241304
     66          6           0        2.840429    4.150888   -1.149780
     67          6           0        2.510036    3.866920   -3.643522
     68          1           0        3.517830    4.243059   -3.827757
     69          1           0        1.821551    4.713891   -3.689921
     70          1           0        2.247410    3.146978   -4.421667
     71          8           0        3.093352    5.344818   -1.334146
     72          7           0        2.875717    3.585474    0.078816
     73          1           0        2.772080    2.576714    0.151755
     74          6           0        3.284554    4.360341    1.238791
     75          1           0        2.882748    5.364792    1.082461
     76          6           0        4.809351    4.444736    1.287790
     77          6           0        2.703777    3.776809    2.518258
     78          1           0        1.620721    3.709709    2.373058
     79          1           0        3.081386    2.759228    2.651214
     80          8           0        5.514550    3.723259    1.980423
     81          6           0        2.987654    4.587950    3.793664
     82          1           0        4.048534    4.466834    4.036242
     83          6           0        2.714542    6.080515    3.605049
     84          1           0        1.721561    6.240699    3.169714
     85          1           0        3.456828    6.550537    2.952835
     86          1           0        2.747647    6.600721    4.566321
     87          6           0        2.158577    4.012794    4.941433
     88          1           0        1.090712    4.152779    4.748665
     89          1           0        2.399932    4.505247    5.887418
     90          1           0        2.345166    2.942216    5.062555
     91          7           0        5.348892    5.387064    0.471637
     92          1           0        4.760934    5.853284   -0.209524
     93          6           0        6.775924    5.610403    0.507744
     94          1           0        7.303833    4.700795    0.195848
     95          6           0        7.186884    5.929388    1.939511
     96          6           0        7.134916    6.778738   -0.416935
     97          1           0        6.596388    7.658401   -0.057860
     98          1           0        6.746843    6.536946   -1.412231
     99          8           0        6.544819    6.594876    2.713762
    100          6           0        8.629504    7.058568   -0.495762
    101          1           0        9.167471    6.151416   -0.787243
    102          1           0        9.006089    7.347053    0.484513
    103          6           0        8.967880    8.157291   -1.500072
    104          1           0        8.689378    7.845537   -2.508958
    105          1           0       10.045816    8.346097   -1.525292
    106          7           0        8.262790    9.434765   -1.268528
    107          1           0        7.329554    9.477318   -1.655758
    108          7           0        9.467285    9.933390    0.662478
    109          1           0        9.756436   10.640644    1.321449
    110          1           0       10.195155    9.308866    0.351110
    111          7           0        7.582427   11.189716    0.089664
    112          1           0        7.024668   11.543698   -0.676616
    113          1           0        7.862518   11.890701    0.761250
    114          6           0        8.453974   10.191227   -0.182206
    115          8           0        8.411677    5.427609    2.227113
    116          1           0        8.597271    5.684642    3.142199
 ---------------------------------------------------------------------

 SCF Done:  E(RB3LYP) =  -2782.20338642     A.U. after    1 cycles

 Alpha  occ. eigenvalues --  -19.27245 -19.22978 -19.21347 -19.19577 -19.17414
 Alpha  occ. eigenvalues --  -19.17213 -19.17163 -19.15820 -19.15758 -19.07295
 Alpha  occ. eigenvalues --  -19.07115 -14.55550 -14.55402 -14.55091 -14.54984
 Alpha  occ. eigenvalues --  -14.43462 -14.42515 -14.41684 -14.40423 -14.39871
 Alpha  occ. eigenvalues --  -14.38087 -10.51500 -10.39434 -10.38052 -10.36934
 Alpha  occ. eigenvalues --  -10.35191 -10.34136 -10.33866 -10.33691 -10.33626
 Alpha  occ. eigenvalues --  -10.32334 -10.32295 -10.32010 -10.31711 -10.30624
 Alpha  occ. eigenvalues --  -10.28602 -10.28205 -10.28035 -10.27418 -10.26778
 Alpha  occ. eigenvalues --  -10.26085 -10.25862 -10.23374 -10.22993 -10.22504
 Alpha  occ. eigenvalues --  -10.22105 -10.22084 -10.21566 -10.21391 -10.21312
 Alpha  occ. eigenvalues --  -10.21044 -10.20885 -10.20419 -10.20282 -10.19806
 Alpha  occ. eigenvalues --  -10.17753 -10.12287  -1.20100  -1.18243  -1.13568
 Alpha  occ. eigenvalues --   -1.10527  -1.09934  -1.09910  -1.09539  -1.09232
 Alpha  occ. eigenvalues --   -1.09136  -1.08681  -1.08468  -1.07706  -1.07279
 Alpha  occ. eigenvalues --   -1.07049  -0.99866  -0.99261  -0.98556  -0.97627
 Alpha  occ. eigenvalues --   -0.96921  -0.96455  -0.95980  -0.93225  -0.88538
 Alpha  occ. eigenvalues --   -0.87788  -0.87258  -0.85252  -0.84056  -0.82778
 Alpha  occ. eigenvalues --   -0.82578  -0.81936  -0.80534  -0.79755  -0.79679
 Alpha  occ. eigenvalues --   -0.78085  -0.77419  -0.77274  -0.76489  -0.74940
 Alpha  occ. eigenvalues --   -0.74306  -0.72396  -0.71900  -0.70875  -0.70614
 Alpha  occ. eigenvalues --   -0.70015  -0.69999  -0.69359  -0.68661  -0.68316
 Alpha  occ. eigenvalues --   -0.68186  -0.67527  -0.66628  -0.66392  -0.65415
 Alpha  occ. eigenvalues --   -0.64796  -0.63902  -0.63644  -0.63250  -0.62868
 Alpha  occ. eigenvalues --   -0.62768  -0.62226  -0.62042  -0.61570  -0.61134
 Alpha  occ. eigenvalues --   -0.60205  -0.60003  -0.59330  -0.58879  -0.57761
 Alpha  occ. eigenvalues --   -0.57406  -0.57108  -0.56816  -0.55664  -0.55476
 Alpha  occ. eigenvalues --   -0.55418  -0.54656  -0.54494  -0.54279  -0.53764
 Alpha  occ. eigenvalues --   -0.53328  -0.52995  -0.52803  -0.52404  -0.52125
 Alpha  occ. eigenvalues --   -0.51576  -0.51252  -0.50843  -0.50087  -0.49602
 Alpha  occ. eigenvalues --   -0.49091  -0.48884  -0.48780  -0.47925  -0.47874
 Alpha  occ. eigenvalues --   -0.47615  -0.47575  -0.47415  -0.47126  -0.47049
 Alpha  occ. eigenvalues --   -0.46930  -0.46472  -0.46402  -0.46115  -0.46027
 Alpha  occ. eigenvalues --   -0.45971  -0.45588  -0.45536  -0.44854  -0.44784
 Alpha  occ. eigenvalues --   -0.44644  -0.44426  -0.44263  -0.43805  -0.43746
 Alpha  occ. eigenvalues --   -0.43652  -0.43405  -0.43246  -0.42962  -0.42728
 Alpha  occ. eigenvalues --   -0.42408  -0.42211  -0.42149  -0.41683  -0.41406
 Alpha  occ. eigenvalues --   -0.41179  -0.40898  -0.40771  -0.40545  -0.40169
 Alpha  occ. eigenvalues --   -0.39698  -0.39125  -0.38681  -0.38396  -0.36961
 Alpha  occ. eigenvalues --   -0.36845  -0.36612  -0.36413  -0.36151  -0.35840
 Alpha  occ. eigenvalues --   -0.35833  -0.35170  -0.35089  -0.33899  -0.33481
 Alpha  occ. eigenvalues --   -0.32955  -0.32782  -0.32350  -0.31744  -0.31237
 Alpha  occ. eigenvalues --   -0.30899  -0.29308  -0.28913  -0.28531  -0.27953
 Alpha  occ. eigenvalues --   -0.27733  -0.27503  -0.24352  -0.23179  -0.21753
 Alpha  occ. eigenvalues --   -0.17248
 Alpha virt. eigenvalues --   -0.16227  -0.11367  -0.08187  -0.07706  -0.07086
 Alpha virt. eigenvalues --   -0.06276  -0.05693  -0.04951  -0.04334  -0.03923
 Alpha virt. eigenvalues --   -0.03030  -0.02918  -0.02521  -0.02110  -0.01943

 Mulliken charges:
               1
     1  N   -0.740965
     2  H    0.408768
     3  H    0.414160
     4  H    0.404693
     5  C   -0.141095
     6  H    0.190610
     7  C    0.628036
     8  C    0.118464
     9  H    0.174554
    10  O   -0.537872
    11  C   -0.460594
    12  H    0.163053
    13  H    0.202396
    14  H    0.135943
    15  O   -0.638908
    16  H    0.435126
    17  N   -0.570789
    18  H    0.349671
    19  C   -0.065283
    20  H    0.153191
    21  C    0.614003
    22  C   -0.572664
    23  H    0.360798
    24  H    0.230396
    25  O   -0.559872
    26  C    0.282010
    27  C   -0.139894
    28  H    0.131520
    29  C   -0.225198
    30  H    0.122290
    31  C   -0.131992
    32  H    0.129750
    33  C   -0.180213
    34  H    0.105530
    35  C   -0.135355
    36  H    0.123362
    37  N   -0.596068
    38  H    0.345326
    39  C   -0.070973
    40  H    0.185030
    41  C    0.621013
    42  C   -0.462521
    43  H    0.176139
    44  H    0.170164
    45  H    0.152811
    46  O   -0.556974
    47  N   -0.618034
    48  H    0.406858
    49  C   -0.059236
    50  H    0.172903
    51  C    0.628089
    52  C   -0.289497
    53  H    0.157044
    54  H    0.175554
    55  O   -0.553649
    56  C   -0.313910
    57  H    0.141041
    58  H    0.134186
    59  C    0.511090
    60  O   -0.575616
    61  O   -0.547148
    62  N   -0.601904
    63  H    0.366192
    64  C   -0.059493
    65  H    0.183787
    66  C    0.626016
    67  C   -0.450785
    68  H    0.149643
    69  H    0.167872
    70  H    0.158154
    71  O   -0.568499
    72  N   -0.617139
    73  H    0.379851
    74  C   -0.063100
    75  H    0.172310
    76  C    0.654452
    77  C   -0.274552
    78  H    0.142993
    79  H    0.160988
    80  O   -0.531264
    81  C   -0.079168
    82  H    0.153531
    83  C   -0.459245
    84  H    0.138524
    85  H    0.145829
    86  H    0.143719
    87  C   -0.446133
    88  H    0.142375
    89  H    0.141819
    90  H    0.150251
    91  N   -0.644000
    92  H    0.363430
    93  C    0.030238
    94  H    0.186394
    95  C    0.593284
    96  C   -0.327988
    97  H    0.151606
    98  H    0.169018
    99  O   -0.460206
   100  C   -0.282695
   101  H    0.194476
   102  H    0.163931
   103  C   -0.209421
   104  H    0.209500
   105  H    0.187494
   106  N   -0.562438
   107  H    0.376842
   108  N   -0.718329
   109  H    0.386094
   110  H    0.393319
   111  N   -0.724679
   112  H    0.387869
   113  H    0.382929
   114  C    0.769454
   115  O   -0.570324
   116  H    0.415931
 Sum of Mulliken charges =   1.00000

 Dipole moment (field-independent basis, Debye):
    X=             29.3123    Y=             30.6945    Z=            -15.6051  Tot=             45.2204
 Quadrupole moment (field-independent basis, Debye-Ang):
   XX=             52.8860   YY=            229.4643   ZZ=           -285.0567
   XY=            461.2972   XZ=             38.6797   YZ=             45.4525

 Normal termination of Gaussian 16 at Sat Jul 16 02:10:09 2022.
