 Gaussian 16, Revision C.01,
 Gaussian 16:  ES64L-G16RevC.01  3-Jul-2019

 ----------------------------------------------------------------------
 # B3LYP/6-31G* empiricaldispersion=gd3bj guess=read geom=check nosymm
 integral(ultrafinegrid)
 ----------------------------------------------------------------------

 ------------------------------------------------------
 Candidate Structure: Conf:123 Charge calc in gas phase
 ------------------------------------------------------
 Structure from the checkpoint file:  "conf-123.chk"
 Charge =  1 Multiplicity = 1

                          Input orientation:
 ---------------------------------------------------------------------
 Center     Atomic      Atomic             Coordinates (Angstroms)
 Number     Number       Type             X           Y           Z
 ---------------------------------------------------------------------
      1          7           0       -6.444510   -1.373635   -8.965781
      2          1           0       -7.414640   -1.299384   -8.657879
      3          1           0       -6.066762   -0.430837   -9.091042
      4          1           0       -6.391168   -1.888229   -9.846074
      5          6           0       -5.616444   -2.055882   -7.954362
      6          1           0       -6.150170   -2.930839   -7.562419
      7          6           0       -5.314484   -1.069444   -6.832024
      8          6           0       -4.324611   -2.560686   -8.626485
      9          1           0       -3.795713   -1.694387   -9.029810
     10          8           0       -5.204960    0.126242   -7.059984
     11          6           0       -3.416118   -3.353747   -7.710988
     12          1           0       -3.052364   -2.758610   -6.873238
     13          1           0       -2.555774   -3.712171   -8.279413
     14          1           0       -3.950694   -4.223293   -7.311644
     15          8           0       -4.675534   -3.342475   -9.765493
     16          1           0       -5.007079   -4.183646   -9.443944
     17          7           0       -5.155750   -1.610128   -5.595935
     18          1           0       -5.049680   -2.607169   -5.482630
     19          6           0       -4.617414   -0.843837   -4.497912
     20          1           0       -4.102913    0.027756   -4.911401
     21          6           0       -3.642667   -1.765739   -3.758096
     22          6           0       -5.723260   -0.350020   -3.552318
     23          1           0       -6.223324   -1.216085   -3.112811
     24          1           0       -5.260084    0.206781   -2.733970
     25          8           0       -3.656052   -2.974111   -3.922520
     26          6           0       -6.717289    0.519791   -4.274166
     27          6           0       -6.521334    1.897145   -4.372883
     28          1           0       -5.656454    2.347043   -3.894328
     29          6           0       -7.838810   -0.038787   -4.891466
     30          1           0       -7.986643   -1.113758   -4.837588
     31          6           0       -7.413392    2.697593   -5.084443
     32          1           0       -7.237043    3.764963   -5.150983
     33          6           0       -8.737918    0.758584   -5.597941
     34          1           0       -9.603304    0.302388   -6.064976
     35          6           0       -8.524550    2.128562   -5.701743
     36          1           0       -9.222696    2.748620   -6.252788
     37          7           0       -2.809713   -1.158835   -2.888902
     38          1           0       -2.797319   -0.160636   -2.748348
     39          6           0       -1.865284   -1.918945   -2.099887
     40          1           0       -2.384021   -2.779215   -1.669748
     41          6           0       -1.396485   -0.979871   -0.990726
     42          6           0       -0.698200   -2.434858   -2.940373
     43          1           0        0.006954   -2.987397   -2.316572
     44          1           0       -0.170619   -1.603933   -3.416013
     45          1           0       -1.082619   -3.092974   -3.717930
     46          8           0       -1.529881    0.234920   -1.080777
     47          7           0       -0.811003   -1.571585    0.073625
     48          1           0       -0.647640   -2.562369    0.067095
     49          6           0       -0.311978   -0.787551    1.196814
     50          1           0       -1.009027    0.047428    1.309824
     51          6           0        1.075463   -0.240871    0.852200
     52          6           0       -0.281259   -1.609920    2.478148
     53          1           0        0.473413   -2.390694    2.373886
     54          1           0       -1.248346   -2.099930    2.605137
     55          8           0        2.109241   -0.719608    1.314726
     56          6           0       -0.003199   -0.744677    3.702647
     57          1           0        0.941662   -0.214251    3.614979
     58          1           0       -0.795271   -0.001921    3.824070
     59          6           0       -0.009930   -1.558686    5.027546
     60          8           0        0.744055   -1.118815    5.918300
     61          8           0       -0.805398   -2.502613    5.086277
     62          7           0        1.110008    0.787774   -0.021996
     63          1           0        0.243832    1.155612   -0.391515
     64          6           0        2.354983    1.503412   -0.223519
     65          1           0        3.109522    0.769618   -0.523903
     66          6           0        2.800059    2.133190    1.102309
     67          6           0        2.177613    2.573745   -1.287127
     68          1           0        3.118906    3.096630   -1.468980
     69          1           0        1.438550    3.302878   -0.953077
     70          1           0        1.841988    2.124499   -2.223452
     71          8           0        2.037219    2.799809    1.790131
     72          7           0        4.086130    1.888416    1.445239
     73          1           0        4.706971    1.426121    0.803414
     74          6           0        4.674962    2.404723    2.654784
     75          1           0        3.983443    3.153157    3.042635
     76          6           0        6.016482    3.062448    2.315124
     77          6           0        4.896509    1.321508    3.712706
     78          1           0        5.599574    0.589629    3.307148
     79          1           0        5.380573    1.775976    4.581398
     80          8           0        6.683095    2.739802    1.346654
     81          6           0        3.631046    0.588992    4.165365
     82          1           0        3.144309    0.192401    3.277210
     83          6           0        4.007898   -0.576304    5.077230
     84          1           0        4.525140   -0.201286    5.963558
     85          1           0        4.674410   -1.271291    4.562496
     86          1           0        3.130404   -1.129137    5.406816
     87          6           0        2.655651    1.520965    4.879813
     88          1           0        3.139151    1.958374    5.757209
     89          1           0        1.779244    0.968452    5.220869
     90          1           0        2.316441    2.328438    4.228147
     91          7           0        6.414090    4.011240    3.203486
     92          1           0        5.866150    4.163758    4.031885
     93          6           0        7.744791    4.564293    3.140593
     94          1           0        8.295241    3.957893    2.412197
     95          6           0        8.497090    4.409724    4.446719
     96          6           0        7.778603    6.016884    2.660718
     97          1           0        8.813415    6.355571    2.736259
     98          1           0        7.186499    6.645613    3.326854
     99          8           0        9.538415    4.959517    4.692085
    100          6           0        7.285689    6.138978    1.227545
    101          1           0        6.237347    5.860567    1.170732
    102          1           0        7.834120    5.438845    0.589346
    103          6           0        7.444786    7.540880    0.657545
    104          1           0        7.107023    7.575974   -0.383242
    105          1           0        8.497907    7.829656    0.648223
    106          7           0        6.746154    8.584180    1.431158
    107          1           0        7.269860    8.987925    2.192987
    108          7           0        4.626077    7.910833    0.724072
    109          1           0        3.699603    8.263904    0.532927
    110          1           0        5.079076    7.487753   -0.073383
    111          7           0        4.838547    9.547569    2.380748
    112          1           0        5.424230    9.911865    3.122520
    113          1           0        3.899083    9.325017    2.679586
    114          6           0        5.416412    8.670722    1.518115
    115          8           0        7.907545    3.544696    5.299836
    116          1           0        8.483023    3.492245    6.074894
 ---------------------------------------------------------------------

 SCF Done:  E(RB3LYP) =  -2782.39576632     A.U. after    1 cycles

 Alpha  occ. eigenvalues --  -19.30225 -19.26683 -19.25870 -19.21181 -19.21076
 Alpha  occ. eigenvalues --  -19.18364 -19.17858 -19.14221 -19.13527 -19.00978
 Alpha  occ. eigenvalues --  -19.00677 -14.62620 -14.52420 -14.51950 -14.51948
 Alpha  occ. eigenvalues --  -14.48514 -14.44165 -14.42814 -14.41383 -14.39083
 Alpha  occ. eigenvalues --  -14.38273 -10.47418 -10.43152 -10.41255 -10.39825
 Alpha  occ. eigenvalues --  -10.39244 -10.37941 -10.35764 -10.34904 -10.34427
 Alpha  occ. eigenvalues --  -10.33628 -10.31518 -10.31470 -10.30964 -10.30474
 Alpha  occ. eigenvalues --  -10.30384 -10.29163 -10.28454 -10.28432 -10.27708
 Alpha  occ. eigenvalues --  -10.27148 -10.27063 -10.27050 -10.26768 -10.26721
 Alpha  occ. eigenvalues --  -10.26672 -10.26484 -10.25007 -10.24793 -10.23701
 Alpha  occ. eigenvalues --  -10.20088 -10.18957 -10.17170 -10.16910 -10.14483
 Alpha  occ. eigenvalues --  -10.14480 -10.12959  -1.20189  -1.18097  -1.17900
 Alpha  occ. eigenvalues --   -1.16826  -1.16218  -1.13869  -1.10725  -1.10381
 Alpha  occ. eigenvalues --   -1.09057  -1.06851  -1.06406  -1.05455  -1.05428
 Alpha  occ. eigenvalues --   -1.05235  -1.01121  -1.00177  -0.97892  -0.96055
 Alpha  occ. eigenvalues --   -0.95180  -0.94734  -0.94717  -0.93733  -0.91128
 Alpha  occ. eigenvalues --   -0.89017  -0.86178  -0.85952  -0.85886  -0.85092
 Alpha  occ. eigenvalues --   -0.82918  -0.82479  -0.82252  -0.81146  -0.80240
 Alpha  occ. eigenvalues --   -0.78978  -0.78759  -0.77836  -0.76757  -0.76023
 Alpha  occ. eigenvalues --   -0.75533  -0.74341  -0.74154  -0.73744  -0.72212
 Alpha  occ. eigenvalues --   -0.71271  -0.70535  -0.69462  -0.69360  -0.68795
 Alpha  occ. eigenvalues --   -0.68491  -0.68175  -0.67229  -0.66938  -0.66747
 Alpha  occ. eigenvalues --   -0.66166  -0.65791  -0.65171  -0.64888  -0.64207
 Alpha  occ. eigenvalues --   -0.64044  -0.63467  -0.62291  -0.61591  -0.61230
 Alpha  occ. eigenvalues --   -0.61019  -0.59994  -0.59562  -0.59291  -0.59073
 Alpha  occ. eigenvalues --   -0.58612  -0.58309  -0.57652  -0.57450  -0.56919
 Alpha  occ. eigenvalues --   -0.56186  -0.55758  -0.55385  -0.55056  -0.54807
 Alpha  occ. eigenvalues --   -0.54770  -0.54242  -0.53662  -0.53368  -0.53277
 Alpha  occ. eigenvalues --   -0.52979  -0.52231  -0.51957  -0.51818  -0.51466
 Alpha  occ. eigenvalues --   -0.51246  -0.51217  -0.51007  -0.50466  -0.50270
 Alpha  occ. eigenvalues --   -0.49984  -0.49931  -0.49285  -0.48575  -0.48495
 Alpha  occ. eigenvalues --   -0.47977  -0.47617  -0.47557  -0.47282  -0.46660
 Alpha  occ. eigenvalues --   -0.46609  -0.46294  -0.45733  -0.45238  -0.45124
 Alpha  occ. eigenvalues --   -0.44830  -0.44596  -0.44370  -0.44142  -0.44072
 Alpha  occ. eigenvalues --   -0.43621  -0.43491  -0.43385  -0.43198  -0.42949
 Alpha  occ. eigenvalues --   -0.42337  -0.42192  -0.42095  -0.42062  -0.41501
 Alpha  occ. eigenvalues --   -0.41090  -0.40695  -0.40330  -0.40110  -0.39800
 Alpha  occ. eigenvalues --   -0.38952  -0.38836  -0.38457  -0.38333  -0.38090
 Alpha  occ. eigenvalues --   -0.36764  -0.35836  -0.35735  -0.35474  -0.34797
 Alpha  occ. eigenvalues --   -0.34337  -0.33700  -0.33348  -0.33035  -0.32610
 Alpha  occ. eigenvalues --   -0.32470  -0.32344  -0.32107  -0.31762  -0.31410
 Alpha  occ. eigenvalues --   -0.31150  -0.30870  -0.29801  -0.29137  -0.28465
 Alpha  occ. eigenvalues --   -0.28045  -0.27238  -0.26445  -0.16677  -0.15238
 Alpha  occ. eigenvalues --   -0.14649
 Alpha virt. eigenvalues --   -0.13779  -0.13055  -0.11404  -0.08990  -0.08601
 Alpha virt. eigenvalues --   -0.08171  -0.06797  -0.06463  -0.06345  -0.05967
 Alpha virt. eigenvalues --   -0.05434  -0.04021  -0.03906  -0.03390  -0.03336

 Mulliken charges:
               1
     1  N   -0.710649
     2  H    0.429554
     3  H    0.426515
     4  H    0.423301
     5  C   -0.164780
     6  H    0.200701
     7  C    0.640367
     8  C    0.113355
     9  H    0.187519
    10  O   -0.505613
    11  C   -0.488381
    12  H    0.195635
    13  H    0.211429
    14  H    0.162638
    15  O   -0.608065
    16  H    0.412111
    17  N   -0.596536
    18  H    0.358159
    19  C   -0.073844
    20  H    0.194070
    21  C    0.634526
    22  C   -0.364247
    23  H    0.174128
    24  H    0.180636
    25  O   -0.542007
    26  C    0.187789
    27  C   -0.169688
    28  H    0.134395
    29  C   -0.191214
    30  H    0.113802
    31  C   -0.124093
    32  H    0.146681
    33  C   -0.147358
    34  H    0.126858
    35  C   -0.128676
    36  H    0.143245
    37  N   -0.618662
    38  H    0.354690
    39  C   -0.036171
    40  H    0.189176
    41  C    0.628080
    42  C   -0.450513
    43  H    0.168420
    44  H    0.156773
    45  H    0.177334
    46  O   -0.563048
    47  N   -0.605056
    48  H    0.342254
    49  C   -0.068239
    50  H    0.173461
    51  C    0.640819
    52  C   -0.263711
    53  H    0.146951
    54  H    0.149011
    55  O   -0.524011
    56  C   -0.385692
    57  H    0.158282
    58  H    0.117247
    59  C    0.566667
    60  O   -0.573522
    61  O   -0.576947
    62  N   -0.609975
    63  H    0.356801
    64  C   -0.014285
    65  H    0.152146
    66  C    0.630880
    67  C   -0.479735
    68  H    0.144673
    69  H    0.167138
    70  H    0.154435
    71  O   -0.538038
    72  N   -0.580364
    73  H    0.338343
    74  C   -0.083086
    75  H    0.170530
    76  C    0.617322
    77  C   -0.248518
    78  H    0.135801
    79  H    0.122062
    80  O   -0.536399
    81  C   -0.095199
    82  H    0.185174
    83  C   -0.461338
    84  H    0.110338
    85  H    0.112784
    86  H    0.222286
    87  C   -0.494665
    88  H    0.095672
    89  H    0.220798
    90  H    0.139518
    91  N   -0.606007
    92  H    0.345119
    93  C   -0.063708
    94  H    0.226557
    95  C    0.585229
    96  C   -0.266279
    97  H    0.177903
    98  H    0.120217
    99  O   -0.455008
   100  C   -0.280167
   101  H    0.169404
   102  H    0.193531
   103  C   -0.205736
   104  H    0.180276
   105  H    0.201033
   106  N   -0.558100
   107  H    0.363430
   108  N   -0.716127
   109  H    0.378770
   110  H    0.380929
   111  N   -0.728993
   112  H    0.370585
   113  H    0.378954
   114  C    0.717561
   115  O   -0.557789
   116  H    0.427459
 Sum of Mulliken charges =   1.00000

 Dipole moment (field-independent basis, Debye):
    X=             -4.7072    Y=             29.3886    Z=            -45.6543  Tot=             54.4992
 Quadrupole moment (field-independent basis, Debye-Ang):
   XX=            -50.5014   YY=            -38.4460   ZZ=           -126.3313
   XY=            223.0960   XZ=            256.0424   YZ=            162.5133

 Normal termination of Gaussian 16 at Sat Jul 16 02:10:01 2022.
