 Gaussian 16, Revision C.01,
 Gaussian 16:  ES64L-G16RevC.01  3-Jul-2019

 ----------------------------------------------------------------------
 # B3LYP/6-31G* empiricaldispersion=gd3bj guess=read geom=check nosymm
 integral(ultrafinegrid)
 ----------------------------------------------------------------------

 ------------------------------------------------------
 Candidate Structure: Conf:883 Charge calc in gas phase
 ------------------------------------------------------
 Structure from the checkpoint file:  "conf-883.chk"
 Charge =  1 Multiplicity = 1

                          Input orientation:
 ---------------------------------------------------------------------
 Center     Atomic      Atomic             Coordinates (Angstroms)
 Number     Number       Type             X           Y           Z
 ---------------------------------------------------------------------
      1          7           0       -6.874769    1.640488   -7.773057
      2          1           0       -6.508796    2.460899   -7.215139
      3          1           0       -6.329729    1.582413   -8.651764
      4          1           0       -7.874799    1.712419   -7.966190
      5          6           0       -6.467459    0.457438   -6.940293
      6          1           0       -7.339050    0.090315   -6.392451
      7          6           0       -5.441283    1.070693   -5.948808
      8          6           0       -5.892996   -0.620207   -7.894329
      9          1           0       -5.311360   -1.335395   -7.303237
     10          8           0       -5.325633    2.305254   -5.927404
     11          6           0       -6.977999   -1.356642   -8.667002
     12          1           0       -7.658596   -1.875183   -7.984519
     13          1           0       -6.518096   -2.092805   -9.329896
     14          1           0       -7.561829   -0.669721   -9.290796
     15          8           0       -5.059965    0.051281   -8.841120
     16          1           0       -4.155803    0.123539   -8.494026
     17          7           0       -4.758794    0.209257   -5.211428
     18          1           0       -4.907222   -0.803796   -5.233160
     19          6           0       -3.777372    0.561068   -4.188451
     20          1           0       -3.115035    1.340097   -4.575393
     21          6           0       -3.019882   -0.756849   -3.946467
     22          6           0       -4.482026    1.061222   -2.896966
     23          1           0       -5.040562    1.963615   -3.169793
     24          1           0       -5.208255    0.296508   -2.600695
     25          8           0       -3.581260   -1.828249   -4.213768
     26          6           0       -3.528434    1.340350   -1.759085
     27          6           0       -3.462407    0.476626   -0.659887
     28          1           0       -4.122617   -0.386561   -0.617831
     29          6           0       -2.669648    2.446758   -1.799659
     30          1           0       -2.718908    3.136947   -2.639980
     31          6           0       -2.561216    0.714445    0.377701
     32          1           0       -2.523134    0.039634    1.227310
     33          6           0       -1.756751    2.673221   -0.769641
     34          1           0       -1.087462    3.526860   -0.824473
     35          6           0       -1.697275    1.808341    0.324555
     36          1           0       -0.974270    1.957158    1.121675
     37          7           0       -1.794696   -0.633099   -3.433646
     38          1           0       -1.437263    0.280769   -3.159495
     39          6           0       -1.051636   -1.736557   -2.826486
     40          1           0       -1.773764   -2.492832   -2.505720
     41          6           0       -0.344750   -1.089346   -1.628324
     42          6           0       -0.030565   -2.350505   -3.789881
     43          1           0        0.544984   -3.133404   -3.285299
     44          1           0        0.667676   -1.580920   -4.131290
     45          1           0       -0.542509   -2.784928   -4.653285
     46          8           0        0.099466    0.052581   -1.736628
     47          7           0       -0.303444   -1.811048   -0.488778
     48          1           0       -0.458054   -2.809420   -0.542610
     49          6           0        0.419389   -1.289531    0.659027
     50          1           0        0.186155   -0.229408    0.722420
     51          6           0        1.931955   -1.418013    0.414321
     52          6           0       -0.078613   -1.975607    1.939355
     53          1           0        0.156667   -3.048199    1.890051
     54          1           0       -1.172813   -1.891808    1.944472
     55          8           0        2.399008   -2.245699   -0.366233
     56          6           0        0.479037   -1.406453    3.253129
     57          1           0        0.029030   -1.939852    4.093969
     58          1           0        1.561329   -1.587535    3.293203
     59          6           0        0.271680    0.104448    3.467596
     60          8           0        0.643851    0.895361    2.550207
     61          8           0       -0.184672    0.457563    4.596867
     62          7           0        2.681920   -0.527762    1.112379
     63          1           0        2.188335    0.185072    1.663103
     64          6           0        4.084698   -0.371939    0.799148
     65          1           0        4.500109   -1.369650    0.620697
     66          6           0        4.806714    0.288729    1.963518
     67          6           0        4.277920    0.480993   -0.475722
     68          1           0        5.331123    0.567048   -0.761030
     69          1           0        3.888132    1.490570   -0.316404
     70          1           0        3.725045    0.007442   -1.289894
     71          8           0        4.205277    0.877059    2.870932
     72          7           0        6.161144    0.260405    1.926952
     73          1           0        6.598511   -0.051744    1.069469
     74          6           0        6.910203    1.218116    2.728558
     75          1           0        6.604155    1.087935    3.769735
     76          6           0        6.551795    2.638883    2.258814
     77          6           0        8.420357    0.992964    2.583326
     78          1           0        8.696864    1.190483    1.538846
     79          1           0        8.930644    1.756281    3.185796
     80          8           0        6.387932    2.894743    1.070941
     81          6           0        8.915588   -0.402051    3.004460
     82          1           0        8.421655   -1.148123    2.365948
     83          6           0       10.427419   -0.502361    2.767243
     84          1           0       10.969462    0.213386    3.397910
     85          1           0       10.684859   -0.290378    1.723205
     86          1           0       10.795838   -1.504883    3.008924
     87          6           0        8.564826   -0.724691    4.461584
     88          1           0        8.981931    0.030314    5.140684
     89          1           0        8.979249   -1.695689    4.752082
     90          1           0        7.482668   -0.769891    4.624876
     91          7           0        6.437959    3.566601    3.248853
     92          1           0        6.664794    3.298009    4.196789
     93          6           0        6.318575    4.990068    2.966190
     94          1           0        6.570202    5.116650    1.907687
     95          6           0        7.315178    5.824471    3.761697
     96          6           0        4.887888    5.515552    3.204624
     97          1           0        4.910815    6.604999    3.119494
     98          1           0        4.609537    5.280557    4.239271
     99          8           0        7.381286    7.028262    3.695059
    100          6           0        3.861804    4.904957    2.223552
    101          1           0        4.316059    4.088288    1.651846
    102          1           0        3.556627    5.654013    1.485860
    103          6           0        2.605802    4.375581    2.914121
    104          1           0        1.878271    4.031049    2.165991
    105          1           0        2.139014    5.172091    3.507103
    106          7           0        2.969413    3.274243    3.803527
    107          1           0        3.795002    2.745478    3.533150
    108          7           0        0.809717    2.982978    4.692163
    109          1           0        0.151671    2.169859    4.760197
    110          1           0        0.489804    3.729011    4.090499
    111          7           0        2.462887    1.418632    5.092381
    112          1           0        3.221580    0.937449    4.617844
    113          1           0        1.683536    0.817021    5.361741
    114          6           0        2.064896    2.559619    4.491422
    115          8           0        8.108829    5.080206    4.570670
    116          1           0        8.690531    5.709998    5.038134
 ---------------------------------------------------------------------

 SCF Done:  E(RB3LYP) =  -2782.56740200     A.U. after    1 cycles

 Alpha  occ. eigenvalues --  -19.30441 -19.27041 -19.26526 -19.20970 -19.20725
 Alpha  occ. eigenvalues --  -19.20244 -19.18741 -19.17724 -19.15345 -19.13442
 Alpha  occ. eigenvalues --  -19.13383 -14.59033 -14.49204 -14.44147 -14.43719
 Alpha  occ. eigenvalues --  -14.43681 -14.43108 -14.41883 -14.40965 -14.40735
 Alpha  occ. eigenvalues --  -14.39154 -10.43384 -10.40356 -10.39827 -10.39078
 Alpha  occ. eigenvalues --  -10.38223 -10.37844 -10.36618 -10.35833 -10.34682
 Alpha  occ. eigenvalues --  -10.33934 -10.32274 -10.31350 -10.31059 -10.30958
 Alpha  occ. eigenvalues --  -10.30558 -10.30393 -10.29665 -10.29075 -10.28236
 Alpha  occ. eigenvalues --  -10.26733 -10.26319 -10.25798 -10.25775 -10.25637
 Alpha  occ. eigenvalues --  -10.25281 -10.25191 -10.25029 -10.24755 -10.24600
 Alpha  occ. eigenvalues --  -10.24496 -10.24143 -10.23916 -10.23400 -10.23142
 Alpha  occ. eigenvalues --  -10.22855 -10.22201  -1.19467  -1.17691  -1.17536
 Alpha  occ. eigenvalues --   -1.13220  -1.12688  -1.12176  -1.10596  -1.09941
 Alpha  occ. eigenvalues --   -1.08616  -1.07704  -1.07164  -1.06207  -1.05868
 Alpha  occ. eigenvalues --   -1.00941  -1.00389  -1.00220  -0.98350  -0.97846
 Alpha  occ. eigenvalues --   -0.97180  -0.96385  -0.94692  -0.93282  -0.91959
 Alpha  occ. eigenvalues --   -0.88462  -0.88194  -0.86784  -0.85615  -0.84989
 Alpha  occ. eigenvalues --   -0.83689  -0.82957  -0.81876  -0.80840  -0.80339
 Alpha  occ. eigenvalues --   -0.79860  -0.75863  -0.75801  -0.75251  -0.75099
 Alpha  occ. eigenvalues --   -0.74218  -0.74090  -0.73096  -0.72448  -0.72348
 Alpha  occ. eigenvalues --   -0.71048  -0.70004  -0.69374  -0.68282  -0.68038
 Alpha  occ. eigenvalues --   -0.67918  -0.66999  -0.66766  -0.66454  -0.65809
 Alpha  occ. eigenvalues --   -0.65421  -0.65192  -0.64542  -0.64003  -0.63670
 Alpha  occ. eigenvalues --   -0.62916  -0.62237  -0.62042  -0.60912  -0.60442
 Alpha  occ. eigenvalues --   -0.59955  -0.59563  -0.58668  -0.58415  -0.57360
 Alpha  occ. eigenvalues --   -0.57238  -0.56205  -0.55780  -0.55569  -0.55462
 Alpha  occ. eigenvalues --   -0.55128  -0.54972  -0.54393  -0.54243  -0.53912
 Alpha  occ. eigenvalues --   -0.53371  -0.53313  -0.53080  -0.52888  -0.52663
 Alpha  occ. eigenvalues --   -0.52566  -0.52475  -0.52257  -0.51863  -0.51554
 Alpha  occ. eigenvalues --   -0.51328  -0.51159  -0.50740  -0.50584  -0.50239
 Alpha  occ. eigenvalues --   -0.50161  -0.49676  -0.49390  -0.49170  -0.48530
 Alpha  occ. eigenvalues --   -0.48263  -0.48240  -0.48059  -0.47854  -0.47601
 Alpha  occ. eigenvalues --   -0.47364  -0.47111  -0.46912  -0.46743  -0.46525
 Alpha  occ. eigenvalues --   -0.46302  -0.46161  -0.45663  -0.45437  -0.44886
 Alpha  occ. eigenvalues --   -0.44670  -0.44510  -0.44084  -0.43919  -0.43905
 Alpha  occ. eigenvalues --   -0.43591  -0.43469  -0.43254  -0.42851  -0.42441
 Alpha  occ. eigenvalues --   -0.42327  -0.42239  -0.41964  -0.41733  -0.41538
 Alpha  occ. eigenvalues --   -0.41222  -0.41189  -0.41099  -0.40193  -0.40022
 Alpha  occ. eigenvalues --   -0.39879  -0.39017  -0.38825  -0.38669  -0.38645
 Alpha  occ. eigenvalues --   -0.38585  -0.38464  -0.38217  -0.35606  -0.35274
 Alpha  occ. eigenvalues --   -0.34909  -0.34429  -0.34096  -0.33510  -0.32721
 Alpha  occ. eigenvalues --   -0.32318  -0.32242  -0.31806  -0.31648  -0.30712
 Alpha  occ. eigenvalues --   -0.30154  -0.29587  -0.29493  -0.28574  -0.27629
 Alpha  occ. eigenvalues --   -0.27263
 Alpha virt. eigenvalues --   -0.12651  -0.09637  -0.07043  -0.06501  -0.06451
 Alpha virt. eigenvalues --   -0.06376  -0.06129  -0.06048  -0.04655  -0.04503
 Alpha virt. eigenvalues --   -0.04049  -0.03566  -0.02118  -0.01609  -0.01524

 Mulliken charges:
               1
     1  N   -0.755940
     2  H    0.432287
     3  H    0.423708
     4  H    0.412157
     5  C   -0.118558
     6  H    0.225261
     7  C    0.639027
     8  C    0.073545
     9  H    0.192006
    10  O   -0.540417
    11  C   -0.451091
    12  H    0.177346
    13  H    0.209833
    14  H    0.152274
    15  O   -0.619075
    16  H    0.432394
    17  N   -0.617373
    18  H    0.373471
    19  C   -0.058692
    20  H    0.187709
    21  C    0.623695
    22  C   -0.353526
    23  H    0.179725
    24  H    0.158512
    25  O   -0.561821
    26  C    0.151617
    27  C   -0.186628
    28  H    0.127528
    29  C   -0.202367
    30  H    0.124253
    31  C   -0.140151
    32  H    0.150279
    33  C   -0.112610
    34  H    0.133920
    35  C   -0.124765
    36  H    0.182382
    37  N   -0.601234
    38  H    0.373575
    39  C   -0.051454
    40  H    0.171371
    41  C    0.642387
    42  C   -0.443094
    43  H    0.175193
    44  H    0.171718
    45  H    0.163611
    46  O   -0.543024
    47  N   -0.600374
    48  H    0.333226
    49  C   -0.068598
    50  H    0.225364
    51  C    0.617335
    52  C   -0.296356
    53  H    0.141139
    54  H    0.152763
    55  O   -0.558034
    56  C   -0.354272
    57  H    0.159618
    58  H    0.152430
    59  C    0.590528
    60  O   -0.592155
    61  O   -0.602260
    62  N   -0.627788
    63  H    0.386343
    64  C   -0.058331
    65  H    0.185614
    66  C    0.643126
    67  C   -0.444881
    68  H    0.146559
    69  H    0.164984
    70  H    0.192483
    71  O   -0.574043
    72  N   -0.581523
    73  H    0.347190
    74  C   -0.056768
    75  H    0.163186
    76  C    0.627700
    77  C   -0.296780
    78  H    0.157817
    79  H    0.153366
    80  O   -0.533838
    81  C   -0.070423
    82  H    0.130697
    83  C   -0.444391
    84  H    0.147013
    85  H    0.147304
    86  H    0.155523
    87  C   -0.454501
    88  H    0.142487
    89  H    0.159275
    90  H    0.149765
    91  N   -0.602934
    92  H    0.347911
    93  C   -0.075480
    94  H    0.221071
    95  C    0.592957
    96  C   -0.273030
    97  H    0.186084
    98  H    0.159300
    99  O   -0.445279
   100  C   -0.328691
   101  H    0.193075
   102  H    0.164217
   103  C   -0.153527
   104  H    0.176457
   105  H    0.164902
   106  N   -0.618715
   107  H    0.380606
   108  N   -0.745310
   109  H    0.393988
   110  H    0.342467
   111  N   -0.769074
   112  H    0.374149
   113  H    0.371050
   114  C    0.762132
   115  O   -0.579695
   116  H    0.424886
 Sum of Mulliken charges =   1.00000

 Dipole moment (field-independent basis, Debye):
    X=            -12.9456    Y=              5.5520    Z=            -22.0097  Tot=             26.1312
 Quadrupole moment (field-independent basis, Debye-Ang):
   XX=            -74.0469   YY=           -313.1541   ZZ=           -108.8560
   XY=             -0.8301   XZ=            238.9792   YZ=             -2.8893

 Normal termination of Gaussian 16 at Sat Jul 16 02:10:15 2022.
