 Gaussian 16, Revision C.01,
 Gaussian 16:  ES64L-G16RevC.01  3-Jul-2019

 ----------------------------------------------------------------------
 # B3LYP/6-31G* empiricaldispersion=gd3bj guess=read geom=check nosymm
 integral(ultrafinegrid)
 ----------------------------------------------------------------------

 ------------------------------------------------------
 Candidate Structure: Conf:535 Charge calc in gas phase
 ------------------------------------------------------
 Structure from the checkpoint file:  "conf-535.chk"
 Charge =  1 Multiplicity = 1

                          Input orientation:
 ---------------------------------------------------------------------
 Center     Atomic      Atomic             Coordinates (Angstroms)
 Number     Number       Type             X           Y           Z
 ---------------------------------------------------------------------
      1          7           0       -5.706622   -3.333418   -1.368137
      2          1           0       -4.963561   -2.107514   -0.569523
      3          1           0       -6.594415   -3.057663   -1.793158
      4          1           0       -5.935124   -4.079005   -0.704164
      5          6           0       -4.853327   -3.958467   -2.406952
      6          1           0       -3.840703   -4.009496   -1.989691
      7          6           0       -4.859156   -3.050833   -3.644929
      8          6           0       -5.334327   -5.379894   -2.747363
      9          1           0       -6.321484   -5.300121   -3.211075
     10          8           0       -5.709657   -3.171489   -4.527173
     11          6           0       -4.383962   -6.112344   -3.684706
     12          1           0       -4.318202   -5.596320   -4.646760
     13          1           0       -4.741651   -7.130682   -3.861882
     14          1           0       -3.373915   -6.167948   -3.255726
     15          8           0       -5.546430   -6.098212   -1.525454
     16          1           0       -4.682521   -6.422789   -1.222229
     17          7           0       -3.898498   -2.103350   -3.632807
     18          1           0       -3.221401   -2.109529   -2.871726
     19          6           0       -3.693187   -1.137408   -4.701458
     20          1           0       -3.515535   -1.692691   -5.634362
     21          6           0       -2.360017   -0.448761   -4.367745
     22          6           0       -4.916834   -0.224346   -4.972726
     23          1           0       -4.765627    0.252784   -5.948172
     24          1           0       -5.766287   -0.903529   -5.091194
     25          8           0       -1.412366   -1.110061   -3.934404
     26          6           0       -5.213642    0.834811   -3.934744
     27          6           0       -5.252314    2.189986   -4.296258
     28          1           0       -5.125318    2.467591   -5.341590
     29          6           0       -5.426502    0.502578   -2.590947
     30          1           0       -5.422846   -0.535437   -2.289467
     31          6           0       -5.465161    3.185833   -3.340189
     32          1           0       -5.491632    4.228300   -3.644308
     33          6           0       -5.637969    1.492800   -1.632806
     34          1           0       -5.796573    1.200252   -0.599151
     35          6           0       -5.650405    2.839859   -2.002002
     36          1           0       -5.817273    3.611300   -1.256015
     37          7           0       -2.261741    0.882459   -4.580962
     38          1           0       -3.102768    1.434537   -4.689912
     39          6           0       -1.013860    1.604202   -4.363480
     40          1           0       -0.211328    0.909428   -4.637564
     41          6           0       -0.774877    1.977738   -2.884539
     42          6           0       -0.974527    2.842005   -5.253679
     43          1           0       -0.032933    3.377885   -5.122310
     44          1           0       -1.782826    3.533310   -4.994138
     45          1           0       -1.078112    2.546431   -6.301294
     46          8           0       -0.477189    3.138168   -2.568062
     47          7           0       -0.854074    0.971779   -1.980760
     48          1           0       -0.985922    0.014744   -2.313121
     49          6           0       -0.573748    1.219932   -0.563844
     50          1           0       -0.976742    2.214600   -0.342664
     51          6           0        0.949455    1.277448   -0.339061
     52          6           0       -1.210830    0.185099    0.360409
     53          1           0       -0.877106    0.420282    1.375614
     54          1           0       -0.807755   -0.802492    0.123903
     55          8           0        1.580072    0.366494    0.209314
     56          6           0       -2.746162    0.158980    0.308302
     57          1           0       -3.187701    0.245330    1.305170
     58          1           0       -3.144419    1.003420   -0.270865
     59          6           0       -3.302842   -1.089602   -0.347231
     60          8           0       -4.570636   -1.301185   -0.047464
     61          8           0       -2.632618   -1.796667   -1.095401
     62          7           0        1.535162    2.415846   -0.784340
     63          1           0        0.941506    3.038214   -1.339074
     64          6           0        2.987659    2.567684   -0.857878
     65          1           0        3.416013    1.583280   -1.085392
     66          6           0        3.541091    2.983770    0.518641
     67          6           0        3.348991    3.560304   -1.954503
     68          1           0        4.432137    3.694302   -2.011116
     69          1           0        2.886306    4.534885   -1.766163
     70          1           0        2.989619    3.194318   -2.919899
     71          8           0        4.099160    4.083559    0.727831
     72          7           0        3.358459    2.084933    1.483799
     73          1           0        2.894066    1.211343    1.221803
     74          6           0        3.714551    2.345172    2.864724
     75          1           0        3.209418    3.265536    3.180967
     76          6           0        5.230958    2.560634    2.976051
     77          6           0        3.281334    1.175565    3.764334
     78          1           0        3.904672    0.305237    3.524380
     79          1           0        3.516247    1.456153    4.799242
     80          8           0        6.026964    1.983897    2.241773
     81          6           0        1.792216    0.784725    3.671347
     82          1           0        1.608552    0.344580    2.683217
     83          6           0        1.486981   -0.292838    4.719101
     84          1           0        1.616370    0.099503    5.735545
     85          1           0        2.148874   -1.158631    4.605395
     86          1           0        0.454452   -0.645845    4.625823
     87          6           0        0.857353    1.989657    3.829547
     88          1           0        1.035191    2.509858    4.779649
     89          1           0       -0.189259    1.665655    3.824151
     90          1           0        0.980495    2.714334    3.016454
     91          7           0        5.592047    3.423316    3.958935
     92          1           0        4.889113    3.805777    4.582444
     93          6           0        6.962313    3.650238    4.385267
     94          1           0        7.524606    2.712107    4.313975
     95          6           0        6.897632    4.063144    5.850724
     96          6           0        7.674314    4.738757    3.543792
     97          1           0        8.493596    5.169497    4.127397
     98          1           0        6.943093    5.538274    3.374329
     99          8           0        5.872798    4.337561    6.436773
    100          6           0        8.218881    4.200621    2.203830
    101          1           0        7.697571    3.280635    1.924060
    102          1           0        9.276368    3.938533    2.312405
    103          6           0        8.102428    5.204156    1.060137
    104          1           0        8.687769    4.863611    0.196535
    105          1           0        8.495717    6.179204    1.378170
    106          7           0        6.697171    5.368562    0.666334
    107          1           0        6.021139    4.643889    0.919003
    108          7           0        7.089175    7.257987   -0.635563
    109          1           0        6.727305    8.103132   -1.051776
    110          1           0        8.063331    7.261258   -0.376502
    111          7           0        4.938320    6.408993   -0.411610
    112          1           0        4.349854    5.615309   -0.119993
    113          1           0        4.620774    7.003205   -1.162877
    114          6           0        6.244007    6.339112   -0.124904
    115          8           0        8.118566    4.109410    6.407909
    116          1           0        8.004075    4.392297    7.335637
 ---------------------------------------------------------------------

 SCF Done:  E(RB3LYP) =  -2782.61189801     A.U. after    2 cycles

 Alpha  occ. eigenvalues --  -19.29323 -19.23916 -19.23218 -19.22708 -19.20925
 Alpha  occ. eigenvalues --  -19.20587 -19.20394 -19.20108 -19.19403 -19.18949
 Alpha  occ. eigenvalues --  -19.17107 -14.50884 -14.49565 -14.48619 -14.45104
 Alpha  occ. eigenvalues --  -14.45085 -14.44349 -14.43627 -14.43572 -14.41107
 Alpha  occ. eigenvalues --  -14.40880 -10.46238 -10.41855 -10.39059 -10.37643
 Alpha  occ. eigenvalues --  -10.37534 -10.37304 -10.36731 -10.36201 -10.34798
 Alpha  occ. eigenvalues --  -10.34140 -10.33617 -10.33070 -10.32149 -10.31170
 Alpha  occ. eigenvalues --  -10.31044 -10.30274 -10.29082 -10.29026 -10.28705
 Alpha  occ. eigenvalues --  -10.28142 -10.28115 -10.27035 -10.26233 -10.25962
 Alpha  occ. eigenvalues --  -10.25953 -10.25788 -10.25240 -10.25215 -10.25177
 Alpha  occ. eigenvalues --  -10.25136 -10.24908 -10.24844 -10.24661 -10.24427
 Alpha  occ. eigenvalues --  -10.23870 -10.22934  -1.20435  -1.15067  -1.14685
 Alpha  occ. eigenvalues --   -1.14263  -1.12686  -1.12373  -1.11732  -1.11503
 Alpha  occ. eigenvalues --   -1.11009  -1.08995  -1.07780  -1.06008  -1.04236
 Alpha  occ. eigenvalues --   -1.03052  -1.02409  -1.01967  -1.01224  -1.00504
 Alpha  occ. eigenvalues --   -0.99621  -0.98308  -0.96494  -0.91687  -0.90812
 Alpha  occ. eigenvalues --   -0.89305  -0.87680  -0.86466  -0.86206  -0.85801
 Alpha  occ. eigenvalues --   -0.83526  -0.82952  -0.82068  -0.80499  -0.80134
 Alpha  occ. eigenvalues --   -0.79707  -0.79375  -0.76901  -0.75814  -0.75132
 Alpha  occ. eigenvalues --   -0.74576  -0.73712  -0.73279  -0.72640  -0.71879
 Alpha  occ. eigenvalues --   -0.71521  -0.71384  -0.69563  -0.68262  -0.68176
 Alpha  occ. eigenvalues --   -0.67636  -0.67506  -0.66925  -0.66579  -0.65909
 Alpha  occ. eigenvalues --   -0.65601  -0.65011  -0.64187  -0.63826  -0.63407
 Alpha  occ. eigenvalues --   -0.62684  -0.62647  -0.61941  -0.61424  -0.61110
 Alpha  occ. eigenvalues --   -0.60099  -0.59868  -0.59608  -0.58904  -0.58533
 Alpha  occ. eigenvalues --   -0.57765  -0.57544  -0.57423  -0.57360  -0.56467
 Alpha  occ. eigenvalues --   -0.56343  -0.56125  -0.55213  -0.55142  -0.54961
 Alpha  occ. eigenvalues --   -0.54505  -0.53767  -0.53532  -0.53368  -0.52991
 Alpha  occ. eigenvalues --   -0.52938  -0.52575  -0.52381  -0.52115  -0.51793
 Alpha  occ. eigenvalues --   -0.51370  -0.51166  -0.50672  -0.50597  -0.50519
 Alpha  occ. eigenvalues --   -0.50190  -0.50114  -0.49758  -0.49333  -0.49138
 Alpha  occ. eigenvalues --   -0.48827  -0.48762  -0.48319  -0.48234  -0.48182
 Alpha  occ. eigenvalues --   -0.47713  -0.47637  -0.47416  -0.47084  -0.46766
 Alpha  occ. eigenvalues --   -0.46697  -0.46491  -0.46050  -0.45892  -0.45775
 Alpha  occ. eigenvalues --   -0.45437  -0.45387  -0.45077  -0.44849  -0.44833
 Alpha  occ. eigenvalues --   -0.44789  -0.44552  -0.44510  -0.43793  -0.43537
 Alpha  occ. eigenvalues --   -0.43479  -0.43173  -0.42744  -0.42485  -0.42030
 Alpha  occ. eigenvalues --   -0.41899  -0.41522  -0.41445  -0.41421  -0.41248
 Alpha  occ. eigenvalues --   -0.40193  -0.39943  -0.39823  -0.39663  -0.39433
 Alpha  occ. eigenvalues --   -0.38787  -0.38134  -0.38082  -0.37598  -0.36647
 Alpha  occ. eigenvalues --   -0.36415  -0.36171  -0.35717  -0.34924  -0.34677
 Alpha  occ. eigenvalues --   -0.34047  -0.33750  -0.33260  -0.33118  -0.32685
 Alpha  occ. eigenvalues --   -0.32444  -0.31960  -0.31355  -0.30939  -0.30498
 Alpha  occ. eigenvalues --   -0.29799
 Alpha virt. eigenvalues --   -0.10150  -0.09051  -0.08843  -0.07691  -0.07021
 Alpha virt. eigenvalues --   -0.06465  -0.06450  -0.06426  -0.05994  -0.04811
 Alpha virt. eigenvalues --   -0.04531  -0.03857  -0.03223  -0.01413  -0.00973

 Mulliken charges:
               1
     1  N   -0.803047
     2  H    0.484588
     3  H    0.338367
     4  H    0.351483
     5  C   -0.076579
     6  H    0.156750
     7  C    0.613197
     8  C    0.137396
     9  H    0.167939
    10  O   -0.538022
    11  C   -0.486970
    12  H    0.179831
    13  H    0.173626
    14  H    0.138483
    15  O   -0.628955
    16  H    0.393255
    17  N   -0.656042
    18  H    0.420756
    19  C    0.002832
    20  H    0.193257
    21  C    0.577381
    22  C   -0.398839
    23  H    0.149593
    24  H    0.220844
    25  O   -0.538735
    26  C    0.147093
    27  C   -0.229994
    28  H    0.137007
    29  C   -0.175300
    30  H    0.137780
    31  C   -0.118308
    32  H    0.141187
    33  C   -0.141436
    34  H    0.152655
    35  C   -0.134450
    36  H    0.139204
    37  N   -0.603400
    38  H    0.359809
    39  C   -0.066911
    40  H    0.195547
    41  C    0.627044
    42  C   -0.453719
    43  H    0.167088
    44  H    0.165222
    45  H    0.162937
    46  O   -0.558307
    47  N   -0.617211
    48  H    0.399309
    49  C   -0.072034
    50  H    0.180308
    51  C    0.631729
    52  C   -0.286638
    53  H    0.158637
    54  H    0.198930
    55  O   -0.546577
    56  C   -0.370870
    57  H    0.179240
    58  H    0.190111
    59  C    0.597840
    60  O   -0.609224
    61  O   -0.516634
    62  N   -0.622653
    63  H    0.390783
    64  C   -0.062505
    65  H    0.199096
    66  C    0.662998
    67  C   -0.477723
    68  H    0.161504
    69  H    0.151610
    70  H    0.180773
    71  O   -0.610649
    72  N   -0.603916
    73  H    0.405958
    74  C   -0.043527
    75  H    0.163007
    76  C    0.636558
    77  C   -0.298879
    78  H    0.169247
    79  H    0.150491
    80  O   -0.535157
    81  C   -0.103259
    82  H    0.164308
    83  C   -0.444993
    84  H    0.146742
    85  H    0.153167
    86  H    0.152491
    87  C   -0.456606
    88  H    0.146804
    89  H    0.154710
    90  H    0.140109
    91  N   -0.621865
    92  H    0.358172
    93  C   -0.035696
    94  H    0.206395
    95  C    0.577297
    96  C   -0.279217
    97  H    0.179296
    98  H    0.156295
    99  O   -0.457651
   100  C   -0.337074
   101  H    0.227541
   102  H    0.172505
   103  C   -0.157596
   104  H    0.184395
   105  H    0.161437
   106  N   -0.627353
   107  H    0.415442
   108  N   -0.765087
   109  H    0.374934
   110  H    0.382472
   111  N   -0.791960
   112  H    0.430302
   113  H    0.358725
   114  C    0.803956
   115  O   -0.556977
   116  H    0.430769
 Sum of Mulliken charges =   1.00000

 Dipole moment (field-independent basis, Debye):
    X=             20.3819    Y=             23.0702    Z=              1.1848  Tot=             30.8069
 Quadrupole moment (field-independent basis, Debye-Ang):
   XX=           -148.7178   YY=           -170.4023   ZZ=           -275.7239
   XY=            153.9835   XZ=             35.9797   YZ=             -4.5785

 Normal termination of Gaussian 16 at Sat Jul 16 02:10:41 2022.
