 Gaussian 16, Revision C.01,
 Gaussian 16:  ES64L-G16RevC.01  3-Jul-2019

 ----------------------------------------------------------------------
 # B3LYP/6-31G* empiricaldispersion=gd3bj guess=read geom=check nosymm
 integral(ultrafinegrid)
 ----------------------------------------------------------------------

 ------------------------------------------------------
 Candidate Structure: Conf:797 Charge calc in gas phase
 ------------------------------------------------------
 Structure from the checkpoint file:  "conf-797.chk"
 Charge =  1 Multiplicity = 1

                          Input orientation:
 ---------------------------------------------------------------------
 Center     Atomic      Atomic             Coordinates (Angstroms)
 Number     Number       Type             X           Y           Z
 ---------------------------------------------------------------------
      1          7           0       -7.811273   -1.732215   -7.929084
      2          1           0       -7.784079   -2.700013   -7.604532
      3          1           0       -8.463512   -1.201941   -7.346065
      4          1           0       -8.126113   -1.701333   -8.900684
      5          6           0       -6.481160   -1.096609   -7.832145
      6          1           0       -5.722131   -1.749918   -8.272899
      7          6           0       -6.171063   -0.830361   -6.369380
      8          6           0       -6.496203    0.215157   -8.617168
      9          1           0       -7.246181    0.869746   -8.154926
     10          8           0       -6.999932   -0.289652   -5.637412
     11          6           0       -5.152802    0.908509   -8.671154
     12          1           0       -4.821593    1.197438   -7.671227
     13          1           0       -5.220261    1.807465   -9.286203
     14          1           0       -4.410574    0.237035   -9.109759
     15          8           0       -6.918015   -0.140698   -9.939420
     16          1           0       -6.978606    0.664941  -10.458320
     17          7           0       -4.949225   -1.197174   -5.927771
     18          1           0       -4.232842   -1.578858   -6.529062
     19          6           0       -4.532259   -0.885848   -4.581337
     20          1           0       -4.860434    0.133472   -4.349750
     21          6           0       -3.006536   -0.966062   -4.561440
     22          6           0       -5.170831   -1.836842   -3.551248
     23          1           0       -6.224280   -1.920826   -3.828587
     24          1           0       -4.721411   -2.827425   -3.642473
     25          8           0       -2.381065   -1.559891   -5.422777
     26          6           0       -5.058977   -1.311587   -2.143522
     27          6           0       -4.306757   -1.964170   -1.170790
     28          1           0       -3.790651   -2.887568   -1.419985
     29          6           0       -5.717942   -0.128719   -1.812408
     30          1           0       -6.309881    0.363897   -2.579353
     31          6           0       -4.212215   -1.434263    0.116987
     32          1           0       -3.629319   -1.960062    0.863563
     33          6           0       -5.617534    0.403723   -0.531882
     34          1           0       -6.131199    1.328082   -0.294184
     35          6           0       -4.862278   -0.248040    0.441185
     36          1           0       -4.783449    0.162555    1.439794
     37          7           0       -2.420158   -0.372277   -3.501357
     38          1           0       -2.956167    0.123100   -2.802860
     39          6           0       -1.003090   -0.468030   -3.251039
     40          1           0       -0.688181   -1.504668   -3.400241
     41          6           0       -0.810139   -0.056945   -1.789476
     42          6           0       -0.193562    0.423840   -4.191078
     43          1           0        0.873964    0.332371   -3.982365
     44          1           0       -0.487990    1.469207   -4.069357
     45          1           0       -0.387210    0.124071   -5.220552
     46          8           0       -1.590116    0.697449   -1.228600
     47          7           0        0.306977   -0.532148   -1.195333
     48          1           0        1.011497   -1.050843   -1.696964
     49          6           0        0.676159   -0.143018    0.147030
     50          1           0        0.575359    0.941766    0.245495
     51          6           0        2.144918   -0.549587    0.312517
     52          6           0       -0.242263   -0.776586    1.203136
     53          1           0       -1.241815   -0.381736    1.017719
     54          1           0        0.072694   -0.444505    2.195416
     55          8           0        2.721307   -1.238454   -0.510753
     56          6           0       -0.251961   -2.301581    1.165528
     57          1           0       -0.618303   -2.668492    0.208205
     58          1           0        0.750072   -2.693344    1.338368
     59          6           0       -1.168880   -2.801210    2.306194
     60          8           0       -2.285550   -3.235088    1.951308
     61          8           0       -0.708025   -2.711334    3.450271
     62          7           0        2.742144   -0.121243    1.444323
     63          1           0        2.272646    0.452786    2.128390
     64          6           0        4.122522   -0.442344    1.732856
     65          1           0        4.281903   -1.503841    1.531129
     66          6           0        4.316543   -0.150184    3.215992
     67          6           0        5.095236    0.362387    0.871446
     68          1           0        6.125823    0.126798    1.144157
     69          1           0        4.932388    1.434452    1.010270
     70          1           0        4.934301    0.117391   -0.177062
     71          8           0        3.572763    0.613205    3.819437
     72          7           0        5.365553   -0.769119    3.806013
     73          1           0        6.038174   -1.245475    3.231430
     74          6           0        5.721289   -0.477853    5.190827
     75          1           0        4.773201   -0.394464    5.724174
     76          6           0        6.451079    0.858588    5.258928
     77          6           0        6.550608   -1.603555    5.781290
     78          1           0        5.962799   -2.519648    5.681613
     79          1           0        7.456863   -1.724179    5.183239
     80          8           0        7.668094    0.964060    5.217437
     81          6           0        6.941992   -1.427307    7.255760
     82          1           0        7.679476   -0.620696    7.312179
     83          6           0        5.751852   -1.037239    8.126768
     84          1           0        4.919496   -1.732811    7.977635
     85          1           0        5.401028   -0.025162    7.909280
     86          1           0        6.028758   -1.067048    9.183364
     87          6           0        7.593956   -2.714158    7.753284
     88          1           0        6.872521   -3.534551    7.740230
     89          1           0        7.959812   -2.599149    8.776071
     90          1           0        8.441184   -2.993162    7.122940
     91          7           0        5.653002    1.950489    5.350420
     92          1           0        4.673505    1.871479    5.111949
     93          6           0        6.279195    3.250138    5.470000
     94          1           0        6.898404    3.447236    4.585095
     95          6           0        7.190824    3.224833    6.686728
     96          6           0        5.206716    4.333389    5.618883
     97          1           0        4.647822    4.124389    6.533786
     98          1           0        4.512061    4.219040    4.784310
     99          8           0        6.955918    2.646425    7.716422
    100          6           0        5.765559    5.746635    5.661779
    101          1           0        6.428296    5.912662    4.810843
    102          1           0        6.379268    5.874947    6.559271
    103          6           0        4.685220    6.813544    5.658203
    104          1           0        5.120681    7.780592    5.922592
    105          1           0        3.930506    6.583621    6.416834
    106          7           0        4.064547    6.921599    4.322499
    107          1           0        4.199324    6.135669    3.706063
    108          7           0        2.463504    8.445926    5.065133
    109          1           0        1.806920    9.167096    4.814468
    110          1           0        3.044865    8.642536    5.862834
    111          7           0        2.332578    7.543384    2.900781
    112          1           0        2.878339    7.214074    2.115610
    113          1           0        1.672606    8.269341    2.666725
    114          6           0        2.967605    7.654438    4.095494
    115          8           0        8.290034    3.994091    6.498827
    116          1           0        8.790999    3.942281    7.320712
 ---------------------------------------------------------------------

 SCF Done:  E(RB3LYP) =  -2782.40469473     A.U. after    3 cycles

 Alpha  occ. eigenvalues --  -19.28647 -19.26209 -19.23805 -19.20331 -19.18606
 Alpha  occ. eigenvalues --  -19.18079 -19.17340 -19.15309 -19.14898 -19.01437
 Alpha  occ. eigenvalues --  -19.01331 -14.61781 -14.53074 -14.52797 -14.52628
 Alpha  occ. eigenvalues --  -14.47003 -14.42506 -14.41778 -14.40740 -14.39394
 Alpha  occ. eigenvalues --  -14.38326 -10.48275 -10.41242 -10.39879 -10.38526
 Alpha  occ. eigenvalues --  -10.38499 -10.36515 -10.35048 -10.34824 -10.33881
 Alpha  occ. eigenvalues --  -10.31979 -10.31853 -10.31531 -10.30720 -10.30659
 Alpha  occ. eigenvalues --  -10.29885 -10.29740 -10.28376 -10.28060 -10.27545
 Alpha  occ. eigenvalues --  -10.25056 -10.24851 -10.23544 -10.22650 -10.22502
 Alpha  occ. eigenvalues --  -10.22216 -10.21894 -10.21278 -10.21083 -10.20422
 Alpha  occ. eigenvalues --  -10.20161 -10.20127 -10.20070 -10.19571 -10.18817
 Alpha  occ. eigenvalues --  -10.17828 -10.13604  -1.18673  -1.17526  -1.17347
 Alpha  occ. eigenvalues --   -1.15912  -1.14719  -1.11120  -1.10764  -1.09800
 Alpha  occ. eigenvalues --   -1.08200  -1.08135  -1.07232  -1.07000  -1.06135
 Alpha  occ. eigenvalues --   -1.03316  -0.99357  -0.99054  -0.97947  -0.96756
 Alpha  occ. eigenvalues --   -0.95420  -0.95233  -0.93498  -0.92300  -0.88670
 Alpha  occ. eigenvalues --   -0.86487  -0.86423  -0.85891  -0.85379  -0.84178
 Alpha  occ. eigenvalues --   -0.83088  -0.81658  -0.80406  -0.79374  -0.78823
 Alpha  occ. eigenvalues --   -0.78279  -0.77692  -0.76692  -0.76076  -0.75710
 Alpha  occ. eigenvalues --   -0.74871  -0.73457  -0.72270  -0.72109  -0.71973
 Alpha  occ. eigenvalues --   -0.71669  -0.71424  -0.70946  -0.70228  -0.69570
 Alpha  occ. eigenvalues --   -0.68090  -0.67189  -0.66376  -0.65957  -0.65855
 Alpha  occ. eigenvalues --   -0.65390  -0.65302  -0.64017  -0.63879  -0.62728
 Alpha  occ. eigenvalues --   -0.62579  -0.62410  -0.62251  -0.61598  -0.60610
 Alpha  occ. eigenvalues --   -0.60378  -0.59994  -0.59827  -0.58990  -0.58948
 Alpha  occ. eigenvalues --   -0.58114  -0.57623  -0.56823  -0.56178  -0.55972
 Alpha  occ. eigenvalues --   -0.55348  -0.54979  -0.54478  -0.54073  -0.53509
 Alpha  occ. eigenvalues --   -0.53408  -0.52941  -0.52753  -0.52092  -0.51909
 Alpha  occ. eigenvalues --   -0.51484  -0.51421  -0.51042  -0.50674  -0.50556
 Alpha  occ. eigenvalues --   -0.50140  -0.49904  -0.49604  -0.49180  -0.48850
 Alpha  occ. eigenvalues --   -0.48257  -0.48067  -0.47716  -0.47511  -0.47299
 Alpha  occ. eigenvalues --   -0.47105  -0.46926  -0.46748  -0.46527  -0.46136
 Alpha  occ. eigenvalues --   -0.46070  -0.45681  -0.45260  -0.45225  -0.44757
 Alpha  occ. eigenvalues --   -0.44604  -0.44390  -0.43853  -0.43718  -0.43386
 Alpha  occ. eigenvalues --   -0.43256  -0.43072  -0.42827  -0.42529  -0.42108
 Alpha  occ. eigenvalues --   -0.42010  -0.41998  -0.41767  -0.41687  -0.41280
 Alpha  occ. eigenvalues --   -0.41125  -0.40861  -0.40638  -0.39948  -0.39775
 Alpha  occ. eigenvalues --   -0.38349  -0.38194  -0.38188  -0.37987  -0.36689
 Alpha  occ. eigenvalues --   -0.36477  -0.36044  -0.35876  -0.35652  -0.35603
 Alpha  occ. eigenvalues --   -0.35350  -0.34753  -0.34205  -0.33895  -0.33821
 Alpha  occ. eigenvalues --   -0.32446  -0.32352  -0.31872  -0.31171  -0.30905
 Alpha  occ. eigenvalues --   -0.30109  -0.29874  -0.29426  -0.28785  -0.28676
 Alpha  occ. eigenvalues --   -0.27432  -0.26798  -0.26448  -0.17343  -0.15934
 Alpha  occ. eigenvalues --   -0.15157
 Alpha virt. eigenvalues --   -0.14244  -0.12257  -0.09634  -0.09339  -0.06368
 Alpha virt. eigenvalues --   -0.05755  -0.05476  -0.04764  -0.04596  -0.04277
 Alpha virt. eigenvalues --   -0.03885  -0.03840  -0.03255  -0.02926  -0.02275

 Mulliken charges:
               1
     1  N   -0.717625
     2  H    0.431278
     3  H    0.424885
     4  H    0.434686
     5  C   -0.142258
     6  H    0.216110
     7  C    0.622095
     8  C    0.126635
     9  H    0.168226
    10  O   -0.521772
    11  C   -0.476523
    12  H    0.191350
    13  H    0.179866
    14  H    0.182760
    15  O   -0.646654
    16  H    0.428310
    17  N   -0.602998
    18  H    0.355045
    19  C   -0.052754
    20  H    0.187077
    21  C    0.614085
    22  C   -0.349077
    23  H    0.160929
    24  H    0.162312
    25  O   -0.547884
    26  C    0.147442
    27  C   -0.205368
    28  H    0.137906
    29  C   -0.204651
    30  H    0.115859
    31  C   -0.144869
    32  H    0.236890
    33  C   -0.127484
    34  H    0.117408
    35  C   -0.126470
    36  H    0.139129
    37  N   -0.614181
    38  H    0.372592
    39  C   -0.026487
    40  H    0.178507
    41  C    0.621436
    42  C   -0.450133
    43  H    0.154953
    44  H    0.150865
    45  H    0.175807
    46  O   -0.538906
    47  N   -0.615581
    48  H    0.350716
    49  C   -0.041715
    50  H    0.140017
    51  C    0.632587
    52  C   -0.280517
    53  H    0.175312
    54  H    0.142473
    55  O   -0.548060
    56  C   -0.322653
    57  H    0.109967
    58  H    0.117187
    59  C    0.535643
    60  O   -0.578736
    61  O   -0.576757
    62  N   -0.628388
    63  H    0.354293
    64  C   -0.026415
    65  H    0.191622
    66  C    0.632514
    67  C   -0.447966
    68  H    0.143269
    69  H    0.134400
    70  H    0.199436
    71  O   -0.556093
    72  N   -0.608321
    73  H    0.342446
    74  C   -0.067774
    75  H    0.192296
    76  C    0.648648
    77  C   -0.278051
    78  H    0.152827
    79  H    0.146058
    80  O   -0.531155
    81  C   -0.083960
    82  H    0.155987
    83  C   -0.459400
    84  H    0.146669
    85  H    0.150698
    86  H    0.149388
    87  C   -0.446536
    88  H    0.145729
    89  H    0.147171
    90  H    0.143355
    91  N   -0.637145
    92  H    0.366354
    93  C    0.022966
    94  H    0.174620
    95  C    0.599554
    96  C   -0.325236
    97  H    0.188792
    98  H    0.138639
    99  O   -0.449467
   100  C   -0.314856
   101  H    0.173884
   102  H    0.195657
   103  C   -0.160059
   104  H    0.186083
   105  H    0.191996
   106  N   -0.590307
   107  H    0.367033
   108  N   -0.729094
   109  H    0.376621
   110  H    0.389078
   111  N   -0.729869
   112  H    0.376972
   113  H    0.371417
   114  C    0.749262
   115  O   -0.573637
   116  H    0.419768
 Sum of Mulliken charges =   1.00000

 Dipole moment (field-independent basis, Debye):
    X=             -5.8766    Y=             36.7058    Z=            -21.5187  Tot=             42.9523
 Quadrupole moment (field-independent basis, Debye-Ang):
   XX=            -87.7452   YY=            -83.4662   ZZ=            -15.1246
   XY=            116.0221   XZ=            312.2729   YZ=            193.3115

 Normal termination of Gaussian 16 at Sat Jul 16 02:11:10 2022.
