 Gaussian 16, Revision C.01,
 Gaussian 16:  ES64L-G16RevC.01  3-Jul-2019

 ----------------------------------------------------------------------
 # B3LYP/6-31G* empiricaldispersion=gd3bj guess=read geom=check nosymm
 integral(ultrafinegrid)
 ----------------------------------------------------------------------

 ------------------------------------------------------
 Candidate Structure: Conf:102 Charge calc in gas phase
 ------------------------------------------------------
 Structure from the checkpoint file:  "conf-102.chk"
 Charge =  1 Multiplicity = 1

                          Input orientation:
 ---------------------------------------------------------------------
 Center     Atomic      Atomic             Coordinates (Angstroms)
 Number     Number       Type             X           Y           Z
 ---------------------------------------------------------------------
      1          7           0       -5.980449   -2.352422   -9.303761
      2          1           0       -6.709760   -3.018629   -9.037837
      3          1           0       -6.292826   -1.384145   -9.034752
      4          1           0       -5.760599   -2.455796  -10.307488
      5          6           0       -4.706295   -2.530461   -8.524389
      6          1           0       -4.652552   -3.560266   -8.166164
      7          6           0       -4.816550   -1.483727   -7.392341
      8          6           0       -3.526850   -2.227080   -9.477149
      9          1           0       -3.482506   -1.137630   -9.626723
     10          8           0       -5.631510   -0.563514   -7.550759
     11          6           0       -2.196570   -2.741930   -8.942831
     12          1           0       -1.914337   -2.257239   -8.003515
     13          1           0       -1.403593   -2.531080   -9.667828
     14          1           0       -2.239267   -3.825126   -8.789913
     15          8           0       -3.905420   -2.868636  -10.700434
     16          1           0       -3.248658   -2.668065  -11.386062
     17          7           0       -3.989622   -1.643207   -6.372332
     18          1           0       -3.295285   -2.393367   -6.333326
     19          6           0       -3.781175   -0.677560   -5.297743
     20          1           0       -3.925569    0.330132   -5.695841
     21          6           0       -2.309067   -0.897912   -4.893344
     22          6           0       -4.776663   -0.922117   -4.136604
     23          1           0       -5.782629   -0.841062   -4.565789
     24          1           0       -4.648973   -1.953454   -3.789716
     25          8           0       -1.742128   -1.949809   -5.232036
     26          6           0       -4.599527    0.043866   -2.990452
     27          6           0       -4.128786   -0.402194   -1.749841
     28          1           0       -3.912830   -1.459290   -1.610297
     29          6           0       -4.873185    1.407186   -3.162556
     30          1           0       -5.255339    1.765573   -4.117047
     31          6           0       -3.944445    0.493105   -0.697608
     32          1           0       -3.588041    0.166743    0.273617
     33          6           0       -4.673535    2.306628   -2.113796
     34          1           0       -4.885447    3.361560   -2.262672
     35          6           0       -4.211213    1.850741   -0.879357
     36          1           0       -4.039825    2.519605   -0.043130
     37          7           0       -1.734020    0.083831   -4.199571
     38          1           0       -2.256026    0.904765   -3.892609
     39          6           0       -0.382072    0.004058   -3.664980
     40          1           0       -0.272046   -0.937395   -3.114449
     41          6           0       -0.250433    1.196414   -2.702848
     42          6           0        0.681641    0.077002   -4.771503
     43          1           0        1.687561    0.015977   -4.344408
     44          1           0        0.592587    1.022970   -5.314918
     45          1           0        0.545872   -0.754363   -5.466495
     46          8           0       -1.045304    2.133545   -2.754992
     47          7           0        0.789925    1.124730   -1.849021
     48          1           0        1.490713    0.395519   -1.934269
     49          6           0        1.163941    2.213099   -0.964569
     50          1           0        0.841390    3.152346   -1.426654
     51          6           0        2.687974    2.157666   -0.825973
     52          6           0        0.542352    2.085361    0.445414
     53          1           0        0.809321    2.986897    1.010419
     54          1           0        1.014076    1.244904    0.965811
     55          8           0        3.338406    1.184457   -1.202378
     56          6           0       -0.971469    1.913846    0.460828
     57          1           0       -1.466690    2.741083   -0.056429
     58          1           0       -1.251779    1.014950   -0.098305
     59          6           0       -1.574696    1.780269    1.877679
     60          8           0       -2.806269    1.788717    1.991345
     61          8           0       -0.721673    1.637579    2.831708
     62          7           0        3.267528    3.222750   -0.205433
     63          1           0        2.660794    3.884552    0.259925
     64          6           0        4.624869    3.108986    0.303343
     65          1           0        5.264501    2.797955   -0.527829
     66          6           0        4.695727    2.066903    1.427380
     67          6           0        5.096430    4.450529    0.871240
     68          1           0        6.096714    4.347729    1.300927
     69          1           0        4.425632    4.771515    1.676054
     70          1           0        5.113089    5.216587    0.090897
     71          8           0        3.849815    2.027767    2.325561
     72          7           0        5.771620    1.254719    1.416802
     73          1           0        6.474780    1.386097    0.702986
     74          6           0        6.125992    0.473865    2.591713
     75          1           0        5.303156   -0.216766    2.797882
     76          6           0        6.301731    1.434724    3.781649
     77          6           0        7.427983   -0.295527    2.322235
     78          1           0        7.293448   -0.882359    1.403161
     79          1           0        8.215967    0.444084    2.126420
     80          8           0        6.816750    2.539337    3.646499
     81          6           0        7.885101   -1.232110    3.455052
     82          1           0        7.981201   -0.641967    4.376029
     83          6           0        6.883122   -2.363888    3.718186
     84          1           0        6.741349   -2.974941    2.817900
     85          1           0        5.896992   -1.997528    4.025326
     86          1           0        7.244023   -3.018874    4.517412
     87          6           0        9.267070   -1.806510    3.119703
     88          1           0        9.228680   -2.409362    2.203630
     89          1           0        9.628348   -2.451326    3.927733
     90          1           0       10.004249   -1.010097    2.967626
     91          7           0        5.851402    0.957855    4.969641
     92          1           0        5.536407   -0.000310    5.050804
     93          6           0        6.009830    1.691231    6.207311
     94          1           0        6.841880    2.390610    6.077658
     95          6           0        6.358831    0.691811    7.297757
     96          6           0        4.736446    2.487285    6.580691
     97          1           0        4.924236    3.025737    7.517081
     98          1           0        3.923277    1.774032    6.768925
     99          8           0        6.312072   -0.512386    7.166038
    100          6           0        4.324452    3.451155    5.467421
    101          1           0        4.232566    2.898125    4.530248
    102          1           0        5.113484    4.194244    5.303009
    103          6           0        3.019140    4.199661    5.752322
    104          1           0        2.787706    4.868680    4.916205
    105          1           0        3.122861    4.822461    6.646590
    106          7           0        1.854116    3.340196    5.978874
    107          1           0        1.536045    3.210647    6.927516
    108          7           0        1.456740    2.831498    3.727267
    109          1           0        0.756207    2.385927    3.092303
    110          1           0        2.433531    2.755446    3.458609
    111          7           0       -0.142055    2.342393    5.304480
    112          1           0       -0.615907    2.652539    6.140175
    113          1           0       -0.697430    1.976027    4.492277
    114          6           0        1.065339    2.837531    5.001244
    115          8           0        6.695299    1.305014    8.447974
    116          1           0        6.881855    0.602929    9.100377
 ---------------------------------------------------------------------

 SCF Done:  E(RB3LYP) =  -2782.56114609     A.U. after    1 cycles

 Alpha  occ. eigenvalues --  -19.29719 -19.26794 -19.25379 -19.21245 -19.20404
 Alpha  occ. eigenvalues --  -19.19022 -19.18652 -19.17903 -19.17583 -19.11591
 Alpha  occ. eigenvalues --  -19.09663 -14.58522 -14.48111 -14.44467 -14.43528
 Alpha  occ. eigenvalues --  -14.43145 -14.42725 -14.42391 -14.41872 -14.41100
 Alpha  occ. eigenvalues --  -14.40124 -10.42399 -10.39667 -10.39159 -10.39124
 Alpha  occ. eigenvalues --  -10.38700 -10.37255 -10.35623 -10.35294 -10.35002
 Alpha  occ. eigenvalues --  -10.34763 -10.32880 -10.30550 -10.30393 -10.30361
 Alpha  occ. eigenvalues --  -10.30055 -10.30041 -10.29734 -10.28978 -10.28698
 Alpha  occ. eigenvalues --  -10.27067 -10.25997 -10.25256 -10.25182 -10.24854
 Alpha  occ. eigenvalues --  -10.24839 -10.24786 -10.24753 -10.23659 -10.23313
 Alpha  occ. eigenvalues --  -10.23162 -10.23101 -10.22872 -10.22462 -10.22146
 Alpha  occ. eigenvalues --  -10.21920 -10.20207  -1.18464  -1.17798  -1.16791
 Alpha  occ. eigenvalues --   -1.12557  -1.12043  -1.11344  -1.10534  -1.09753
 Alpha  occ. eigenvalues --   -1.09462  -1.08771  -1.07554  -1.04926  -1.03634
 Alpha  occ. eigenvalues --   -1.00334  -0.99670  -0.99435  -0.99295  -0.98654
 Alpha  occ. eigenvalues --   -0.97805  -0.94915  -0.94099  -0.92804  -0.90514
 Alpha  occ. eigenvalues --   -0.87921  -0.87206  -0.86541  -0.85715  -0.84277
 Alpha  occ. eigenvalues --   -0.83686  -0.82534  -0.81876  -0.80090  -0.79853
 Alpha  occ. eigenvalues --   -0.78580  -0.76566  -0.76131  -0.75418  -0.73746
 Alpha  occ. eigenvalues --   -0.73729  -0.73297  -0.73081  -0.72489  -0.71259
 Alpha  occ. eigenvalues --   -0.70888  -0.70249  -0.69695  -0.68197  -0.67353
 Alpha  occ. eigenvalues --   -0.67068  -0.66074  -0.65978  -0.65372  -0.65129
 Alpha  occ. eigenvalues --   -0.64983  -0.64751  -0.64668  -0.64216  -0.63643
 Alpha  occ. eigenvalues --   -0.63002  -0.62140  -0.61772  -0.60907  -0.60206
 Alpha  occ. eigenvalues --   -0.59536  -0.58330  -0.58036  -0.57543  -0.56787
 Alpha  occ. eigenvalues --   -0.56585  -0.56463  -0.56019  -0.55811  -0.55601
 Alpha  occ. eigenvalues --   -0.55231  -0.54968  -0.54721  -0.54362  -0.54162
 Alpha  occ. eigenvalues --   -0.53837  -0.53593  -0.53153  -0.52904  -0.52741
 Alpha  occ. eigenvalues --   -0.52168  -0.51514  -0.51443  -0.51110  -0.50964
 Alpha  occ. eigenvalues --   -0.50759  -0.50508  -0.50217  -0.49856  -0.49784
 Alpha  occ. eigenvalues --   -0.49564  -0.49255  -0.48986  -0.48647  -0.48466
 Alpha  occ. eigenvalues --   -0.48284  -0.47997  -0.47739  -0.47624  -0.47494
 Alpha  occ. eigenvalues --   -0.46869  -0.46745  -0.46473  -0.46158  -0.45864
 Alpha  occ. eigenvalues --   -0.45599  -0.45570  -0.45226  -0.44992  -0.44884
 Alpha  occ. eigenvalues --   -0.44742  -0.44198  -0.43708  -0.43664  -0.43438
 Alpha  occ. eigenvalues --   -0.43395  -0.43191  -0.42946  -0.42521  -0.42239
 Alpha  occ. eigenvalues --   -0.42041  -0.41954  -0.41461  -0.41205  -0.41000
 Alpha  occ. eigenvalues --   -0.40470  -0.40407  -0.40172  -0.39827  -0.38928
 Alpha  occ. eigenvalues --   -0.38709  -0.38669  -0.38459  -0.38316  -0.38157
 Alpha  occ. eigenvalues --   -0.37949  -0.37274  -0.36253  -0.34977  -0.34590
 Alpha  occ. eigenvalues --   -0.34287  -0.33697  -0.33518  -0.33119  -0.32861
 Alpha  occ. eigenvalues --   -0.32718  -0.31989  -0.31673  -0.31514  -0.31161
 Alpha  occ. eigenvalues --   -0.31097  -0.29256  -0.28600  -0.26717  -0.26450
 Alpha  occ. eigenvalues --   -0.23786
 Alpha virt. eigenvalues --   -0.11312  -0.09247  -0.06393  -0.06087  -0.05508
 Alpha virt. eigenvalues --   -0.05383  -0.04883  -0.04436  -0.04185  -0.03806
 Alpha virt. eigenvalues --   -0.03610  -0.03394  -0.03202  -0.01518  -0.00742

 Mulliken charges:
               1
     1  N   -0.748905
     2  H    0.415177
     3  H    0.425033
     4  H    0.428409
     5  C   -0.123944
     6  H    0.214436
     7  C    0.642980
     8  C    0.126535
     9  H    0.170921
    10  O   -0.540434
    11  C   -0.489832
    12  H    0.198122
    13  H    0.179748
    14  H    0.181525
    15  O   -0.648249
    16  H    0.432593
    17  N   -0.599450
    18  H    0.374561
    19  C   -0.076236
    20  H    0.194146
    21  C    0.638006
    22  C   -0.343316
    23  H    0.172376
    24  H    0.156974
    25  O   -0.569363
    26  C    0.150498
    27  C   -0.190447
    28  H    0.121733
    29  C   -0.209801
    30  H    0.120463
    31  C   -0.138401
    32  H    0.174937
    33  C   -0.115287
    34  H    0.135563
    35  C   -0.124351
    36  H    0.177538
    37  N   -0.617972
    38  H    0.385737
    39  C   -0.032354
    40  H    0.179585
    41  C    0.624277
    42  C   -0.457748
    43  H    0.164509
    44  H    0.162505
    45  H    0.180590
    46  O   -0.533355
    47  N   -0.611222
    48  H    0.353074
    49  C   -0.067667
    50  H    0.180602
    51  C    0.627173
    52  C   -0.266089
    53  H    0.127821
    54  H    0.163718
    55  O   -0.541163
    56  C   -0.361901
    57  H    0.162244
    58  H    0.151721
    59  C    0.588063
    60  O   -0.543748
    61  O   -0.638807
    62  N   -0.591696
    63  H    0.339950
    64  C   -0.057263
    65  H    0.169971
    66  C    0.674637
    67  C   -0.477795
    68  H    0.192620
    69  H    0.158350
    70  H    0.173674
    71  O   -0.566522
    72  N   -0.597559
    73  H    0.342961
    74  C   -0.026569
    75  H    0.171507
    76  C    0.636906
    77  C   -0.301052
    78  H    0.152198
    79  H    0.155335
    80  O   -0.545759
    81  C   -0.090164
    82  H    0.142663
    83  C   -0.447900
    84  H    0.147206
    85  H    0.133359
    86  H    0.163593
    87  C   -0.445175
    88  H    0.144618
    89  H    0.154453
    90  H    0.148539
    91  N   -0.603930
    92  H    0.356456
    93  C   -0.049441
    94  H    0.206802
    95  C    0.586748
    96  C   -0.266650
    97  H    0.161171
    98  H    0.145154
    99  O   -0.465196
   100  C   -0.292046
   101  H    0.193347
   102  H    0.165903
   103  C   -0.160724
   104  H    0.176840
   105  H    0.163577
   106  N   -0.603346
   107  H    0.342021
   108  N   -0.838370
   109  H    0.433919
   110  H    0.400384
   111  N   -0.777669
   112  H    0.336639
   113  H    0.415972
   114  C    0.760187
   115  O   -0.560661
   116  H    0.423977
 Sum of Mulliken charges =   1.00000

 Dipole moment (field-independent basis, Debye):
    X=             -3.3305    Y=             -3.9100    Z=            -22.7009  Tot=             23.2747
 Quadrupole moment (field-independent basis, Debye-Ang):
   XX=           -196.7308   YY=           -283.7736   ZZ=             85.2754
   XY=             68.9240   XZ=            211.0953   YZ=            116.4683

 Normal termination of Gaussian 16 at Sat Jul 16 02:10:01 2022.
