 Gaussian 16, Revision C.01,
 Gaussian 16:  ES64L-G16RevC.01  3-Jul-2019

 ----------------------------------------------------------------------
 # B3LYP/6-31G* empiricaldispersion=gd3bj guess=read geom=check nosymm
 integral(ultrafinegrid)
 ----------------------------------------------------------------------

 ------------------------------------------------------
 Candidate Structure: Conf:705 Charge calc in gas phase
 ------------------------------------------------------
 Structure from the checkpoint file:  "conf-705.chk"
 Charge =  1 Multiplicity = 1

                          Input orientation:
 ---------------------------------------------------------------------
 Center     Atomic      Atomic             Coordinates (Angstroms)
 Number     Number       Type             X           Y           Z
 ---------------------------------------------------------------------
      1          7           0       -0.741222   -2.775759    1.781518
      2          1           0        0.140913   -4.022619    0.720082
      3          1           0        0.172762   -2.340441    1.922181
      4          1           0       -1.132080   -2.989064    2.696115
      5          6           0       -1.606476   -1.826539    1.053528
      6          1           0       -2.651507   -2.100932    1.231301
      7          6           0       -1.253886   -1.999812   -0.422729
      8          6           0       -1.397893   -0.342110    1.457626
      9          1           0       -2.026337    0.275268    0.796897
     10          8           0       -0.157397   -1.598000   -0.834100
     11          6           0       -1.769533   -0.065003    2.904288
     12          1           0       -2.825897   -0.286999    3.086655
     13          1           0       -1.594069    0.989449    3.133866
     14          1           0       -1.159733   -0.667052    3.586070
     15          8           0       -0.029690    0.029024    1.281362
     16          1           0        0.220606   -0.221357    0.365965
     17          7           0       -2.148521   -2.595650   -1.239138
     18          1           0       -2.981577   -3.007892   -0.829730
     19          6           0       -1.760448   -3.156868   -2.540099
     20          1           0       -1.176004   -4.066089   -2.367442
     21          6           0       -0.832524   -2.231358   -3.327631
     22          6           0       -3.027350   -3.506519   -3.352204
     23          1           0       -3.552971   -2.581710   -3.613426
     24          1           0       -2.694094   -3.969117   -4.286845
     25          8           0        0.133457   -2.700301   -3.930549
     26          6           0       -3.938009   -4.433680   -2.580814
     27          6           0       -3.617557   -5.790748   -2.442006
     28          1           0       -2.738096   -6.188434   -2.942844
     29          6           0       -5.077687   -3.938630   -1.933279
     30          1           0       -5.348569   -2.891494   -2.051523
     31          6           0       -4.421445   -6.634202   -1.678145
     32          1           0       -4.166617   -7.685844   -1.587599
     33          6           0       -5.883892   -4.782550   -1.165132
     34          1           0       -6.771389   -4.387201   -0.679886
     35          6           0       -5.555852   -6.131397   -1.035731
     36          1           0       -6.183772   -6.790900   -0.444554
     37          7           0       -1.163509   -0.912469   -3.374665
     38          1           0       -1.843587   -0.594376   -2.694744
     39          6           0       -0.159463    0.077697   -3.778411
     40          1           0        0.275581   -0.286291   -4.712875
     41          6           0        0.953776    0.138089   -2.706312
     42          6           0       -0.811546    1.436608   -3.986848
     43          1           0       -0.070836    2.168288   -4.321320
     44          1           0       -1.240888    1.808558   -3.052885
     45          1           0       -1.596049    1.363040   -4.744658
     46          8           0        0.958298    0.975120   -1.799524
     47          7           0        1.943798   -0.784582   -2.850818
     48          1           0        1.733267   -1.555924   -3.482028
     49          6           0        2.888182   -1.017766   -1.759598
     50          1           0        2.348589   -0.863735   -0.820412
     51          6           0        4.013107    0.029012   -1.715843
     52          6           0        3.450343   -2.446730   -1.765915
     53          1           0        4.228185   -2.485413   -0.999781
     54          1           0        3.943957   -2.638867   -2.726208
     55          8           0        4.888540   -0.017594   -0.843412
     56          6           0        2.411909   -3.546961   -1.517420
     57          1           0        1.635031   -3.557605   -2.288084
     58          1           0        2.902515   -4.527043   -1.576969
     59          6           0        1.722126   -3.469311   -0.173551
     60          8           0        0.669670   -4.282250   -0.091692
     61          8           0        2.071855   -2.745874    0.752522
     62          7           0        3.933994    1.026443   -2.618402
     63          1           0        3.218521    0.955709   -3.327860
     64          6           0        4.741119    2.231504   -2.557771
     65          1           0        5.728542    1.946368   -2.183135
     66          6           0        4.220863    3.279729   -1.554728
     67          6           0        4.875594    2.858247   -3.946620
     68          1           0        5.457036    3.778432   -3.874259
     69          1           0        3.890388    3.110247   -4.358115
     70          1           0        5.376359    2.167100   -4.630175
     71          8           0        4.866550    4.324909   -1.426900
     72          7           0        3.107537    2.999883   -0.838452
     73          1           0        2.551102    2.180552   -1.072044
     74          6           0        2.506450    3.976751    0.086621
     75          1           0        2.614764    4.966024   -0.372709
     76          6           0        3.290863    4.016906    1.419351
     77          6           0        1.034762    3.644149    0.327355
     78          1           0        0.957225    2.593044    0.630983
     79          1           0        0.696042    4.230799    1.188016
     80          8           0        2.790203    3.671544    2.503887
     81          6           0        0.107003    3.910453   -0.869900
     82          1           0        0.533063    3.421876   -1.754050
     83          6           0       -1.257040    3.264166   -0.599792
     84          1           0       -1.713424    3.675566    0.309570
     85          1           0       -1.146111    2.182334   -0.467368
     86          1           0       -1.952565    3.445478   -1.427516
     87          6           0       -0.042390    5.408474   -1.160896
     88          1           0       -0.469564    5.933843   -0.297612
     89          1           0       -0.708584    5.574918   -2.014643
     90          1           0        0.915882    5.883192   -1.399282
     91          7           0        4.568259    4.413832    1.296547
     92          1           0        4.866149    4.727492    0.368500
     93          6           0        5.481040    4.622182    2.402912
     94          1           0        4.960999    4.371890    3.332029
     95          6           0        5.825421    6.112301    2.460500
     96          6           0        6.778313    3.785920    2.259460
     97          1           0        7.565660    4.293928    2.824476
     98          1           0        7.078575    3.811855    1.204342
     99          8           0        5.581117    6.912981    1.590594
    100          6           0        6.738121    2.331380    2.758108
    101          1           0        6.483462    2.308843    3.825816
    102          1           0        7.761587    1.947154    2.683842
    103          6           0        5.838530    1.338041    2.013298
    104          1           0        6.170590    0.317450    2.230847
    105          1           0        5.904248    1.480619    0.927972
    106          7           0        4.449943    1.451795    2.451320
    107          1           0        4.114625    2.347369    2.796455
    108          7           0        3.774475   -0.624351    1.664285
    109          1           0        3.040888   -1.315936    1.529164
    110          1           0        4.459093   -0.601695    0.906696
    111          7           0        2.269031    0.777571    2.780820
    112          1           0        2.094250    1.746002    3.039348
    113          1           0        1.467954    0.320458    2.341780
    114          6           0        3.494725    0.538155    2.270029
    115          8           0        6.464451    6.413493    3.610320
    116          1           0        6.678718    7.365420    3.576462
 ---------------------------------------------------------------------

 SCF Done:  E(RB3LYP) =  -2782.66032465     A.U. after    2 cycles

 Alpha  occ. eigenvalues --  -19.27379 -19.26923 -19.25318 -19.24162 -19.23335
 Alpha  occ. eigenvalues --  -19.23100 -19.22577 -19.22267 -19.21756 -19.21332
 Alpha  occ. eigenvalues --  -19.20625 -14.48305 -14.46611 -14.46359 -14.46309
 Alpha  occ. eigenvalues --  -14.45810 -14.45157 -14.44370 -14.44333 -14.44291
 Alpha  occ. eigenvalues --  -14.44226 -10.41630 -10.41365 -10.40866 -10.39767
 Alpha  occ. eigenvalues --  -10.39646 -10.39508 -10.39156 -10.37974 -10.37758
 Alpha  occ. eigenvalues --  -10.34811 -10.34173 -10.34153 -10.33791 -10.33286
 Alpha  occ. eigenvalues --  -10.32731 -10.32440 -10.31870 -10.31329 -10.29551
 Alpha  occ. eigenvalues --  -10.29084 -10.28694 -10.28647 -10.27930 -10.27901
 Alpha  occ. eigenvalues --  -10.27742 -10.27702 -10.27644 -10.27440 -10.27410
 Alpha  occ. eigenvalues --  -10.27266 -10.27113 -10.26933 -10.26026 -10.25971
 Alpha  occ. eigenvalues --  -10.24663 -10.24084  -1.18921  -1.18334  -1.16711
 Alpha  occ. eigenvalues --   -1.15021  -1.14243  -1.13820  -1.13196  -1.12440
 Alpha  occ. eigenvalues --   -1.12295  -1.10466  -1.09918  -1.09491  -1.04839
 Alpha  occ. eigenvalues --   -1.03971  -1.03140  -1.02383  -1.01668  -1.00712
 Alpha  occ. eigenvalues --   -1.00694  -1.00009  -0.98198  -0.94387  -0.90245
 Alpha  occ. eigenvalues --   -0.89446  -0.89200  -0.88538  -0.87067  -0.86734
 Alpha  occ. eigenvalues --   -0.86514  -0.84628  -0.83261  -0.82887  -0.82609
 Alpha  occ. eigenvalues --   -0.82067  -0.80343  -0.77452  -0.76138  -0.75366
 Alpha  occ. eigenvalues --   -0.75319  -0.74709  -0.73774  -0.73115  -0.72542
 Alpha  occ. eigenvalues --   -0.72001  -0.70122  -0.69701  -0.69617  -0.69161
 Alpha  occ. eigenvalues --   -0.68792  -0.68670  -0.68264  -0.67391  -0.67036
 Alpha  occ. eigenvalues --   -0.66934  -0.66866  -0.66356  -0.64416  -0.64199
 Alpha  occ. eigenvalues --   -0.63935  -0.63132  -0.62821  -0.62326  -0.62005
 Alpha  occ. eigenvalues --   -0.61001  -0.60666  -0.60254  -0.60055  -0.59459
 Alpha  occ. eigenvalues --   -0.58847  -0.58699  -0.58480  -0.58007  -0.57754
 Alpha  occ. eigenvalues --   -0.57612  -0.57174  -0.56867  -0.56600  -0.56335
 Alpha  occ. eigenvalues --   -0.55902  -0.55483  -0.55116  -0.54719  -0.54497
 Alpha  occ. eigenvalues --   -0.54411  -0.54226  -0.53699  -0.53595  -0.53208
 Alpha  occ. eigenvalues --   -0.52989  -0.52476  -0.52244  -0.51991  -0.51633
 Alpha  occ. eigenvalues --   -0.51523  -0.51243  -0.51095  -0.50928  -0.50508
 Alpha  occ. eigenvalues --   -0.50409  -0.50083  -0.49865  -0.49725  -0.49601
 Alpha  occ. eigenvalues --   -0.49443  -0.49297  -0.48791  -0.48648  -0.48485
 Alpha  occ. eigenvalues --   -0.48164  -0.48100  -0.47891  -0.47698  -0.47614
 Alpha  occ. eigenvalues --   -0.47344  -0.47074  -0.46705  -0.46588  -0.46544
 Alpha  occ. eigenvalues --   -0.46211  -0.45936  -0.45657  -0.45236  -0.45115
 Alpha  occ. eigenvalues --   -0.44645  -0.44567  -0.44273  -0.44178  -0.43945
 Alpha  occ. eigenvalues --   -0.43804  -0.43479  -0.43332  -0.42849  -0.42686
 Alpha  occ. eigenvalues --   -0.42445  -0.40688  -0.40240  -0.39933  -0.39814
 Alpha  occ. eigenvalues --   -0.39456  -0.39436  -0.38966  -0.38800  -0.38458
 Alpha  occ. eigenvalues --   -0.37992  -0.37927  -0.37209  -0.36992  -0.36473
 Alpha  occ. eigenvalues --   -0.36338  -0.35638  -0.35493  -0.35208  -0.35078
 Alpha  occ. eigenvalues --   -0.34381  -0.34205  -0.33606  -0.33440  -0.33395
 Alpha  occ. eigenvalues --   -0.33018
 Alpha virt. eigenvalues --   -0.11365  -0.10240  -0.09197  -0.08838  -0.08394
 Alpha virt. eigenvalues --   -0.08164  -0.08027  -0.07444  -0.06930  -0.06666
 Alpha virt. eigenvalues --   -0.06325  -0.04120  -0.02066  -0.01380  -0.00555

 Mulliken charges:
               1
     1  N   -0.775280
     2  H    0.448530
     3  H    0.356594
     4  H    0.340200
     5  C   -0.086650
     6  H    0.157792
     7  C    0.648292
     8  C    0.128841
     9  H    0.137577
    10  O   -0.572067
    11  C   -0.467180
    12  H    0.161680
    13  H    0.183306
    14  H    0.153941
    15  O   -0.675255
    16  H    0.461154
    17  N   -0.639785
    18  H    0.357226
    19  C   -0.034281
    20  H    0.206482
    21  C    0.641822
    22  C   -0.380698
    23  H    0.165497
    24  H    0.193241
    25  O   -0.548073
    26  C    0.141696
    27  C   -0.175822
    28  H    0.144747
    29  C   -0.211689
    30  H    0.134221
    31  C   -0.125995
    32  H    0.154618
    33  C   -0.126090
    34  H    0.150204
    35  C   -0.127730
    36  H    0.154027
    37  N   -0.564689
    38  H    0.336225
    39  C   -0.064754
    40  H    0.187703
    41  C    0.620256
    42  C   -0.473921
    43  H    0.168418
    44  H    0.180435
    45  H    0.176072
    46  O   -0.543871
    47  N   -0.643684
    48  H    0.384712
    49  C   -0.036217
    50  H    0.196790
    51  C    0.627133
    52  C   -0.306245
    53  H    0.184620
    54  H    0.164247
    55  O   -0.555753
    56  C   -0.383833
    57  H    0.212795
    58  H    0.198959
    59  C    0.641754
    60  O   -0.599356
    61  O   -0.526800
    62  N   -0.610696
    63  H    0.351467
    64  C   -0.037059
    65  H    0.205336
    66  C    0.635001
    67  C   -0.474761
    68  H    0.208216
    69  H    0.149473
    70  H    0.172822
    71  O   -0.549186
    72  N   -0.649186
    73  H    0.390894
    74  C   -0.067318
    75  H    0.197028
    76  C    0.631727
    77  C   -0.300220
    78  H    0.148201
    79  H    0.163386
    80  O   -0.581512
    81  C   -0.069846
    82  H    0.133451
    83  C   -0.461941
    84  H    0.143609
    85  H    0.144727
    86  H    0.141979
    87  C   -0.454484
    88  H    0.149626
    89  H    0.149601
    90  H    0.151361
    91  N   -0.590888
    92  H    0.401985
    93  C   -0.075495
    94  H    0.195931
    95  C    0.581862
    96  C   -0.278850
    97  H    0.184122
    98  H    0.165895
    99  O   -0.439760
   100  C   -0.309267
   101  H    0.164476
   102  H    0.171868
   103  C   -0.140899
   104  H    0.175962
   105  H    0.190598
   106  N   -0.619647
   107  H    0.384684
   108  N   -0.814302
   109  H    0.402223
   110  H    0.404325
   111  N   -0.794896
   112  H    0.381800
   113  H    0.395535
   114  C    0.730598
   115  O   -0.561975
   116  H    0.426329
 Sum of Mulliken charges =   1.00000

 Dipole moment (field-independent basis, Debye):
    X=              2.5707    Y=             -2.7861    Z=             -1.0010  Tot=              3.9209
 Quadrupole moment (field-independent basis, Debye-Ang):
   XX=           -241.1943   YY=           -287.6707   ZZ=           -292.6694
   XY=             44.5194   XZ=             13.5505   YZ=             13.0600

 Normal termination of Gaussian 16 at Sat Jul 16 02:11:19 2022.
