 Gaussian 16, Revision C.01,
 Gaussian 16:  ES64L-G16RevC.01  3-Jul-2019

 ----------------------------------------------------------------------
 # B3LYP/6-31G* empiricaldispersion=gd3bj guess=read geom=check nosymm
 integral(ultrafinegrid)
 ----------------------------------------------------------------------

 ------------------------------------------------------
 Candidate Structure: Conf:472 Charge calc in gas phase
 ------------------------------------------------------
 Structure from the checkpoint file:  "conf-472.chk"
 Charge =  1 Multiplicity = 1

                          Input orientation:
 ---------------------------------------------------------------------
 Center     Atomic      Atomic             Coordinates (Angstroms)
 Number     Number       Type             X           Y           Z
 ---------------------------------------------------------------------
      1          7           0       -0.333745   -4.820384   -2.054608
      2          1           0       -1.136124   -5.206851   -1.500196
      3          1           0       -0.643374   -4.760635   -3.043583
      4          1           0        0.520292   -5.370813   -1.962900
      5          6           0       -0.223791   -3.389867   -1.599378
      6          1           0        0.545037   -3.309375   -0.830567
      7          6           0       -1.631108   -3.125763   -1.019742
      8          6           0        0.075386   -2.540425   -2.854601
      9          1           0       -0.001053   -1.485356   -2.588384
     10          8           0       -2.375721   -4.097984   -0.828424
     11          6           0        1.466196   -2.807076   -3.415708
     12          1           0        2.232659   -2.577646   -2.667304
     13          1           0        1.629120   -2.175490   -4.292239
     14          1           0        1.592906   -3.847516   -3.739355
     15          8           0       -0.895692   -2.900131   -3.827994
     16          1           0       -1.700119   -2.352245   -3.667714
     17          7           0       -1.958569   -1.853564   -0.816290
     18          1           0       -1.304685   -1.105129   -1.057556
     19          6           0       -3.352578   -1.443772   -0.736561
     20          1           0       -3.941842   -2.359061   -0.639975
     21          6           0       -3.671422   -0.808999   -2.116507
     22          6           0       -3.588971   -0.525150    0.477672
     23          1           0       -3.224672    0.480121    0.242814
     24          1           0       -4.671858   -0.443388    0.647154
     25          8           0       -3.056400   -1.172209   -3.127702
     26          6           0       -2.896689   -1.005955    1.736705
     27          6           0       -2.914551   -2.350962    2.129539
     28          1           0       -3.437882   -3.090515    1.530349
     29          6           0       -2.203406   -0.085153    2.526605
     30          1           0       -2.180777    0.959696    2.236964
     31          6           0       -2.236070   -2.762690    3.277026
     32          1           0       -2.257858   -3.809940    3.564630
     33          6           0       -1.535364   -0.492481    3.681147
     34          1           0       -1.019942    0.235020    4.299093
     35          6           0       -1.536117   -1.836696    4.054673
     36          1           0       -1.000254   -2.145124    4.945865
     37          7           0       -4.595039    0.172267   -2.151804
     38          1           0       -4.996952    0.482046   -1.276311
     39          6           0       -4.684753    1.131743   -3.270851
     40          1           0       -4.293634    0.607979   -4.145723
     41          6           0       -3.753227    2.321415   -2.897048
     42          6           0       -6.117980    1.583571   -3.496500
     43          1           0       -6.155323    2.292848   -4.326830
     44          1           0       -6.507201    2.101041   -2.614658
     45          1           0       -6.755863    0.726611   -3.729122
     46          8           0       -4.193707    3.430358   -2.634946
     47          7           0       -2.444586    1.958409   -2.793251
     48          1           0       -2.209456    0.995028   -3.009313
     49          6           0       -1.451793    2.622117   -1.946151
     50          1           0       -1.003638    3.473492   -2.467134
     51          6           0       -0.353021    1.569834   -1.743302
     52          6           0       -2.077196    3.136997   -0.608373
     53          1           0       -2.972925    2.532738   -0.432836
     54          1           0       -2.438217    4.151296   -0.787276
     55          8           0       -0.592429    0.352108   -1.879953
     56          6           0       -1.255634    3.076649    0.684746
     57          1           0       -1.928420    3.297986    1.519642
     58          1           0       -0.878041    2.063550    0.854698
     59          6           0       -0.042856    3.991903    0.850191
     60          8           0        0.237465    4.296881    2.059116
     61          8           0        0.636051    4.354601   -0.148058
     62          7           0        0.863971    2.030941   -1.458720
     63          1           0        0.910702    3.016706   -1.121318
     64          6           0        1.931924    1.115147   -1.113397
     65          1           0        2.121068    0.453189   -1.967492
     66          6           0        1.525540    0.232769    0.082946
     67          6           0        3.195069    1.927194   -0.795527
     68          1           0        3.991781    1.287407   -0.403905
     69          1           0        2.961866    2.699536   -0.057304
     70          1           0        3.556802    2.422064   -1.701072
     71          8           0        0.710904    0.590406    0.924569
     72          7           0        2.137073   -0.991249    0.155217
     73          1           0        3.001777   -1.119287   -0.358074
     74          6           0        1.987881   -1.786601    1.381991
     75          1           0        0.917707   -1.812585    1.601983
     76          6           0        2.754663   -1.079292    2.520862
     77          6           0        2.554910   -3.193783    1.182602
     78          1           0        2.331997   -3.541874    0.163165
     79          1           0        3.645252   -3.123385    1.261429
     80          8           0        3.984322   -1.081870    2.531226
     81          6           0        2.010393   -4.213752    2.198733
     82          1           0        2.002735   -3.731892    3.187113
     83          6           0        0.571588   -4.627992    1.862512
     84          1           0        0.546472   -5.173774    0.907111
     85          1           0       -0.111193   -3.775354    1.790237
     86          1           0        0.166880   -5.301034    2.625258
     87          6           0        2.926623   -5.439427    2.274782
     88          1           0        2.997247   -5.935615    1.297410
     89          1           0        2.545967   -6.173950    2.992252
     90          1           0        3.939858   -5.158948    2.580751
     91          7           0        1.989320   -0.452197    3.445064
     92          1           0        0.987574   -0.400010    3.299350
     93          6           0        2.579082    0.354191    4.496385
     94          1           0        3.593316   -0.027076    4.650166
     95          6           0        1.803217    0.157049    5.789738
     96          6           0        2.677726    1.857757    4.137211
     97          1           0        3.119236    2.376956    4.994921
     98          1           0        1.670941    2.268450    3.988467
     99          8           0        0.744962   -0.421375    5.898987
    100          6           0        3.533554    2.072437    2.883035
    101          1           0        2.965620    1.757279    2.004172
    102          1           0        4.417781    1.429472    2.927011
    103          6           0        4.019925    3.505375    2.678666
    104          1           0        4.713382    3.520371    1.825707
    105          1           0        4.576924    3.835861    3.567673
    106          7           0        2.913257    4.418711    2.423653
    107          1           0        1.925947    4.090906    2.347041
    108          7           0        4.276603    6.267029    1.994519
    109          1           0        4.356626    7.272544    2.040171
    110          1           0        5.095389    5.747628    2.271920
    111          7           0        1.949289    6.454992    1.980671
    112          1           0        1.080531    5.891273    1.930002
    113          1           0        2.004420    7.286515    1.408897
    114          6           0        3.051178    5.705981    2.129432
    115          8           0        2.441247    0.736398    6.825626
    116          1           0        1.887724    0.593626    7.617196
 ---------------------------------------------------------------------

 SCF Done:  E(RB3LYP) =  -2782.59716638     A.U. after    1 cycles

 Alpha  occ. eigenvalues --  -19.28157 -19.24933 -19.24360 -19.22727 -19.22304
 Alpha  occ. eigenvalues --  -19.21848 -19.21827 -19.19889 -19.18419 -19.16286
 Alpha  occ. eigenvalues --  -19.16264 -14.56682 -14.47823 -14.46583 -14.46345
 Alpha  occ. eigenvalues --  -14.46063 -14.45568 -14.44484 -14.44471 -14.43638
 Alpha  occ. eigenvalues --  -14.42147 -10.42449 -10.40975 -10.40715 -10.39225
 Alpha  occ. eigenvalues --  -10.38588 -10.37835 -10.37136 -10.37086 -10.35411
 Alpha  occ. eigenvalues --  -10.35147 -10.34207 -10.33648 -10.33041 -10.32688
 Alpha  occ. eigenvalues --  -10.32440 -10.32393 -10.31098 -10.30934 -10.28860
 Alpha  occ. eigenvalues --  -10.28829 -10.27899 -10.27897 -10.27850 -10.27838
 Alpha  occ. eigenvalues --  -10.27730 -10.27367 -10.26407 -10.26180 -10.26069
 Alpha  occ. eigenvalues --  -10.25879 -10.25712 -10.25620 -10.25615 -10.25325
 Alpha  occ. eigenvalues --  -10.24743 -10.23860  -1.19241  -1.17067  -1.14388
 Alpha  occ. eigenvalues --   -1.13991  -1.13096  -1.13004  -1.11852  -1.11554
 Alpha  occ. eigenvalues --   -1.10282  -1.10261  -1.10143  -1.09362  -1.04161
 Alpha  occ. eigenvalues --   -1.02360  -1.02347  -1.01734  -1.01231  -1.01022
 Alpha  occ. eigenvalues --   -1.00025  -0.99197  -0.99014  -0.93109  -0.90621
 Alpha  occ. eigenvalues --   -0.90216  -0.89117  -0.88065  -0.87571  -0.85422
 Alpha  occ. eigenvalues --   -0.84896  -0.84114  -0.83577  -0.82741  -0.81533
 Alpha  occ. eigenvalues --   -0.80753  -0.78927  -0.77680  -0.76917  -0.75374
 Alpha  occ. eigenvalues --   -0.74969  -0.73866  -0.73377  -0.72502  -0.72098
 Alpha  occ. eigenvalues --   -0.72014  -0.71312  -0.70595  -0.70239  -0.69452
 Alpha  occ. eigenvalues --   -0.68746  -0.68488  -0.68167  -0.68016  -0.67688
 Alpha  occ. eigenvalues --   -0.66869  -0.66561  -0.65931  -0.65051  -0.64751
 Alpha  occ. eigenvalues --   -0.64501  -0.63348  -0.63149  -0.62643  -0.60912
 Alpha  occ. eigenvalues --   -0.60015  -0.59925  -0.59480  -0.59131  -0.58704
 Alpha  occ. eigenvalues --   -0.58507  -0.58264  -0.58017  -0.57619  -0.57439
 Alpha  occ. eigenvalues --   -0.57436  -0.57044  -0.56617  -0.56367  -0.56166
 Alpha  occ. eigenvalues --   -0.55833  -0.55369  -0.54934  -0.54480  -0.54273
 Alpha  occ. eigenvalues --   -0.53831  -0.53531  -0.53435  -0.52973  -0.52777
 Alpha  occ. eigenvalues --   -0.52392  -0.52120  -0.51937  -0.51749  -0.51597
 Alpha  occ. eigenvalues --   -0.51291  -0.50840  -0.50300  -0.50192  -0.50058
 Alpha  occ. eigenvalues --   -0.49927  -0.49474  -0.49333  -0.49160  -0.48840
 Alpha  occ. eigenvalues --   -0.48733  -0.48592  -0.48409  -0.48288  -0.48031
 Alpha  occ. eigenvalues --   -0.47785  -0.47686  -0.47432  -0.47260  -0.47052
 Alpha  occ. eigenvalues --   -0.46969  -0.46670  -0.46236  -0.46003  -0.45576
 Alpha  occ. eigenvalues --   -0.45118  -0.44946  -0.44634  -0.44440  -0.44298
 Alpha  occ. eigenvalues --   -0.43977  -0.43863  -0.43586  -0.43135  -0.42988
 Alpha  occ. eigenvalues --   -0.42877  -0.42715  -0.41734  -0.41619  -0.41505
 Alpha  occ. eigenvalues --   -0.41358  -0.41233  -0.41033  -0.40460  -0.40107
 Alpha  occ. eigenvalues --   -0.39175  -0.38409  -0.38388  -0.37478  -0.37402
 Alpha  occ. eigenvalues --   -0.36622  -0.36409  -0.36235  -0.35744  -0.35639
 Alpha  occ. eigenvalues --   -0.35272  -0.34631  -0.33950  -0.32770  -0.32301
 Alpha  occ. eigenvalues --   -0.32086  -0.32066  -0.31600  -0.31283  -0.30850
 Alpha  occ. eigenvalues --   -0.30072
 Alpha virt. eigenvalues --   -0.11073  -0.09136  -0.08602  -0.07865  -0.07768
 Alpha virt. eigenvalues --   -0.07623  -0.07386  -0.07265  -0.07016  -0.06579
 Alpha virt. eigenvalues --   -0.04113  -0.03741  -0.03567  -0.02629  -0.02315

 Mulliken charges:
               1
     1  N   -0.756103
     2  H    0.427812
     3  H    0.420315
     4  H    0.402589
     5  C   -0.135485
     6  H    0.228444
     7  C    0.646196
     8  C    0.051329
     9  H    0.222385
    10  O   -0.553546
    11  C   -0.457633
    12  H    0.147680
    13  H    0.199198
    14  H    0.138405
    15  O   -0.664853
    16  H    0.462437
    17  N   -0.593511
    18  H    0.414251
    19  C   -0.093278
    20  H    0.222594
    21  C    0.640355
    22  C   -0.420339
    23  H    0.176509
    24  H    0.172213
    25  O   -0.559888
    26  C    0.178391
    27  C   -0.183594
    28  H    0.144667
    29  C   -0.171102
    30  H    0.146819
    31  C   -0.145597
    32  H    0.140679
    33  C   -0.172071
    34  H    0.152977
    35  C   -0.136709
    36  H    0.161889
    37  N   -0.584216
    38  H    0.350991
    39  C   -0.090320
    40  H    0.199200
    41  C    0.608817
    42  C   -0.446081
    43  H    0.183239
    44  H    0.167081
    45  H    0.161170
    46  O   -0.501704
    47  N   -0.649085
    48  H    0.369448
    49  C   -0.004522
    50  H    0.192055
    51  C    0.595930
    52  C   -0.270894
    53  H    0.137932
    54  H    0.191349
    55  O   -0.596334
    56  C   -0.414587
    57  H    0.165378
    58  H    0.211622
    59  C    0.610243
    60  O   -0.629092
    61  O   -0.602472
    62  N   -0.607663
    63  H    0.417949
    64  C   -0.050547
    65  H    0.162590
    66  C    0.643907
    67  C   -0.494995
    68  H    0.162162
    69  H    0.187728
    70  H    0.185660
    71  O   -0.524447
    72  N   -0.628681
    73  H    0.340446
    74  C   -0.049382
    75  H    0.180968
    76  C    0.622038
    77  C   -0.305054
    78  H    0.104405
    79  H    0.183602
    80  O   -0.541127
    81  C   -0.079260
    82  H    0.151290
    83  C   -0.460519
    84  H    0.092232
    85  H    0.168617
    86  H    0.167861
    87  C   -0.445374
    88  H    0.128426
    89  H    0.158852
    90  H    0.164341
    91  N   -0.596338
    92  H    0.375807
    93  C   -0.067209
    94  H    0.210876
    95  C    0.590539
    96  C   -0.276518
    97  H    0.170243
    98  H    0.176852
    99  O   -0.457274
   100  C   -0.326411
   101  H    0.172956
   102  H    0.185557
   103  C   -0.150159
   104  H    0.162366
   105  H    0.164881
   106  N   -0.629818
   107  H    0.426180
   108  N   -0.762652
   109  H    0.368021
   110  H    0.371299
   111  N   -0.769430
   112  H    0.415422
   113  H    0.350533
   114  C    0.782109
   115  O   -0.559531
   116  H    0.426102
 Sum of Mulliken charges =   1.00000

 Dipole moment (field-independent basis, Debye):
    X=              9.0315    Y=             -2.0384    Z=              2.0460  Tot=              9.4820
 Quadrupole moment (field-independent basis, Debye-Ang):
   XX=           -273.0930   YY=           -213.9635   ZZ=           -293.6134
   XY=             53.1072   XZ=             23.0394   YZ=             44.5901

 Normal termination of Gaussian 16 at Sat Jul 16 02:10:32 2022.
