 Gaussian 16, Revision C.01,
 Gaussian 16:  ES64L-G16RevC.01  3-Jul-2019

 ----------------------------------------------------------------------
 # B3LYP/6-31G* empiricaldispersion=gd3bj guess=read geom=check nosymm
 integral(ultrafinegrid)
 ----------------------------------------------------------------------

 ------------------------------------------------------
 Candidate Structure: Conf:535 Charge calc in gas phase
 ------------------------------------------------------
 Structure from the checkpoint file:  "conf-535.chk"
 Charge =  1 Multiplicity = 1

                          Input orientation:
 ---------------------------------------------------------------------
 Center     Atomic      Atomic             Coordinates (Angstroms)
 Number     Number       Type             X           Y           Z
 ---------------------------------------------------------------------
      1          7           0       -2.167030   -1.305606   -4.100151
      2          1           0       -3.031157   -1.853725   -4.119568
      3          1           0       -2.396395   -0.321630   -3.801553
      4          1           0       -1.739954   -1.328113   -5.032967
      5          6           0       -1.188190   -1.759632   -3.040601
      6          1           0       -1.434821   -2.784831   -2.755906
      7          6           0       -1.379105   -0.735318   -1.903843
      8          6           0        0.248931   -1.616412   -3.556046
      9          1           0        0.914055   -1.885235   -2.729415
     10          1           0        0.449730   -0.559052   -3.760040
     11          8           0       -1.984837    0.311569   -2.154331
     12          6           0        0.641618   -2.421316   -4.795683
     13          1           0        0.522537   -3.498413   -4.650001
     14          1           0        0.056968   -2.122623   -5.681155
     15          6           0        2.135465   -2.093046   -5.073387
     16          8           0        2.946311   -3.015261   -5.189576
     17          8           0        2.379332   -0.830276   -5.078696
     18          7           0       -0.768968   -1.038955   -0.749048
     19          1           0       -0.156945   -1.850240   -0.761618
     20          6           0       -0.277742   -0.008569    0.172132
     21          1           0       -0.787817    0.922029   -0.081877
     22          6           0        1.234947    0.097560   -0.115588
     23          6           0       -0.572327   -0.420146    1.627083
     24          1           0       -0.077028   -1.382154    1.814076
     25          1           0       -1.652465   -0.601456    1.692163
     26          8           0        1.838511   -0.864687   -0.592687
     27          6           0       -0.157032    0.585926    2.714805
     28          1           0        0.928324    0.733763    2.668457
     29          6           0       -0.837843    1.950340    2.538412
     30          1           0       -1.929773    1.850248    2.571946
     31          1           0       -0.538141    2.634292    3.338163
     32          1           0       -0.589686    2.440141    1.587215
     33          6           0       -0.483345    0.002120    4.095518
     34          1           0       -1.562796   -0.155538    4.211124
     35          1           0        0.016313   -0.960805    4.249561
     36          1           0       -0.157042    0.680948    4.889824
     37          7           0        1.829163    1.284547    0.160744
     38          1           0        1.323542    1.960192    0.721778
     39          6           0        3.275878    1.430401    0.127238
     40          1           0        3.683239    0.467103   -0.187279
     41          6           0        3.768952    1.739262    1.535826
     42          6           0        3.745809    2.540443   -0.839231
     43          1           0        4.840916    2.538653   -0.827730
     44          1           0        3.434691    3.513999   -0.440296
     45          8           0        3.054499    2.067031    2.457070
     46          6           0        3.204826    2.407138   -2.267553
     47          1           0        2.111553    2.468244   -2.246193
     48          1           0        3.545535    3.275547   -2.846978
     49          6           0        3.564674    1.126841   -3.018878
     50          1           0        3.098154    1.147051   -4.007789
     51          1           0        3.175127    0.241954   -2.506340
     52          7           0        5.022354    0.975069   -3.137711
     53          1           0        5.588638    1.807326   -3.038177
     54          7           0        4.878174   -0.916701   -4.472394
     55          1           0        5.266014   -1.802999   -4.772264
     56          1           0        3.824600   -0.789186   -4.755508
     57          7           0        6.957965   -0.135303   -3.736923
     58          1           0        7.420368   -0.877985   -4.241754
     59          1           0        7.426080    0.185893   -2.901138
     60          6           0        5.598940   -0.056108   -3.798448
     61          8           0        5.108485    1.646149    1.618484
     62          1           0        5.359640    1.888899    2.530873
 ---------------------------------------------------------------------

 SCF Done:  E(RB3LYP) =  -1447.52241059     A.U. after    2 cycles

 Alpha  occ. eigenvalues --  -19.30187 -19.26693 -19.24665 -19.23488 -19.16396
 Alpha  occ. eigenvalues --  -19.15262 -14.59421 -14.49122 -14.47785 -14.47754
 Alpha  occ. eigenvalues --  -14.47614 -14.44428 -10.43239 -10.43072 -10.42624
 Alpha  occ. eigenvalues --  -10.40436 -10.39467 -10.34862 -10.34545 -10.34142
 Alpha  occ. eigenvalues --  -10.31867 -10.30838 -10.30107 -10.29530 -10.28687
 Alpha  occ. eigenvalues --  -10.27851 -10.27657 -10.26098 -10.25011  -1.21196
 Alpha  occ. eigenvalues --   -1.18991  -1.15480  -1.13450  -1.12312  -1.11806
 Alpha  occ. eigenvalues --   -1.09352  -1.06219  -1.04207  -1.01700  -1.00637
 Alpha  occ. eigenvalues --   -0.98901  -0.93145  -0.91362  -0.90149  -0.86375
 Alpha  occ. eigenvalues --   -0.85229  -0.82885  -0.79089  -0.76852  -0.75509
 Alpha  occ. eigenvalues --   -0.74436  -0.73884  -0.73482  -0.73196  -0.71743
 Alpha  occ. eigenvalues --   -0.71467  -0.70326  -0.69719  -0.68251  -0.66240
 Alpha  occ. eigenvalues --   -0.65611  -0.65105  -0.62618  -0.61617  -0.61314
 Alpha  occ. eigenvalues --   -0.59898  -0.59790  -0.59059  -0.58755  -0.58136
 Alpha  occ. eigenvalues --   -0.57645  -0.56919  -0.56404  -0.55925  -0.54917
 Alpha  occ. eigenvalues --   -0.54801  -0.54595  -0.53499  -0.52950  -0.52627
 Alpha  occ. eigenvalues --   -0.52372  -0.51569  -0.50891  -0.50679  -0.49879
 Alpha  occ. eigenvalues --   -0.49353  -0.49111  -0.48657  -0.47741  -0.47199
 Alpha  occ. eigenvalues --   -0.46532  -0.46353  -0.45942  -0.45393  -0.45187
 Alpha  occ. eigenvalues --   -0.44430  -0.44348  -0.42848  -0.42473  -0.42385
 Alpha  occ. eigenvalues --   -0.41591  -0.41046  -0.40806  -0.39186  -0.38453
 Alpha  occ. eigenvalues --   -0.38281  -0.37396  -0.36765  -0.36367  -0.31913
 Alpha  occ. eigenvalues --   -0.31461  -0.29385
 Alpha virt. eigenvalues --   -0.12075  -0.10322  -0.09570  -0.09382  -0.08274
 Alpha virt. eigenvalues --   -0.05448  -0.04584  -0.03409  -0.02689  -0.01942
 Alpha virt. eigenvalues --   -0.01712  -0.01231  -0.00608  -0.00031   0.00560

 Mulliken charges:
               1
     1  N   -0.747118
     2  H    0.415346
     3  H    0.427087
     4  H    0.415283
     5  C   -0.125059
     6  H    0.209977
     7  C    0.637656
     8  C   -0.323222
     9  H    0.212577
    10  H    0.192288
    11  O   -0.526858
    12  C   -0.361769
    13  H    0.167472
    14  H    0.130684
    15  C    0.600176
    16  O   -0.546534
    17  O   -0.640262
    18  N   -0.564783
    19  H    0.360156
    20  C   -0.116894
    21  H    0.201236
    22  C    0.627464
    23  C   -0.253070
    24  H    0.151214
    25  H    0.162578
    26  O   -0.532546
    27  C   -0.112608
    28  H    0.158754
    29  C   -0.457851
    30  H    0.157421
    31  H    0.173907
    32  H    0.121318
    33  C   -0.446468
    34  H    0.149830
    35  H    0.150542
    36  H    0.162853
    37  N   -0.593009
    38  H    0.363121
    39  C   -0.068585
    40  H    0.218093
    41  C    0.594481
    42  C   -0.278459
    43  H    0.163319
    44  H    0.163944
    45  O   -0.451452
    46  C   -0.313768
    47  H    0.166768
    48  H    0.162106
    49  C   -0.151922
    50  H    0.209338
    51  H    0.198236
    52  N   -0.622147
    53  H    0.347033
    54  N   -0.782561
    55  H    0.359420
    56  H    0.465890
    57  N   -0.762622
    58  H    0.366275
    59  H    0.360385
    60  C    0.784477
    61  O   -0.559769
    62  H    0.430633
 Sum of Mulliken charges =   1.00000

 Dipole moment (field-independent basis, Debye):
    X=              6.4518    Y=              0.7236    Z=             -8.8398  Tot=             10.9677
 Quadrupole moment (field-independent basis, Debye-Ang):
   XX=            -53.9924   YY=           -160.6185   ZZ=           -131.2189
   XY=             34.1028   XZ=              7.6843   YZ=              4.2554

 Normal termination of Gaussian 16 at Thu Jun 23 05:40:34 2022.
