 Gaussian 16, Revision C.01,
 Gaussian 16:  ES64L-G16RevC.01  3-Jul-2019

 ----------------------------------------------------------------------
 # B3LYP/6-31G* empiricaldispersion=gd3bj guess=read geom=check nosymm
 integral(ultrafinegrid)
 ----------------------------------------------------------------------

 ------------------------------------------------------
 Candidate Structure: Conf:474 Charge calc in gas phase
 ------------------------------------------------------
 Structure from the checkpoint file:  "conf-474.chk"
 Charge =  1 Multiplicity = 1

                          Input orientation:
 ---------------------------------------------------------------------
 Center     Atomic      Atomic             Coordinates (Angstroms)
 Number     Number       Type             X           Y           Z
 ---------------------------------------------------------------------
      1          7           0       -3.408623   -0.579530   -3.875213
      2          1           0       -4.122429   -1.290458   -4.043877
      3          1           0       -3.591442   -0.022302   -2.983826
      4          1           0       -3.382782    0.065102   -4.672036
      5          6           0       -2.029597   -1.146716   -3.593992
      6          1           0       -2.196652   -2.149569   -3.188567
      7          6           0       -1.556787   -0.258844   -2.406756
      8          6           0       -1.187545   -1.229880   -4.867032
      9          1           0       -1.728306   -1.869500   -5.575862
     10          1           0       -0.256013   -1.750244   -4.624256
     11          8           0       -2.439428    0.393515   -1.815095
     12          6           0       -0.815114    0.116776   -5.493904
     13          1           0       -0.664755   -0.016766   -6.571029
     14          1           0       -1.601650    0.880380   -5.406565
     15          6           0        0.498948    0.729408   -4.937822
     16          8           0        0.666882    1.941938   -5.242072
     17          8           0        1.265274   -0.017760   -4.282390
     18          7           0       -0.281048   -0.333950   -2.067379
     19          1           0        0.401924   -0.637788   -2.777359
     20          6           0        0.266761    0.427140   -0.940634
     21          1           0       -0.025254    1.476490   -1.052756
     22          6           0        1.786027    0.262105   -0.998183
     23          6           0       -0.249538   -0.130249    0.404193
     24          1           0        0.064543   -1.178970    0.457380
     25          1           0       -1.344014   -0.110060    0.374437
     26          8           0        2.292691   -0.819208   -1.269029
     27          6           0        0.232394    0.623917    1.656167
     28          1           0        1.330704    0.623622    1.669209
     29          6           0       -0.243356    2.082409    1.681664
     30          1           0       -1.338619    2.132902    1.649166
     31          1           0        0.093672    2.581338    2.595472
     32          1           0        0.139004    2.671515    0.840209
     33          6           0       -0.246223   -0.118073    2.910527
     34          1           0       -1.342148   -0.145646    2.953208
     35          1           0        0.117150   -1.151670    2.925925
     36          1           0        0.110000    0.379697    3.818580
     37          7           0        2.510058    1.374259   -0.684677
     38          1           0        2.025755    2.171790   -0.285802
     39          6           0        3.902650    1.253114   -0.275128
     40          1           0        4.076048    0.209042    0.008832
     41          6           0        4.084857    2.128625    0.957205
     42          6           0        4.926451    1.624915   -1.369527
     43          1           0        5.920886    1.463243   -0.943503
     44          1           0        4.847581    2.697565   -1.590847
     45          8           0        3.239173    2.882942    1.391132
     46          6           0        4.758481    0.802208   -2.661340
     47          1           0        5.744740    0.615820   -3.108715
     48          1           0        4.331673   -0.177761   -2.431091
     49          6           0        3.858398    1.461577   -3.703930
     50          1           0        2.908794    1.761299   -3.262692
     51          1           0        3.619604    0.766965   -4.512555
     52          7           0        4.512411    2.668040   -4.236234
     53          1           0        5.509260    2.611102   -4.402064
     54          7           0        2.562057    3.694218   -4.972373
     55          1           0        2.119080    4.548149   -5.283946
     56          1           0        1.920705    2.831113   -4.986198
     57          7           0        4.623552    4.760249   -5.203448
     58          1           0        4.177521    5.542918   -5.658345
     59          1           0        5.494676    4.958989   -4.732841
     60          6           0        3.872297    3.698248   -4.803956
     61          8           0        5.305284    1.983658    1.498354
     62          1           0        5.350834    2.576398    2.273212
 ---------------------------------------------------------------------

 SCF Done:  E(RB3LYP) =  -1447.53765154     A.U. after    2 cycles

 Alpha  occ. eigenvalues --  -19.29165 -19.24625 -19.23743 -19.20656 -19.17663
 Alpha  occ. eigenvalues --  -19.17366 -14.57775 -14.48928 -14.48456 -14.46429
 Alpha  occ. eigenvalues --  -14.46227 -14.45047 -10.44348 -10.41616 -10.41079
 Alpha  occ. eigenvalues --  -10.38492 -10.37765 -10.35799 -10.32973 -10.32572
 Alpha  occ. eigenvalues --  -10.30956 -10.30760 -10.28325 -10.28288 -10.27570
 Alpha  occ. eigenvalues --  -10.26467 -10.26391 -10.24403 -10.23927  -1.20261
 Alpha  occ. eigenvalues --   -1.17043  -1.12986  -1.12926  -1.11636  -1.11304
 Alpha  occ. eigenvalues --   -1.10811  -1.03796  -1.02590  -1.02197  -1.01840
 Alpha  occ. eigenvalues --   -1.00377  -0.91827  -0.89828  -0.88592  -0.85215
 Alpha  occ. eigenvalues --   -0.84150  -0.81937  -0.78160  -0.75412  -0.75102
 Alpha  occ. eigenvalues --   -0.74493  -0.74298  -0.72345  -0.71581  -0.70797
 Alpha  occ. eigenvalues --   -0.69702  -0.69030  -0.67542  -0.67035  -0.66396
 Alpha  occ. eigenvalues --   -0.64756  -0.63347  -0.62616  -0.61163  -0.60197
 Alpha  occ. eigenvalues --   -0.59649  -0.59179  -0.58268  -0.58018  -0.57578
 Alpha  occ. eigenvalues --   -0.56490  -0.56418  -0.55922  -0.54849  -0.54203
 Alpha  occ. eigenvalues --   -0.53851  -0.52986  -0.52872  -0.51978  -0.51651
 Alpha  occ. eigenvalues --   -0.50537  -0.50519  -0.50074  -0.49711  -0.49172
 Alpha  occ. eigenvalues --   -0.48931  -0.47972  -0.47515  -0.47232  -0.46532
 Alpha  occ. eigenvalues --   -0.45478  -0.45464  -0.44907  -0.44281  -0.43883
 Alpha  occ. eigenvalues --   -0.43671  -0.43512  -0.43260  -0.41329  -0.40862
 Alpha  occ. eigenvalues --   -0.40165  -0.39986  -0.39491  -0.38738  -0.37597
 Alpha  occ. eigenvalues --   -0.36924  -0.36557  -0.34793  -0.34263  -0.33072
 Alpha  occ. eigenvalues --   -0.32544  -0.31755
 Alpha virt. eigenvalues --   -0.11038  -0.08880  -0.08623  -0.08461  -0.06933
 Alpha virt. eigenvalues --   -0.05622  -0.04570  -0.02723  -0.01704  -0.01483
 Alpha virt. eigenvalues --   -0.01223  -0.00630  -0.00224   0.01229   0.01915

 Mulliken charges:
               1
     1  N   -0.753254
     2  H    0.408866
     3  H    0.430586
     4  H    0.406212
     5  C   -0.116517
     6  H    0.225506
     7  C    0.645845
     8  C   -0.301912
     9  H    0.157530
    10  H    0.219031
    11  O   -0.564396
    12  C   -0.381788
    13  H    0.192742
    14  H    0.132029
    15  C    0.609156
    16  O   -0.604816
    17  O   -0.584069
    18  N   -0.622134
    19  H    0.413355
    20  C   -0.022540
    21  H    0.170968
    22  C    0.598813
    23  C   -0.271452
    24  H    0.161379
    25  H    0.168838
    26  O   -0.517033
    27  C   -0.093521
    28  H    0.129253
    29  C   -0.444768
    30  H    0.151336
    31  H    0.165028
    32  H    0.127651
    33  C   -0.445471
    34  H    0.147125
    35  H    0.149901
    36  H    0.155114
    37  N   -0.614410
    38  H    0.362391
    39  C   -0.054139
    40  H    0.211056
    41  C    0.589005
    42  C   -0.269713
    43  H    0.177148
    44  H    0.138504
    45  O   -0.467280
    46  C   -0.322633
    47  H    0.141535
    48  H    0.214500
    49  C   -0.136375
    50  H    0.195522
    51  H    0.205748
    52  N   -0.607797
    53  H    0.347420
    54  N   -0.785473
    55  H    0.348670
    56  H    0.452636
    57  N   -0.765914
    58  H    0.366272
    59  H    0.365249
    60  C    0.792553
    61  O   -0.555726
    62  H    0.428657
 Sum of Mulliken charges =   1.00000

 Dipole moment (field-independent basis, Debye):
    X=              3.8094    Y=              8.4302    Z=            -17.3934  Tot=             19.7005
 Quadrupole moment (field-independent basis, Debye-Ang):
   XX=            -62.2654   YY=           -115.2038   ZZ=            -78.2976
   XY=             68.5448   XZ=              1.0193   YZ=            -35.2280

 Normal termination of Gaussian 16 at Thu Jun 23 05:40:36 2022.
