 Gaussian 16, Revision C.01,
 Gaussian 16:  ES64L-G16RevC.01  3-Jul-2019

 ----------------------------------------------------------------------
 # B3LYP/6-31G* empiricaldispersion=gd3bj guess=read geom=check nosymm
 integral(ultrafinegrid)
 ----------------------------------------------------------------------

 -----------------------------------------------------
 Candidate Structure: Conf:18 Charge calc in gas phase
 -----------------------------------------------------
 Structure from the checkpoint file:  "conf-18.chk"
 Charge =  1 Multiplicity = 1

                          Input orientation:
 ---------------------------------------------------------------------
 Center     Atomic      Atomic             Coordinates (Angstroms)
 Number     Number       Type             X           Y           Z
 ---------------------------------------------------------------------
      1          7           0       -1.382889    0.056561   -4.328755
      2          1           0       -2.069518   -0.653415   -4.598352
      3          1           0       -1.855282    0.764201   -3.695287
      4          1           0       -1.013889    0.499737   -5.174447
      5          6           0       -0.281348   -0.480784   -3.431318
      6          1           0       -0.240137   -1.565372   -3.553666
      7          6           0       -0.766118   -0.047288   -2.027730
      8          6           0        1.062147    0.184212   -3.792439
      9          1           0        1.082094    1.211135   -3.412345
     10          1           0        1.136230    0.235023   -4.888498
     11          8           0       -1.626291    0.844907   -1.972955
     12          6           0        2.292451   -0.559131   -3.263833
     13          1           0        2.213300   -0.741050   -2.187589
     14          1           0        2.428483   -1.513458   -3.779946
     15          6           0        3.565476    0.301994   -3.429160
     16          8           0        3.467178    1.488462   -2.945469
     17          8           0        4.557764   -0.208240   -3.971480
     18          7           0       -0.188911   -0.632589   -0.979390
     19          1           0        0.609442   -1.241153   -1.141849
     20          6           0       -0.162111   -0.019223    0.356066
     21          1           0       -0.808671    0.858161    0.318563
     22          6           0        1.308796    0.382816    0.553391
     23          6           0       -0.622487   -0.996956    1.445288
     24          1           0       -0.552817   -0.475023    2.409237
     25          1           0        0.094865   -1.826400    1.487283
     26          8           0        2.202934   -0.339038    0.109037
     27          6           0       -2.047471   -1.543710    1.257634
     28          1           0       -2.071865   -2.084513    0.300485
     29          6           0       -2.364355   -2.544137    2.376095
     30          1           0       -2.364080   -2.048460    3.354661
     31          1           0       -3.353088   -2.991824    2.231031
     32          1           0       -1.628008   -3.355024    2.410791
     33          6           0       -3.098135   -0.426745    1.203802
     34          1           0       -3.059358    0.189176    2.111502
     35          1           0       -2.963264    0.230991    0.338520
     36          1           0       -4.105558   -0.851429    1.139295
     37          7           0        1.538487    1.542294    1.195933
     38          1           0        0.789733    2.098544    1.591661
     39          6           0        2.884860    2.080853    1.311406
     40          1           0        3.576378    1.248322    1.467002
     41          6           0        2.889549    2.997764    2.520789
     42          6           0        3.282813    2.846259    0.021846
     43          1           0        2.805708    3.835864    0.037186
     44          1           0        2.874279    2.294426   -0.830263
     45          8           0        1.887069    3.440298    3.038894
     46          6           0        4.793305    2.963902   -0.196377
     47          1           0        5.304119    3.318448    0.705538
     48          1           0        5.183575    1.966237   -0.427967
     49          6           0        5.096679    3.907700   -1.368576
     50          1           0        4.939140    4.951154   -1.080456
     51          1           0        4.425496    3.704373   -2.205973
     52          7           0        6.477174    3.803454   -1.856220
     53          1           0        7.190528    4.223003   -1.274906
     54          7           0        6.018954    1.995122   -3.231304
     55          1           0        6.288675    1.192185   -3.791599
     56          1           0        4.965369    1.950712   -3.035537
     57          7           0        8.226603    2.623852   -2.828541
     58          1           0        8.527200    2.001500   -3.565973
     59          1           0        8.835617    3.415775   -2.674837
     60          6           0        6.885146    2.790402   -2.653931
     61          8           0        4.136219    3.303877    2.924663
     62          1           0        4.047542    3.920344    3.677520
 ---------------------------------------------------------------------

 SCF Done:  E(RB3LYP) =  -1447.52737553     A.U. after    2 cycles

 Alpha  occ. eigenvalues --  -19.29326 -19.26453 -19.23628 -19.21520 -19.16346
 Alpha  occ. eigenvalues --  -19.15143 -14.59336 -14.49046 -14.47716 -14.47705
 Alpha  occ. eigenvalues --  -14.46051 -14.44003 -10.43095 -10.43025 -10.41628
 Alpha  occ. eigenvalues --  -10.39660 -10.38694 -10.33956 -10.33869 -10.33156
 Alpha  occ. eigenvalues --  -10.32062 -10.31429 -10.27898 -10.27597 -10.27469
 Alpha  occ. eigenvalues --  -10.27225 -10.26646 -10.24888 -10.24569  -1.20281
 Alpha  occ. eigenvalues --   -1.18859  -1.13873  -1.13130  -1.11820  -1.11336
 Alpha  occ. eigenvalues --   -1.09020  -1.05811  -1.02632  -1.01693  -1.00178
 Alpha  occ. eigenvalues --   -0.98866  -0.92798  -0.90253  -0.89189  -0.85703
 Alpha  occ. eigenvalues --   -0.84160  -0.82326  -0.78213  -0.76073  -0.75622
 Alpha  occ. eigenvalues --   -0.74632  -0.73518  -0.73409  -0.72529  -0.70807
 Alpha  occ. eigenvalues --   -0.69941  -0.69434  -0.68744  -0.67904  -0.66310
 Alpha  occ. eigenvalues --   -0.65951  -0.63814  -0.62650  -0.61214  -0.60866
 Alpha  occ. eigenvalues --   -0.58911  -0.58459  -0.58212  -0.57598  -0.57463
 Alpha  occ. eigenvalues --   -0.56954  -0.56057  -0.55671  -0.55218  -0.54891
 Alpha  occ. eigenvalues --   -0.53834  -0.53441  -0.53043  -0.52547  -0.52446
 Alpha  occ. eigenvalues --   -0.51431  -0.50819  -0.50085  -0.49405  -0.49179
 Alpha  occ. eigenvalues --   -0.48482  -0.47894  -0.47733  -0.47307  -0.46901
 Alpha  occ. eigenvalues --   -0.46467  -0.45872  -0.45687  -0.44513  -0.44368
 Alpha  occ. eigenvalues --   -0.43703  -0.42422  -0.42276  -0.41206  -0.41162
 Alpha  occ. eigenvalues --   -0.41025  -0.40752  -0.40350  -0.39071  -0.38073
 Alpha  occ. eigenvalues --   -0.37397  -0.36363  -0.35282  -0.34843  -0.31646
 Alpha  occ. eigenvalues --   -0.31287  -0.29395
 Alpha virt. eigenvalues --   -0.11871  -0.10344  -0.08553  -0.07555  -0.07325
 Alpha virt. eigenvalues --   -0.05897  -0.04624  -0.03498  -0.01710  -0.01321
 Alpha virt. eigenvalues --   -0.01024  -0.00472   0.00061   0.00797   0.01384

 Mulliken charges:
               1
     1  N   -0.753459
     2  H    0.414162
     3  H    0.430883
     4  H    0.412308
     5  C   -0.111569
     6  H    0.210762
     7  C    0.645927
     8  C   -0.303079
     9  H    0.203770
    10  H    0.161216
    11  O   -0.539368
    12  C   -0.379886
    13  H    0.190001
    14  H    0.159792
    15  C    0.601487
    16  O   -0.637504
    17  O   -0.566854
    18  N   -0.569197
    19  H    0.367589
    20  C   -0.107422
    21  H    0.193539
    22  C    0.648025
    23  C   -0.265042
    24  H    0.156350
    25  H    0.159800
    26  O   -0.534193
    27  C   -0.069763
    28  H    0.121927
    29  C   -0.445778
    30  H    0.152302
    31  H    0.156229
    32  H    0.149686
    33  C   -0.469057
    34  H    0.148529
    35  H    0.156528
    36  H    0.157887
    37  N   -0.616334
    38  H    0.358121
    39  C   -0.034617
    40  H    0.207611
    41  C    0.586309
    42  C   -0.302219
    43  H    0.143472
    44  H    0.216359
    45  O   -0.460637
    46  C   -0.274015
    47  H    0.160124
    48  H    0.170999
    49  C   -0.184205
    50  H    0.171003
    51  H    0.210913
    52  N   -0.596857
    53  H    0.345088
    54  N   -0.799932
    55  H    0.367134
    56  H    0.456029
    57  N   -0.760375
    58  H    0.367990
    59  H    0.359565
    60  C    0.794719
    61  O   -0.559859
    62  H    0.427082
 Sum of Mulliken charges =   1.00000

 Dipole moment (field-independent basis, Debye):
    X=              9.3383    Y=              7.3485    Z=            -11.4962  Tot=             16.5338
 Quadrupole moment (field-independent basis, Debye-Ang):
   XX=            -41.1926   YY=           -133.7429   ZZ=           -101.0281
   XY=             74.0051   XZ=              1.8122   YZ=             -4.7028

 Normal termination of Gaussian 16 at Thu Jun 23 05:40:17 2022.
