 Gaussian 16, Revision C.01,
 Gaussian 16:  ES64L-G16RevC.01  3-Jul-2019

 ----------------------------------------------------------------------
 # B3LYP/6-31G* empiricaldispersion=gd3bj guess=read geom=check nosymm
 integral(ultrafinegrid)
 ----------------------------------------------------------------------

 ------------------------------------------------------
 Candidate Structure: Conf:962 Charge calc in gas phase
 ------------------------------------------------------
 Structure from the checkpoint file:  "conf-962.chk"
 Charge =  1 Multiplicity = 1

                          Input orientation:
 ---------------------------------------------------------------------
 Center     Atomic      Atomic             Coordinates (Angstroms)
 Number     Number       Type             X           Y           Z
 ---------------------------------------------------------------------
      1          7           0       -2.238201    0.694741   -4.217704
      2          1           0       -2.579024    0.364922   -5.118175
      3          1           0       -3.030530    0.935929   -3.619925
      4          1           0       -1.211330    1.932762   -4.042030
      5          6           0       -1.451394   -0.346875   -3.532000
      6          1           0       -1.952468   -1.323912   -3.599735
      7          6           0       -1.427087    0.030579   -2.036419
      8          6           0       -0.070028   -0.493347   -4.196696
      9          1           0       -0.257838   -0.643403   -5.265706
     10          1           0        0.385005   -1.430763   -3.861112
     11          8           0       -2.269803    0.797063   -1.574125
     12          6           0        0.984217    0.639584   -4.012310
     13          1           0        1.827374    0.265518   -3.430124
     14          1           0        1.385047    0.918671   -4.994788
     15          6           0        0.627092    1.963937   -3.348249
     16          8           0       -0.513267    2.570681   -3.619089
     17          8           0        1.451974    2.528214   -2.626349
     18          7           0       -0.451863   -0.561446   -1.311580
     19          1           0        0.311971   -1.025917   -1.789511
     20          6           0       -0.099729   -0.137349    0.032918
     21          1           0       -0.688564    0.755358    0.257307
     22          6           0        1.394306    0.212685   -0.015921
     23          6           0       -0.361319   -1.231235    1.086474
     24          1           0       -0.012669   -0.863824    2.062081
     25          1           0        0.266037   -2.097403    0.838628
     26          8           0        2.132473   -0.246296   -0.887241
     27          6           0       -1.830308   -1.668841    1.202936
     28          1           0       -2.152796   -2.014267    0.210874
     29          6           0       -1.939393   -2.848425    2.177252
     30          1           0       -1.632126   -2.551151    3.187877
     31          1           0       -2.971257   -3.210071    2.237845
     32          1           0       -1.305325   -3.687020    1.867416
     33          6           0       -2.747000   -0.514778    1.628782
     34          1           0       -2.412834   -0.083007    2.581872
     35          1           0       -2.782693    0.278276    0.875921
     36          1           0       -3.771261   -0.874451    1.774304
     37          7           0        1.832650    1.035753    0.964462
     38          1           0        1.210695    1.296217    1.716735
     39          6           0        3.231447    1.432939    1.055859
     40          1           0        3.845397    0.540710    0.875304
     41          6           0        3.577383    1.921312    2.456519
     42          6           0        3.611993    2.483896   -0.002569
     43          1           0        3.454545    2.027894   -0.983197
     44          1           0        4.678240    2.702460    0.111812
     45          8           0        4.555092    2.581357    2.715199
     46          6           0        2.785566    3.765624    0.108438
     47          1           0        1.720794    3.509686    0.077121
     48          1           0        2.979579    4.262537    1.067439
     49          6           0        3.098750    4.735275   -1.032778
     50          1           0        2.958923    4.249523   -2.000885
     51          1           0        4.137546    5.072455   -0.989315
     52          7           0        2.268062    5.950941   -0.997187
     53          1           0        2.589180    6.702045   -0.401132
     54          7           0        0.401651    4.981210   -1.984729
     55          1           0       -0.521891    5.065441   -2.387043
     56          1           0        0.862466    4.063351   -2.147122
     57          7           0        0.303517    7.161869   -1.192882
     58          1           0       -0.621707    7.268057   -1.582803
     59          1           0        0.800176    8.021026   -1.005650
     60          6           0        0.992507    6.014607   -1.403893
     61          8           0        2.675981    1.529259    3.388153
     62          1           0        2.997618    1.862125    4.248258
 ---------------------------------------------------------------------

 SCF Done:  E(RB3LYP) =  -1447.56673436     A.U. after    1 cycles

 Alpha  occ. eigenvalues --  -19.29841 -19.27565 -19.24226 -19.23657 -19.21760
 Alpha  occ. eigenvalues --  -19.21711 -14.51230 -14.51092 -14.49137 -14.46253
 Alpha  occ. eigenvalues --  -14.45659 -14.45025 -10.47083 -10.42549 -10.42007
 Alpha  occ. eigenvalues --  -10.38883 -10.38557 -10.34337 -10.33974 -10.33821
 Alpha  occ. eigenvalues --  -10.32504 -10.30640 -10.30118 -10.29192 -10.28086
 Alpha  occ. eigenvalues --  -10.27147 -10.26231 -10.23911 -10.23823  -1.20574
 Alpha  occ. eigenvalues --   -1.19606  -1.15602  -1.14129  -1.13305  -1.11526
 Alpha  occ. eigenvalues --   -1.10876  -1.05066  -1.03301  -1.03026  -1.02515
 Alpha  occ. eigenvalues --   -1.01290  -0.90966  -0.89950  -0.88621  -0.86404
 Alpha  occ. eigenvalues --   -0.83741  -0.80961  -0.80185  -0.76906  -0.75231
 Alpha  occ. eigenvalues --   -0.74794  -0.73415  -0.73150  -0.72797  -0.70380
 Alpha  occ. eigenvalues --   -0.69511  -0.69005  -0.68035  -0.67573  -0.64937
 Alpha  occ. eigenvalues --   -0.64521  -0.63295  -0.63093  -0.62494  -0.61391
 Alpha  occ. eigenvalues --   -0.59606  -0.59322  -0.58906  -0.58335  -0.57794
 Alpha  occ. eigenvalues --   -0.57323  -0.57163  -0.56422  -0.56106  -0.55520
 Alpha  occ. eigenvalues --   -0.54585  -0.53785  -0.52934  -0.52610  -0.52421
 Alpha  occ. eigenvalues --   -0.51569  -0.51189  -0.50702  -0.50439  -0.49530
 Alpha  occ. eigenvalues --   -0.48912  -0.48658  -0.48219  -0.47687  -0.47487
 Alpha  occ. eigenvalues --   -0.46388  -0.46256  -0.45447  -0.45015  -0.44949
 Alpha  occ. eigenvalues --   -0.44423  -0.44088  -0.43384  -0.41742  -0.41567
 Alpha  occ. eigenvalues --   -0.41022  -0.40338  -0.39764  -0.39727  -0.39421
 Alpha  occ. eigenvalues --   -0.38748  -0.37679  -0.37514  -0.36174  -0.35874
 Alpha  occ. eigenvalues --   -0.35322  -0.34306
 Alpha virt. eigenvalues --   -0.10828  -0.10141  -0.09092  -0.07817  -0.07638
 Alpha virt. eigenvalues --   -0.07019  -0.03723  -0.03423  -0.02716  -0.02486
 Alpha virt. eigenvalues --   -0.00411   0.00338   0.00718   0.01252   0.02180

 Mulliken charges:
               1
     1  N   -0.783430
     2  H    0.340687
     3  H    0.363766
     4  H    0.468107
     5  C   -0.096957
     6  H    0.189407
     7  C    0.617174
     8  C   -0.304602
     9  H    0.169819
    10  H    0.178982
    11  O   -0.526167
    12  C   -0.388372
    13  H    0.223132
    14  H    0.198918
    15  C    0.615873
    16  O   -0.607986
    17  O   -0.520824
    18  N   -0.591204
    19  H    0.355714
    20  C   -0.093682
    21  H    0.183678
    22  C    0.647235
    23  C   -0.255959
    24  H    0.138842
    25  H    0.150890
    26  O   -0.540753
    27  C   -0.067651
    28  H    0.133007
    29  C   -0.445472
    30  H    0.145345
    31  H    0.155796
    32  H    0.146841
    33  C   -0.471330
    34  H    0.131704
    35  H    0.172657
    36  H    0.155949
    37  N   -0.621985
    38  H    0.355225
    39  C   -0.045616
    40  H    0.218609
    41  C    0.584433
    42  C   -0.280616
    43  H    0.199470
    44  H    0.174518
    45  O   -0.448154
    46  C   -0.274010
    47  H    0.152405
    48  H    0.154507
    49  C   -0.186412
    50  H    0.211344
    51  H    0.187576
    52  N   -0.597662
    53  H    0.357487
    54  N   -0.802784
    55  H    0.367521
    56  H    0.454028
    57  N   -0.763889
    58  H    0.374422
    59  H    0.373509
    60  C    0.813764
    61  O   -0.576360
    62  H    0.429536
 Sum of Mulliken charges =   1.00000

 Dipole moment (field-independent basis, Debye):
    X=              1.3108    Y=             17.5535    Z=             -7.4846  Tot=             19.1275
 Quadrupole moment (field-independent basis, Debye-Ang):
   XX=           -160.5614   YY=            -33.3021   ZZ=           -116.5495
   XY=             20.6994   XZ=             13.4112   YZ=            -16.6538

 Normal termination of Gaussian 16 at Thu Jun 23 05:40:25 2022.
