 Gaussian 16, Revision C.01,
 Gaussian 16:  ES64L-G16RevC.01  3-Jul-2019

 ----------------------------------------------------------------------
 # B3LYP/6-31G* empiricaldispersion=gd3bj guess=read geom=check nosymm
 integral(ultrafinegrid)
 ----------------------------------------------------------------------

 ------------------------------------------------------
 Candidate Structure: Conf:472 Charge calc in gas phase
 ------------------------------------------------------
 Structure from the checkpoint file:  "conf-472.chk"
 Charge =  1 Multiplicity = 1

                          Input orientation:
 ---------------------------------------------------------------------
 Center     Atomic      Atomic             Coordinates (Angstroms)
 Number     Number       Type             X           Y           Z
 ---------------------------------------------------------------------
      1          7           0       -1.915737    1.543931   -4.485452
      2          1           0       -2.903825    1.666403   -4.250377
      3          1           0       -1.331382    2.279609   -3.958122
      4          1           0       -1.808544    1.602376   -5.500630
      5          6           0       -1.320538    0.287222   -3.880638
      6          1           0       -2.128902   -0.397854   -3.626638
      7          6           0       -0.620175    0.816988   -2.604007
      8          6           0       -0.349939   -0.350312   -4.884567
      9          1           0        0.378738    0.407806   -5.199046
     10          1           0       -0.914733   -0.672298   -5.768808
     11          8           0       -0.360651    2.083326   -2.625500
     12          6           0        0.408949   -1.563405   -4.313966
     13          1           0        1.036198   -1.980668   -5.104487
     14          1           0        1.042067   -1.248524   -3.479844
     15          6           0       -0.559898   -2.668178   -3.872727
     16          8           0       -1.099661   -2.514363   -2.655081
     17          8           0       -0.859667   -3.582102   -4.604574
     18          7           0       -0.393429   -0.075171   -1.700636
     19          1           0       -0.762002   -1.679730   -2.200257
     20          6           0        0.214129    0.336454   -0.448346
     21          1           0       -0.429317    1.085522    0.033242
     22          6           0        1.590177    0.976943   -0.636099
     23          6           0        0.359886   -0.885760    0.480183
     24          1           0        0.874079   -0.572528    1.398958
     25          1           0        1.015796   -1.608169   -0.021788
     26          8           0        2.375493    0.656910   -1.541865
     27          6           0       -0.968147   -1.565720    0.857102
     28          1           0       -1.465642   -1.881295   -0.067770
     29          6           0       -0.680319   -2.822269    1.687890
     30          1           0       -0.181741   -2.564847    2.631060
     31          1           0       -1.608696   -3.348094    1.934132
     32          1           0       -0.034274   -3.519719    1.143262
     33          6           0       -1.909363   -0.616623    1.608465
     34          1           0       -1.434049   -0.229880    2.519462
     35          1           0       -2.212533    0.239803    0.995183
     36          1           0       -2.823195   -1.139302    1.909726
     37          7           0        1.905752    1.888321    0.305530
     38          1           0        1.229614    2.121983    1.025692
     39          6           0        3.166611    2.603026    0.404033
     40          1           0        3.988844    1.898309    0.578976
     41          6           0        3.050474    3.500617    1.630366
     42          6           0        3.504267    3.418725   -0.864978
     43          1           0        3.719337    2.681421   -1.639766
     44          1           0        4.424693    3.979004   -0.677313
     45          8           0        2.041280    3.624634    2.289706
     46          6           0        2.371883    4.353605   -1.316914
     47          1           0        1.402042    3.949026   -1.005686
     48          1           0        2.466787    5.341677   -0.852835
     49          6           0        2.336884    4.528265   -2.840744
     50          1           0        3.301016    4.890845   -3.208551
     51          1           0        1.572920    5.255579   -3.131175
     52          7           0        2.033406    3.238931   -3.476133
     53          1           0        1.215937    2.734319   -3.089480
     54          7           0        3.846600    3.079725   -4.933600
     55          1           0        4.622187    2.541117   -5.289529
     56          1           0        3.826292    4.066180   -5.143910
     57          7           0        2.729179    1.169224   -4.197437
     58          1           0        3.302134    0.611672   -4.816202
     59          1           0        2.451308    0.744470   -3.297859
     60          6           0        2.881223    2.505434   -4.191198
     61          8           0        4.199106    4.147986    1.878718
     62          1           0        4.058961    4.697035    2.674290
 ---------------------------------------------------------------------

 SCF Done:  E(RB3LYP) =  -1447.53273494     A.U. after    1 cycles

 Alpha  occ. eigenvalues --  -19.30628 -19.25246 -19.23887 -19.23711 -19.23113
 Alpha  occ. eigenvalues --  -19.19058 -14.57634 -14.52237 -14.50063 -14.49896
 Alpha  occ. eigenvalues --  -14.46922 -14.41229 -10.47350 -10.43187 -10.39691
 Alpha  occ. eigenvalues --  -10.38316 -10.37948 -10.37325 -10.35791 -10.35158
 Alpha  occ. eigenvalues --  -10.32319 -10.31661 -10.30483 -10.30170 -10.29199
 Alpha  occ. eigenvalues --  -10.26514 -10.25714 -10.24108 -10.23337  -1.21774
 Alpha  occ. eigenvalues --   -1.16051  -1.15289  -1.14914  -1.14462  -1.12914
 Alpha  occ. eigenvalues --   -1.10468  -1.07005  -1.05287  -1.04193  -1.03550
 Alpha  occ. eigenvalues --   -0.99959  -0.92414  -0.91768  -0.88717  -0.87329
 Alpha  occ. eigenvalues --   -0.84086  -0.82002  -0.80566  -0.77603  -0.75914
 Alpha  occ. eigenvalues --   -0.74893  -0.74221  -0.73869  -0.72777  -0.71378
 Alpha  occ. eigenvalues --   -0.71220  -0.69802  -0.69567  -0.68090  -0.66656
 Alpha  occ. eigenvalues --   -0.65909  -0.65388  -0.64546  -0.62705  -0.62075
 Alpha  occ. eigenvalues --   -0.61465  -0.60742  -0.60262  -0.59861  -0.59051
 Alpha  occ. eigenvalues --   -0.58080  -0.57444  -0.56895  -0.56597  -0.55156
 Alpha  occ. eigenvalues --   -0.54924  -0.54446  -0.53785  -0.53169  -0.52640
 Alpha  occ. eigenvalues --   -0.51880  -0.51767  -0.51114  -0.50586  -0.49980
 Alpha  occ. eigenvalues --   -0.49653  -0.48937  -0.48523  -0.47829  -0.47400
 Alpha  occ. eigenvalues --   -0.46570  -0.46196  -0.45927  -0.45759  -0.45360
 Alpha  occ. eigenvalues --   -0.44709  -0.43369  -0.42972  -0.42819  -0.42739
 Alpha  occ. eigenvalues --   -0.40111  -0.39925  -0.39804  -0.39398  -0.39004
 Alpha  occ. eigenvalues --   -0.38801  -0.37511  -0.36952  -0.36804  -0.35414
 Alpha  occ. eigenvalues --   -0.34572  -0.32646
 Alpha virt. eigenvalues --   -0.12564  -0.10331  -0.09865  -0.08771  -0.08448
 Alpha virt. eigenvalues --   -0.07714  -0.05578  -0.04448  -0.04039  -0.02694
 Alpha virt. eigenvalues --   -0.01490  -0.01390  -0.00357   0.00254   0.00627

 Mulliken charges:
               1
     1  N   -0.759673
     2  H    0.410127
     3  H    0.412772
     4  H    0.398621
     5  C   -0.111866
     6  H    0.226401
     7  C    0.611890
     8  C   -0.301131
     9  H    0.152929
    10  H    0.182618
    11  O   -0.674823
    12  C   -0.382050
    13  H    0.181158
    14  H    0.177682
    15  C    0.577793
    16  O   -0.615340
    17  O   -0.443710
    18  N   -0.553948
    19  H    0.469087
    20  C   -0.061844
    21  H    0.152392
    22  C    0.648551
    23  C   -0.272997
    24  H    0.136944
    25  H    0.154046
    26  O   -0.594632
    27  C   -0.080544
    28  H    0.154236
    29  C   -0.444552
    30  H    0.142343
    31  H    0.156988
    32  H    0.151863
    33  C   -0.454792
    34  H    0.142702
    35  H    0.134904
    36  H    0.160824
    37  N   -0.621816
    38  H    0.370714
    39  C   -0.018399
    40  H    0.205215
    41  C    0.587148
    42  C   -0.296415
    43  H    0.171001
    44  H    0.180811
    45  O   -0.456174
    46  C   -0.292322
    47  H    0.181701
    48  H    0.173262
    49  C   -0.172266
    50  H    0.160450
    51  H    0.186203
    52  N   -0.612086
    53  H    0.426751
    54  N   -0.749191
    55  H    0.377530
    56  H    0.379926
    57  N   -0.789749
    58  H    0.356613
    59  H    0.447884
    60  C    0.744573
    61  O   -0.560363
    62  H    0.434031
 Sum of Mulliken charges =   1.00000

 Dipole moment (field-independent basis, Debye):
    X=              8.8305    Y=             17.7563    Z=            -17.4716  Tot=             26.4296
 Quadrupole moment (field-independent basis, Debye-Ang):
   XX=           -107.5401   YY=           -138.1118   ZZ=            -66.5886
   XY=             27.4486   XZ=            -20.8026   YZ=            -63.0193

 Normal termination of Gaussian 16 at Thu Jun 23 05:40:25 2022.
