 Gaussian 16, Revision C.01,
 Gaussian 16:  ES64L-G16RevC.01  3-Jul-2019

 ----------------------------------------------------------------------
 # B3LYP/6-31G* empiricaldispersion=gd3bj guess=read geom=check nosymm
 integral(ultrafinegrid)
 ----------------------------------------------------------------------

 ------------------------------------------------------
 Candidate Structure: Conf:684 Charge calc in gas phase
 ------------------------------------------------------
 Structure from the checkpoint file:  "conf-684.chk"
 Charge =  1 Multiplicity = 1

                          Input orientation:
 ---------------------------------------------------------------------
 Center     Atomic      Atomic             Coordinates (Angstroms)
 Number     Number       Type             X           Y           Z
 ---------------------------------------------------------------------
      1          7           0       -2.873557   -0.266595   -3.750287
      2          1           0       -3.394689   -1.140181   -3.866840
      3          1           0       -3.242977    0.238967   -2.892034
      4          1           0       -2.982108    0.300985   -4.594960
      5          6           0       -1.418641   -0.479354   -3.374564
      6          1           0       -1.121982   -1.481142   -3.692265
      7          6           0       -1.453396   -0.298464   -1.838819
      8          6           0       -0.549091    0.620305   -4.013387
      9          1           0       -0.703133    1.553949   -3.461449
     10          1           0       -0.885345    0.777779   -5.047517
     11          8           0       -2.428683    0.300644   -1.360017
     12          6           0        0.955926    0.315086   -4.026482
     13          1           0        1.260671   -0.262179   -3.148035
     14          1           0        1.240473   -0.252356   -4.915120
     15          6           0        1.784922    1.615581   -3.939619
     16          8           0        1.418814    2.432327   -3.041575
     17          8           0        2.746403    1.723032   -4.735356
     18          7           0       -0.401821   -0.734163   -1.154742
     19          1           0        0.400879   -1.130656   -1.638771
     20          6           0       -0.054303   -0.243457    0.180101
     21          1           0       -0.699596    0.610931    0.392416
     22          6           0        1.417495    0.181999    0.048016
     23          6           0       -0.238686   -1.344128    1.241868
     24          1           0        0.391678   -2.195127    0.955575
     25          1           0       -1.281607   -1.680742    1.182842
     26          8           0        2.159918   -0.410138   -0.735867
     27          6           0        0.082733   -0.928904    2.688864
     28          1           0        1.127371   -0.593983    2.732716
     29          6           0       -0.810895    0.219205    3.178094
     30          1           0       -1.869863   -0.062408    3.129235
     31          1           0       -0.579286    0.471353    4.217718
     32          1           0       -0.693161    1.138592    2.590524
     33          6           0       -0.056789   -2.146383    3.611637
     34          1           0       -1.087607   -2.521595    3.612412
     35          1           0        0.599283   -2.964413    3.294397
     36          1           0        0.203775   -1.886202    4.642801
     37          7           0        1.816641    1.196556    0.838452
     38          1           0        1.173192    1.586117    1.512628
     39          6           0        3.209279    1.627416    0.880182
     40          1           0        3.827447    0.729389    0.757325
     41          6           0        3.560696    2.214066    2.241679
     42          6           0        3.568528    2.605437   -0.250553
     43          1           0        3.437063    2.077384   -1.197923
     44          1           0        4.629699    2.852296   -0.141957
     45          8           0        4.554490    2.863875    2.456872
     46          6           0        2.722642    3.881739   -0.238996
     47          1           0        1.682349    3.636825   -0.480878
     48          1           0        2.732876    4.339445    0.758134
     49          6           0        3.236496    4.937646   -1.221010
     50          1           0        4.271469    5.194480   -0.965772
     51          1           0        2.631413    5.850726   -1.129857
     52          7           0        3.193821    4.431507   -2.588639
     53          1           0        2.486390    3.682924   -2.812780
     54          7           0        4.929506    5.785740   -3.351406
     55          1           0        5.580246    6.022105   -4.085606
     56          1           0        4.673307    6.538356   -2.730368
     57          7           0        4.109631    4.036040   -4.659966
     58          1           0        4.656986    4.353503   -5.445573
     59          1           0        3.585124    3.119407   -4.721766
     60          6           0        4.063504    4.752824   -3.540185
     61          8           0        2.641478    1.923718    3.196715
     62          1           0        2.965877    2.324380    4.026276
 ---------------------------------------------------------------------

 SCF Done:  E(RB3LYP) =  -1447.54501585     A.U. after    2 cycles

 Alpha  occ. eigenvalues --  -19.29440 -19.26258 -19.23165 -19.22035 -19.17255
 Alpha  occ. eigenvalues --  -19.17008 -14.59443 -14.48936 -14.46990 -14.46497
 Alpha  occ. eigenvalues --  -14.44305 -14.43856 -10.42969 -10.41780 -10.41494
 Alpha  occ. eigenvalues --  -10.39791 -10.39051 -10.35285 -10.34101 -10.33309
 Alpha  occ. eigenvalues --  -10.31700 -10.31655 -10.28170 -10.27642 -10.27539
 Alpha  occ. eigenvalues --  -10.27531 -10.26999 -10.25995 -10.24958  -1.20086
 Alpha  occ. eigenvalues --   -1.18786  -1.14231  -1.13218  -1.11052  -1.10809
 Alpha  occ. eigenvalues --   -1.10007  -1.05816  -1.03151  -1.01796  -0.99865
 Alpha  occ. eigenvalues --   -0.98319  -0.93021  -0.90630  -0.88902  -0.85812
 Alpha  occ. eigenvalues --   -0.84215  -0.82572  -0.77697  -0.76698  -0.76088
 Alpha  occ. eigenvalues --   -0.75049  -0.73382  -0.73153  -0.71741  -0.71559
 Alpha  occ. eigenvalues --   -0.70318  -0.69241  -0.67846  -0.67081  -0.65843
 Alpha  occ. eigenvalues --   -0.64979  -0.64350  -0.62784  -0.62078  -0.59985
 Alpha  occ. eigenvalues --   -0.59759  -0.59035  -0.58224  -0.57856  -0.57349
 Alpha  occ. eigenvalues --   -0.56987  -0.56450  -0.55997  -0.55748  -0.54513
 Alpha  occ. eigenvalues --   -0.53582  -0.53236  -0.52930  -0.52175  -0.51926
 Alpha  occ. eigenvalues --   -0.51322  -0.51036  -0.50579  -0.50213  -0.49824
 Alpha  occ. eigenvalues --   -0.48597  -0.48530  -0.48181  -0.47648  -0.47215
 Alpha  occ. eigenvalues --   -0.46686  -0.46152  -0.45300  -0.44915  -0.44128
 Alpha  occ. eigenvalues --   -0.43459  -0.42939  -0.42687  -0.42421  -0.41555
 Alpha  occ. eigenvalues --   -0.41327  -0.40978  -0.40619  -0.38450  -0.37634
 Alpha  occ. eigenvalues --   -0.37250  -0.35947  -0.35165  -0.34320  -0.32615
 Alpha  occ. eigenvalues --   -0.32236  -0.31368
 Alpha virt. eigenvalues --   -0.11636  -0.10434  -0.08559  -0.07780  -0.06152
 Alpha virt. eigenvalues --   -0.06062  -0.03813  -0.03126  -0.03012  -0.02053
 Alpha virt. eigenvalues --   -0.00959  -0.00383   0.00171   0.00796   0.01606

 Mulliken charges:
               1
     1  N   -0.752571
     2  H    0.413989
     3  H    0.430719
     4  H    0.411510
     5  C   -0.118496
     6  H    0.210287
     7  C    0.649934
     8  C   -0.301950
     9  H    0.212171
    10  H    0.159176
    11  O   -0.541641
    12  C   -0.365191
    13  H    0.171878
    14  H    0.172577
    15  C    0.611598
    16  O   -0.610906
    17  O   -0.573632
    18  N   -0.584874
    19  H    0.374198
    20  C   -0.097309
    21  H    0.191369
    22  C    0.648274
    23  C   -0.249747
    24  H    0.157200
    25  H    0.156482
    26  O   -0.538832
    27  C   -0.099008
    28  H    0.144505
    29  C   -0.453131
    30  H    0.157774
    31  H    0.164159
    32  H    0.124154
    33  C   -0.446181
    34  H    0.149843
    35  H    0.153669
    36  H    0.157815
    37  N   -0.611566
    38  H    0.363567
    39  C   -0.060184
    40  H    0.219317
    41  C    0.587718
    42  C   -0.264803
    43  H    0.193499
    44  H    0.170094
    45  O   -0.444502
    46  C   -0.306929
    47  H    0.170461
    48  H    0.153108
    49  C   -0.149672
    50  H    0.168702
    51  H    0.161624
    52  N   -0.635683
    53  H    0.428673
    54  N   -0.762032
    55  H    0.359923
    56  H    0.366608
    57  N   -0.800531
    58  H    0.342444
    59  H    0.436612
    60  C    0.774528
    61  O   -0.579353
    62  H    0.428563
 Sum of Mulliken charges =   1.00000

 Dipole moment (field-independent basis, Debye):
    X=             -1.1035    Y=              7.9868    Z=            -11.1684  Tot=             13.7746
 Quadrupole moment (field-independent basis, Debye-Ang):
   XX=           -116.4570   YY=            -98.8764   ZZ=            -92.0551
   XY=             57.5171   XZ=             13.6586   YZ=            -23.3233

 Normal termination of Gaussian 16 at Thu Jun 23 05:40:34 2022.
