 Gaussian 16, Revision C.01,
 Gaussian 16:  ES64L-G16RevC.01  3-Jul-2019

 ----------------------------------------------------------------------
 # B3LYP/6-31G* empiricaldispersion=gd3bj guess=read geom=check nosymm
 integral(ultrafinegrid)
 ----------------------------------------------------------------------

 ------------------------------------------------------
 Candidate Structure: Conf:966 Charge calc in gas phase
 ------------------------------------------------------
 Structure from the checkpoint file:  "conf-966.chk"
 Charge =  1 Multiplicity = 1

                          Input orientation:
 ---------------------------------------------------------------------
 Center     Atomic      Atomic             Coordinates (Angstroms)
 Number     Number       Type             X           Y           Z
 ---------------------------------------------------------------------
      1          7           0       -1.767606   -0.390913   -3.903767
      2          1           0       -1.419511   -1.346116   -3.817989
      3          1           0       -2.738113   -0.424655   -3.586473
      4          1           0       -1.118374    0.311323   -5.422456
      5          6           0       -1.007938    0.498419   -3.011645
      6          1           0        0.031309    0.482763   -3.359821
      7          6           0       -1.059501    0.087179   -1.535980
      8          6           0       -1.556136    1.935289   -3.115311
      9          1           0       -0.860968    2.602601   -2.594873
     10          1           0       -2.511940    1.985326   -2.582967
     11          8           0       -2.111030   -0.254005   -1.005119
     12          6           0       -1.768536    2.424730   -4.566742
     13          1           0       -2.640768    1.932421   -5.004517
     14          1           0       -1.951812    3.501468   -4.571951
     15          6           0       -0.540656    2.127067   -5.403793
     16          8           0       -0.426594    0.898173   -5.869497
     17          8           0        0.359371    2.950130   -5.585243
     18          7           0        0.121765    0.223729   -0.891045
     19          1           0        0.973555    0.446609   -1.392294
     20          6           0        0.287685    0.085810    0.546840
     21          1           0       -0.613118    0.481661    1.023901
     22          6           0        1.517691    0.941364    0.877618
     23          6           0        0.494937   -1.385210    0.962121
     24          1           0        1.380583   -1.758623    0.433609
     25          1           0       -0.371068   -1.941709    0.584498
     26          8           0        2.455683    0.994653    0.076759
     27          6           0        0.646816   -1.635205    2.472460
     28          1           0        1.515672   -1.065319    2.833851
     29          6           0       -0.589796   -1.189999    3.266315
     30          1           0       -1.489053   -1.700567    2.901715
     31          1           0       -0.474807   -1.429671    4.328323
     32          1           0       -0.781777   -0.111434    3.199198
     33          6           0        0.932593   -3.122150    2.719214
     34          1           0        0.092653   -3.740892    2.380736
     35          1           0        1.829685   -3.450125    2.182557
     36          1           0        1.084907   -3.320641    3.785260
     37          7           0        1.458409    1.619317    2.046104
     38          1           0        0.663456    1.445134    2.647691
     39          6           0        2.509230    2.461601    2.630340
     40          1           0        3.186392    1.829628    3.224919
     41          6           0        1.848105    3.425437    3.620848
     42          6           0        3.355828    3.236971    1.612087
     43          1           0        3.980370    2.514754    1.086406
     44          1           0        4.012292    3.894776    2.186610
     45          8           0        2.167711    4.577542    3.780091
     46          6           0        2.526560    4.058086    0.604367
     47          1           0        1.500205    3.679128    0.553844
     48          1           0        2.466212    5.103120    0.927721
     49          6           0        3.133946    3.953195   -0.795853
     50          1           0        3.170301    2.894951   -1.055284
     51          1           0        4.152705    4.355904   -0.821173
     52          7           0        2.313117    4.658963   -1.790020
     53          1           0        2.043623    5.606254   -1.556462
     54          7           0        2.162623    2.928074   -3.360060
     55          1           0        1.835228    2.664303   -4.289794
     56          1           0        3.025833    2.514825   -3.039107
     57          7           0        0.927133    4.848656   -3.644519
     58          1           0        0.563974    4.426327   -4.508093
     59          1           0        0.534899    5.713534   -3.303742
     60          6           0        1.814646    4.154874   -2.923178
     61          8           0        0.868368    2.813098    4.325285
     62          1           0        0.504546    3.466949    4.952868
 ---------------------------------------------------------------------

 SCF Done:  E(RB3LYP) =  -1447.55683307     A.U. after    1 cycles

 Alpha  occ. eigenvalues --  -19.31069 -19.29141 -19.25751 -19.25260 -19.23413
 Alpha  occ. eigenvalues --  -19.21479 -14.52312 -14.50941 -14.50713 -14.48176
 Alpha  occ. eigenvalues --  -14.46303 -14.45481 -10.48013 -10.43808 -10.43349
 Alpha  occ. eigenvalues --  -10.40498 -10.38658 -10.35767 -10.35611 -10.34326
 Alpha  occ. eigenvalues --  -10.33551 -10.31678 -10.31563 -10.30658 -10.29779
 Alpha  occ. eigenvalues --  -10.27683 -10.27574 -10.25866 -10.24883  -1.21906
 Alpha  occ. eigenvalues --   -1.21125  -1.16506  -1.15405  -1.13431  -1.13019
 Alpha  occ. eigenvalues --   -1.12711  -1.06048  -1.04632  -1.04022  -1.02943
 Alpha  occ. eigenvalues --   -1.01856  -0.92401  -0.91081  -0.90163  -0.87837
 Alpha  occ. eigenvalues --   -0.85058  -0.81914  -0.81129  -0.78044  -0.76569
 Alpha  occ. eigenvalues --   -0.75516  -0.74935  -0.74086  -0.73415  -0.71648
 Alpha  occ. eigenvalues --   -0.70527  -0.69268  -0.68779  -0.68315  -0.66150
 Alpha  occ. eigenvalues --   -0.64696  -0.64523  -0.64266  -0.63523  -0.62496
 Alpha  occ. eigenvalues --   -0.61951  -0.61323  -0.60982  -0.59922  -0.58801
 Alpha  occ. eigenvalues --   -0.58413  -0.58016  -0.57303  -0.57026  -0.55992
 Alpha  occ. eigenvalues --   -0.55639  -0.55516  -0.53983  -0.53782  -0.53443
 Alpha  occ. eigenvalues --   -0.52826  -0.52024  -0.51747  -0.51306  -0.51145
 Alpha  occ. eigenvalues --   -0.50106  -0.50089  -0.49891  -0.48580  -0.47688
 Alpha  occ. eigenvalues --   -0.47514  -0.47024  -0.46747  -0.46303  -0.45791
 Alpha  occ. eigenvalues --   -0.45723  -0.45449  -0.44435  -0.43156  -0.42643
 Alpha  occ. eigenvalues --   -0.42503  -0.42033  -0.41211  -0.41069  -0.40506
 Alpha  occ. eigenvalues --   -0.39588  -0.39486  -0.39281  -0.37578  -0.36591
 Alpha  occ. eigenvalues --   -0.35101  -0.34931
 Alpha virt. eigenvalues --   -0.12042  -0.11312  -0.10886  -0.09423  -0.07824
 Alpha virt. eigenvalues --   -0.07568  -0.05250  -0.04115  -0.02895  -0.02860
 Alpha virt. eigenvalues --   -0.01518  -0.00651   0.00303   0.00504   0.00795

 Mulliken charges:
               1
     1  N   -0.764275
     2  H    0.344431
     3  H    0.347945
     4  H    0.460540
     5  C   -0.090883
     6  H    0.151038
     7  C    0.613388
     8  C   -0.287603
     9  H    0.151178
    10  H    0.193304
    11  O   -0.523361
    12  C   -0.369508
    13  H    0.193798
    14  H    0.176552
    15  C    0.613646
    16  O   -0.553009
    17  O   -0.520657
    18  N   -0.619802
    19  H    0.342782
    20  C   -0.045893
    21  H    0.176864
    22  C    0.625299
    23  C   -0.256384
    24  H    0.150497
    25  H    0.171924
    26  O   -0.557863
    27  C   -0.092159
    28  H    0.124220
    29  C   -0.455858
    30  H    0.166477
    31  H    0.164031
    32  H    0.122158
    33  C   -0.445246
    34  H    0.153969
    35  H    0.150999
    36  H    0.157126
    37  N   -0.642597
    38  H    0.379603
    39  C   -0.035258
    40  H    0.209229
    41  C    0.590307
    42  C   -0.283063
    43  H    0.186319
    44  H    0.186877
    45  O   -0.437930
    46  C   -0.280431
    47  H    0.154097
    48  H    0.171924
    49  C   -0.177466
    50  H    0.202972
    51  H    0.191830
    52  N   -0.603788
    53  H    0.357489
    54  N   -0.782936
    55  H    0.412206
    56  H    0.378776
    57  N   -0.785200
    58  H    0.421859
    59  H    0.365623
    60  C    0.793257
    61  O   -0.578809
    62  H    0.435445
 Sum of Mulliken charges =   1.00000

 Dipole moment (field-independent basis, Debye):
    X=              4.0568    Y=             13.6934    Z=             -5.0764  Tot=             15.1571
 Quadrupole moment (field-independent basis, Debye-Ang):
   XX=           -150.4791   YY=            -99.5511   ZZ=           -124.8277
   XY=             15.8621   XZ=              6.6385   YZ=            -23.2318

 Normal termination of Gaussian 16 at Thu Jun 23 05:40:24 2022.
