 Gaussian 16, Revision C.01,
 Gaussian 16:  ES64L-G16RevC.01  3-Jul-2019

 ----------------------------------------------------------------------
 # B3LYP/6-31G* empiricaldispersion=gd3bj guess=read geom=check nosymm
 integral(ultrafinegrid)
 ----------------------------------------------------------------------

 ------------------------------------------------------
 Candidate Structure: Conf:549 Charge calc in gas phase
 ------------------------------------------------------
 Structure from the checkpoint file:  "conf-549.chk"
 Charge =  1 Multiplicity = 1

                          Input orientation:
 ---------------------------------------------------------------------
 Center     Atomic      Atomic             Coordinates (Angstroms)
 Number     Number       Type             X           Y           Z
 ---------------------------------------------------------------------
      1          7           0       -3.175339    0.210110   -3.976402
      2          1           0       -3.896496   -0.414400   -4.343364
      3          1           0       -3.464335    0.665611   -3.064140
      4          1           0       -2.984181    0.940398   -4.671031
      5          6           0       -1.896180   -0.504935   -3.577433
      6          1           0       -2.217702   -1.492068   -3.227683
      7          6           0       -1.484334    0.258521   -2.286595
      8          6           0       -0.952216   -0.663815   -4.761928
      9          1           0       -1.491743   -1.227067   -5.533385
     10          1           0       -0.123480   -1.299096   -4.437429
     11          8           0       -2.408868    0.854483   -1.701611
     12          6           0       -0.368432    0.637822   -5.329752
     13          1           0       -0.391377    0.634709   -6.422427
     14          1           0       -0.936578    1.531237   -5.025362
     15          6           0        1.097780    0.889401   -4.904294
     16          8           0        1.699255    1.783559   -5.531575
     17          8           0        1.553375    0.170500   -3.958085
     18          7           0       -0.244173    0.115344   -1.832648
     19          1           0        0.515460   -0.125278   -2.497235
     20          6           0        0.091839    0.531778   -0.463267
     21          1           0       -0.629294    1.297567   -0.170694
     22          6           0        1.513845    1.084497   -0.432712
     23          6           0        0.039900   -0.665056    0.511407
     24          1           0        0.416458   -0.317863    1.483883
     25          1           0        0.756472   -1.408593    0.145049
     26          8           0        2.457039    0.418328   -0.861697
     27          6           0       -1.341401   -1.306845    0.715999
     28          1           0       -1.746597   -1.573946   -0.271487
     29          6           0       -1.182812   -2.604878    1.519343
     30          1           0       -0.771928   -2.398193    2.515100
     31          1           0       -2.149904   -3.099980    1.656925
     32          1           0       -0.508620   -3.308623    1.018347
     33          6           0       -2.329178   -0.356593    1.403699
     34          1           0       -1.946069   -0.045067    2.383578
     35          1           0       -2.524191    0.537816    0.805285
     36          1           0       -3.289767   -0.855749    1.570958
     37          7           0        1.665787    2.296859    0.146662
     38          1           0        0.887417    2.751656    0.610782
     39          6           0        2.982305    2.837885    0.442349
     40          1           0        3.680642    1.998499    0.511068
     41          6           0        2.882970    3.523297    1.798377
     42          6           0        3.463594    3.838105   -0.644750
     43          1           0        2.972862    4.802725   -0.472915
     44          1           0        3.086533    3.474627   -1.605614
     45          8           0        1.836082    3.840294    2.318134
     46          6           0        4.988440    4.021785   -0.706717
     47          1           0        5.213033    4.990699   -1.169042
     48          1           0        5.407414    4.062005    0.303976
     49          6           0        5.725878    2.932893   -1.502911
     50          1           0        5.494306    1.929790   -1.135044
     51          1           0        6.806449    3.055107   -1.381202
     52          7           0        5.437664    2.985092   -2.935567
     53          1           0        5.841290    3.761480   -3.440868
     54          7           0        3.891968    1.232699   -3.028471
     55          1           0        3.091027    0.768247   -3.505521
     56          1           0        3.883263    1.085537   -2.027018
     57          7           0        4.271197    2.508764   -4.895884
     58          1           0        3.354178    2.177013   -5.266633
     59          1           0        4.669052    3.335064   -5.317956
     60          6           0        4.518883    2.248514   -3.603399
     61          8           0        4.092451    3.769951    2.330320
     62          1           0        3.949137    4.243926    3.172954
 ---------------------------------------------------------------------

 SCF Done:  E(RB3LYP) =  -1447.55739967     A.U. after    1 cycles

 Alpha  occ. eigenvalues --  -19.30448 -19.25623 -19.24788 -19.22698 -19.19423
 Alpha  occ. eigenvalues --  -19.18332 -14.59010 -14.47825 -14.47781 -14.47162
 Alpha  occ. eigenvalues --  -14.44414 -14.43609 -10.42830 -10.42421 -10.42238
 Alpha  occ. eigenvalues --  -10.39820 -10.39635 -10.36994 -10.34726 -10.33954
 Alpha  occ. eigenvalues --  -10.33602 -10.31628 -10.29857 -10.29347 -10.29240
 Alpha  occ. eigenvalues --  -10.27853 -10.27531 -10.24896 -10.24804  -1.21427
 Alpha  occ. eigenvalues --   -1.18152  -1.14812  -1.12874  -1.12533  -1.12255
 Alpha  occ. eigenvalues --   -1.10910  -1.04782  -1.03781  -1.03363  -1.01088
 Alpha  occ. eigenvalues --   -0.97786  -0.92910  -0.91147  -0.89819  -0.86364
 Alpha  occ. eigenvalues --   -0.85014  -0.83197  -0.79319  -0.76490  -0.75883
 Alpha  occ. eigenvalues --   -0.75195  -0.73863  -0.73391  -0.72718  -0.71464
 Alpha  occ. eigenvalues --   -0.70684  -0.69087  -0.68723  -0.68454  -0.66611
 Alpha  occ. eigenvalues --   -0.64256  -0.64052  -0.62836  -0.61374  -0.60413
 Alpha  occ. eigenvalues --   -0.60192  -0.59468  -0.58815  -0.58409  -0.57720
 Alpha  occ. eigenvalues --   -0.57331  -0.56770  -0.56397  -0.56288  -0.55613
 Alpha  occ. eigenvalues --   -0.55261  -0.54285  -0.53621  -0.53271  -0.52704
 Alpha  occ. eigenvalues --   -0.52173  -0.51619  -0.50951  -0.50577  -0.50058
 Alpha  occ. eigenvalues --   -0.49826  -0.49510  -0.48854  -0.48333  -0.48085
 Alpha  occ. eigenvalues --   -0.47206  -0.46569  -0.46198  -0.46023  -0.45327
 Alpha  occ. eigenvalues --   -0.45030  -0.44866  -0.44502  -0.42378  -0.41363
 Alpha  occ. eigenvalues --   -0.40908  -0.40833  -0.39976  -0.38831  -0.38088
 Alpha  occ. eigenvalues --   -0.36917  -0.36285  -0.36172  -0.35834  -0.34414
 Alpha  occ. eigenvalues --   -0.34201  -0.32698
 Alpha virt. eigenvalues --   -0.12387  -0.09733  -0.09361  -0.08621  -0.06334
 Alpha virt. eigenvalues --   -0.05827  -0.03711  -0.03302  -0.02708  -0.02243
 Alpha virt. eigenvalues --   -0.01238  -0.00884  -0.00275   0.00639   0.00922

 Mulliken charges:
               1
     1  N   -0.747567
     2  H    0.412006
     3  H    0.431326
     4  H    0.409140
     5  C   -0.133557
     6  H    0.228976
     7  C    0.644212
     8  C   -0.290604
     9  H    0.162427
    10  H    0.221471
    11  O   -0.557929
    12  C   -0.389681
    13  H    0.197101
    14  H    0.139603
    15  C    0.623329
    16  O   -0.565680
    17  O   -0.608677
    18  N   -0.624777
    19  H    0.420303
    20  C   -0.065201
    21  H    0.183553
    22  C    0.624141
    23  C   -0.254154
    24  H    0.150261
    25  H    0.169427
    26  O   -0.544094
    27  C   -0.075771
    28  H    0.107199
    29  C   -0.445862
    30  H    0.153536
    31  H    0.154278
    32  H    0.148536
    33  C   -0.463248
    34  H    0.147625
    35  H    0.165218
    36  H    0.153290
    37  N   -0.606266
    38  H    0.363225
    39  C   -0.050502
    40  H    0.197239
    41  C    0.590826
    42  C   -0.288426
    43  H    0.168731
    44  H    0.171767
    45  O   -0.453702
    46  C   -0.275327
    47  H    0.153626
    48  H    0.185618
    49  C   -0.176045
    50  H    0.181930
    51  H    0.188247
    52  N   -0.599471
    53  H    0.343006
    54  N   -0.807388
    55  H    0.427833
    56  H    0.381819
    57  N   -0.785752
    58  H    0.420500
    59  H    0.339748
    60  C    0.772414
    61  O   -0.556412
    62  H    0.432604
 Sum of Mulliken charges =   1.00000

 Dipole moment (field-independent basis, Debye):
    X=              1.5720    Y=              7.8064    Z=            -11.7306  Tot=             14.1781
 Quadrupole moment (field-independent basis, Debye-Ang):
   XX=            -78.5485   YY=           -131.3843   ZZ=           -109.7291
   XY=             55.3676   XZ=             31.0033   YZ=             -8.9636

 Normal termination of Gaussian 16 at Thu Jun 23 05:40:24 2022.
