 Gaussian 16, Revision C.01,
 Gaussian 16:  ES64L-G16RevC.01  3-Jul-2019

 ----------------------------------------------------------------------
 # B3LYP/6-31G* empiricaldispersion=gd3bj guess=read geom=check nosymm
 integral(ultrafinegrid)
 ----------------------------------------------------------------------

 ------------------------------------------------------
 Candidate Structure: Conf:746 Charge calc in gas phase
 ------------------------------------------------------
 Structure from the checkpoint file:  "conf-746.chk"
 Charge =  1 Multiplicity = 1

                          Input orientation:
 ---------------------------------------------------------------------
 Center     Atomic      Atomic             Coordinates (Angstroms)
 Number     Number       Type             X           Y           Z
 ---------------------------------------------------------------------
      1          7           0       -2.103546    0.502488   -4.247391
      2          1           0       -2.940572    0.215458   -4.748770
      3          1           0       -2.279769    1.387614   -3.768394
      4          1           0       -0.865413    0.723504   -5.133811
      5          6           0       -1.693749   -0.507933   -3.252972
      6          1           0       -2.548210   -1.130422   -2.957628
      7          6           0       -1.189650    0.243974   -2.012676
      8          6           0       -0.598872   -1.430485   -3.836623
      9          1           0       -0.956984   -1.814571   -4.799446
     10          1           0       -0.500382   -2.305891   -3.184440
     11          8           0       -1.020304    1.462952   -2.031345
     12          6           0        0.804049   -0.817403   -3.986092
     13          1           0        1.147161   -0.400481   -3.029142
     14          1           0        1.517315   -1.616687   -4.210176
     15          6           0        1.047534    0.237587   -5.053908
     16          8           0        2.213449    0.486593   -5.394180
     17          8           0        0.057134    0.890104   -5.605254
     18          7           0       -0.946245   -0.512614   -0.919796
     19          1           0       -0.967837   -1.520468   -0.996260
     20          6           0       -0.308082    0.063107    0.255690
     21          1           0       -0.932517    0.892751    0.599372
     22          6           0        1.087241    0.583347   -0.121610
     23          6           0       -0.190817   -1.018498    1.342601
     24          1           0        0.435331   -1.825368    0.938868
     25          1           0       -1.192838   -1.434511    1.514411
     26          8           0        1.826654   -0.049675   -0.871893
     27          6           0        0.396492   -0.550251    2.685653
     28          1           0        1.386905   -0.114993    2.500031
     29          6           0       -0.473558    0.516435    3.362742
     30          1           0       -1.485013    0.134924    3.549295
     31          1           0       -0.043529    0.807518    4.326304
     32          1           0       -0.570466    1.430280    2.765220
     33          6           0        0.580528   -1.759941    3.610761
     34          1           0       -0.383358   -2.234121    3.833456
     35          1           0        1.230638   -2.515468    3.155769
     36          1           0        1.029963   -1.458119    4.562463
     37          7           0        1.449450    1.748895    0.468622
     38          1           0        0.811028    2.192370    1.113714
     39          6           0        2.809850    2.252623    0.398933
     40          1           0        3.449203    1.386893    0.185324
     41          6           0        3.279599    2.822582    1.733841
     42          6           0        3.023570    3.293284   -0.715363
     43          1           0        4.053917    3.653444   -0.628425
     44          1           0        2.364864    4.153023   -0.535923
     45          8           0        4.300194    3.453171    1.867257
     46          6           0        2.769299    2.711514   -2.106467
     47          1           0        3.353560    1.791766   -2.229169
     48          1           0        1.715004    2.434251   -2.216045
     49          6           0        3.149224    3.697858   -3.210919
     50          1           0        4.185959    4.036334   -3.075717
     51          1           0        2.496095    4.578811   -3.175886
     52          7           0        3.000909    3.039443   -4.507846
     53          1           0        2.888831    2.023804   -4.530189
     54          7           0        3.034945    4.982459   -5.783160
     55          1           0        2.966061    5.439266   -6.680278
     56          1           0        3.521025    5.485716   -5.056395
     57          7           0        2.547527    2.917042   -6.754683
     58          1           0        2.513725    3.314387   -7.680472
     59          1           0        2.299566    1.931405   -6.597803
     60          6           0        2.869843    3.646359   -5.685230
     61          8           0        2.435282    2.544746    2.755517
     62          1           0        2.829030    2.939888    3.557369
 ---------------------------------------------------------------------

 SCF Done:  E(RB3LYP) =  -1447.57726710     A.U. after    3 cycles

 Alpha  occ. eigenvalues --  -19.29650 -19.26552 -19.23397 -19.23025 -19.22926
 Alpha  occ. eigenvalues --  -19.21417 -14.50449 -14.48781 -14.48305 -14.46958
 Alpha  occ. eigenvalues --  -14.46199 -14.45706 -10.45741 -10.41778 -10.41721
 Alpha  occ. eigenvalues --  -10.39699 -10.38472 -10.34525 -10.34425 -10.33879
 Alpha  occ. eigenvalues --  -10.33299 -10.30494 -10.29286 -10.29151 -10.29045
 Alpha  occ. eigenvalues --  -10.28275 -10.27490 -10.25643 -10.24842  -1.20330
 Alpha  occ. eigenvalues --   -1.18687  -1.15045  -1.14471  -1.13278  -1.11293
 Alpha  occ. eigenvalues --   -1.09838  -1.03783  -1.03496  -1.02895  -1.02486
 Alpha  occ. eigenvalues --   -1.01962  -0.91353  -0.90333  -0.89412  -0.86447
 Alpha  occ. eigenvalues --   -0.84323  -0.80940  -0.79688  -0.76461  -0.76272
 Alpha  occ. eigenvalues --   -0.74943  -0.73787  -0.72941  -0.71003  -0.70236
 Alpha  occ. eigenvalues --   -0.69228  -0.68911  -0.68523  -0.68237  -0.64790
 Alpha  occ. eigenvalues --   -0.64500  -0.63164  -0.62643  -0.62368  -0.61461
 Alpha  occ. eigenvalues --   -0.60611  -0.59967  -0.59023  -0.58652  -0.58285
 Alpha  occ. eigenvalues --   -0.57636  -0.57028  -0.56652  -0.55778  -0.54886
 Alpha  occ. eigenvalues --   -0.54775  -0.54514  -0.53644  -0.53026  -0.52126
 Alpha  occ. eigenvalues --   -0.51470  -0.51358  -0.50554  -0.50038  -0.49524
 Alpha  occ. eigenvalues --   -0.49279  -0.48862  -0.48532  -0.47895  -0.46762
 Alpha  occ. eigenvalues --   -0.46594  -0.46368  -0.46122  -0.45881  -0.45476
 Alpha  occ. eigenvalues --   -0.44984  -0.44412  -0.44041  -0.41590  -0.41464
 Alpha  occ. eigenvalues --   -0.41094  -0.40991  -0.40799  -0.40189  -0.38740
 Alpha  occ. eigenvalues --   -0.38048  -0.37850  -0.37379  -0.36649  -0.36476
 Alpha  occ. eigenvalues --   -0.35111  -0.34698
 Alpha virt. eigenvalues --   -0.09501  -0.09318  -0.08695  -0.08642  -0.07521
 Alpha virt. eigenvalues --   -0.06022  -0.04146  -0.03130  -0.02587  -0.01574
 Alpha virt. eigenvalues --   -0.00428  -0.00171   0.00109   0.01509   0.02009

 Mulliken charges:
               1
     1  N   -0.805011
     2  H    0.348702
     3  H    0.365986
     4  H    0.482416
     5  C   -0.066982
     6  H    0.175897
     7  C    0.629600
     8  C   -0.299329
     9  H    0.174289
    10  H    0.162261
    11  O   -0.539237
    12  C   -0.408482
    13  H    0.241166
    14  H    0.202662
    15  C    0.606430
    16  O   -0.545121
    17  O   -0.589325
    18  N   -0.603883
    19  H    0.344078
    20  C   -0.031246
    21  H    0.171391
    22  C    0.646483
    23  C   -0.302406
    24  H    0.158558
    25  H    0.155610
    26  O   -0.544715
    27  C   -0.093027
    28  H    0.144694
    29  C   -0.445508
    30  H    0.154012
    31  H    0.160117
    32  H    0.125015
    33  C   -0.446204
    34  H    0.150097
    35  H    0.152117
    36  H    0.157312
    37  N   -0.598335
    38  H    0.355532
    39  C   -0.065405
    40  H    0.217736
    41  C    0.594461
    42  C   -0.266180
    43  H    0.182308
    44  H    0.151543
    45  O   -0.442409
    46  C   -0.324775
    47  H    0.178283
    48  H    0.189111
    49  C   -0.134356
    50  H    0.172881
    51  H    0.172418
    52  N   -0.639700
    53  H    0.410660
    54  N   -0.763647
    55  H    0.372901
    56  H    0.380763
    57  N   -0.781390
    58  H    0.361563
    59  H    0.418873
    60  C    0.813823
    61  O   -0.574670
    62  H    0.429598
 Sum of Mulliken charges =   1.00000

 Dipole moment (field-independent basis, Debye):
    X=              3.3777    Y=             10.1716    Z=            -15.1536  Tot=             18.5608
 Quadrupole moment (field-independent basis, Debye-Ang):
   XX=           -143.6030   YY=           -105.5587   ZZ=            -47.8812
   XY=             41.7131   XZ=            -24.7631   YZ=            -58.5717

 Normal termination of Gaussian 16 at Thu Jun 23 05:40:45 2022.
