 Gaussian 16, Revision C.01,
 Gaussian 16:  ES64L-G16RevC.01  3-Jul-2019

 ----------------------------------------------------------------------
 # B3LYP/6-31G* empiricaldispersion=gd3bj guess=read geom=check nosymm
 integral(ultrafinegrid)
 ----------------------------------------------------------------------

 ------------------------------------------------------
 Candidate Structure: Conf:879 Charge calc in gas phase
 ------------------------------------------------------
 Structure from the checkpoint file:  "conf-879.chk"
 Charge =  1 Multiplicity = 1

                          Input orientation:
 ---------------------------------------------------------------------
 Center     Atomic      Atomic             Coordinates (Angstroms)
 Number     Number       Type             X           Y           Z
 ---------------------------------------------------------------------
      1          7           0       -1.363799   -0.501130   -4.369480
      2          1           0       -2.069253   -1.233111   -4.492651
      3          1           0       -1.815906    0.325619   -3.888879
      4          1           0       -0.989195   -0.238887   -5.285415
      5          6           0       -0.268037   -0.875419   -3.384899
      6          1           0       -0.196432   -1.964780   -3.346359
      7          6           0       -0.790657   -0.251026   -2.070736
      8          6           0        1.044767   -0.211232   -3.837145
      9          1           0        0.962524    0.876954   -3.732042
     10          1           0        1.182059   -0.425171   -4.906669
     11          8           0       -1.607826    0.676095   -2.169356
     12          6           0        2.302771   -0.649835   -3.082897
     13          1           0        2.123825   -0.784697   -2.011769
     14          1           0        2.695450   -1.598027   -3.460466
     15          6           0        3.409103    0.435058   -3.159517
     16          8           0        3.061537    1.608983   -3.405039
     17          8           0        4.575799    0.006151   -2.898973
     18          7           0       -0.292328   -0.728734   -0.930796
     19          1           0        0.469464   -1.402427   -0.970142
     20          6           0       -0.280574    0.041793    0.321483
     21          1           0       -0.816688    0.972685    0.131278
     22          6           0        1.214866    0.295269    0.573277
     23          6           0       -0.915939   -0.733728    1.483276
     24          1           0       -0.836101   -0.107771    2.382387
     25          1           0       -0.307198   -1.627257    1.670130
     26          8           0        2.028335   -0.585879    0.288986
     27          6           0       -2.384129   -1.134205    1.263281
     28          1           0       -2.423393   -1.772505    0.368637
     29          6           0       -2.874174   -1.961589    2.458142
     30          1           0       -2.863215   -1.363564    3.377689
     31          1           0       -3.901121   -2.306844    2.299153
     32          1           0       -2.243154   -2.842129    2.623569
     33          6           0       -3.290973    0.080501    1.025532
     34          1           0       -3.225712    0.785615    1.864286
     35          1           0       -3.035509    0.616303    0.105389
     36          1           0       -4.337088   -0.233080    0.942927
     37          7           0        1.561567    1.497526    1.074076
     38          1           0        0.858620    2.203199    1.247256
     39          6           0        2.965080    1.894668    1.109053
     40          1           0        3.546919    0.978689    1.229643
     41          6           0        3.275250    2.803781    2.282517
     42          6           0        3.380680    2.585552   -0.216001
     43          1           0        3.051373    3.633797   -0.194399
     44          1           0        2.840940    2.104369   -1.035887
     45          8           0        4.393300    3.052490    2.667473
     46          6           0        4.882156    2.496261   -0.497246
     47          1           0        5.451832    2.886087    0.354426
     48          1           0        5.153771    1.443162   -0.632689
     49          6           0        5.231962    3.267766   -1.772838
     50          1           0        4.945332    4.320793   -1.673292
     51          1           0        4.683772    2.856840   -2.626302
     52          7           0        6.668465    3.251301   -2.066941
     53          1           0        7.266650    3.775169   -1.441389
     54          7           0        6.667207    1.389308   -3.472149
     55          1           0        7.173099    0.875859   -4.181564
     56          1           0        5.714296    0.935360   -3.170525
     57          7           0        8.630840    2.586685   -3.069168
     58          1           0        9.138929    1.950649   -3.666048
     59          1           0        8.993111    3.529152   -3.030921
     60          6           0        7.293340    2.386873   -2.881957
     61          8           0        2.163145    3.373612    2.806870
     62          1           0        2.461625    3.970635    3.519570
 ---------------------------------------------------------------------

 SCF Done:  E(RB3LYP) =  -1447.52682667     A.U. after    1 cycles

 Alpha  occ. eigenvalues --  -19.28692 -19.26208 -19.22524 -19.21700 -19.16235
 Alpha  occ. eigenvalues --  -19.15731 -14.59311 -14.48973 -14.47410 -14.47147
 Alpha  occ. eigenvalues --  -14.46347 -14.44345 -10.42916 -10.42806 -10.40840
 Alpha  occ. eigenvalues --  -10.39523 -10.38879 -10.34219 -10.34001 -10.32645
 Alpha  occ. eigenvalues --  -10.30755 -10.30141 -10.27916 -10.27264 -10.27148
 Alpha  occ. eigenvalues --  -10.26627 -10.26146 -10.24895 -10.24618  -1.19389
 Alpha  occ. eigenvalues --   -1.18652  -1.14039  -1.13097  -1.11403  -1.10346
 Alpha  occ. eigenvalues --   -1.09294  -1.05700  -1.02789  -1.01125  -1.00725
 Alpha  occ. eigenvalues --   -0.98643  -0.92564  -0.90100  -0.88669  -0.85449
 Alpha  occ. eigenvalues --   -0.83706  -0.82116  -0.77752  -0.76093  -0.75644
 Alpha  occ. eigenvalues --   -0.74508  -0.73209  -0.72972  -0.71682  -0.70461
 Alpha  occ. eigenvalues --   -0.69848  -0.68802  -0.68502  -0.67847  -0.65982
 Alpha  occ. eigenvalues --   -0.65447  -0.63861  -0.62467  -0.61913  -0.60847
 Alpha  occ. eigenvalues --   -0.59233  -0.58654  -0.57918  -0.57455  -0.56670
 Alpha  occ. eigenvalues --   -0.56248  -0.56209  -0.55568  -0.55078  -0.53738
 Alpha  occ. eigenvalues --   -0.53355  -0.53026  -0.52864  -0.52253  -0.51605
 Alpha  occ. eigenvalues --   -0.51282  -0.50482  -0.49878  -0.49016  -0.48620
 Alpha  occ. eigenvalues --   -0.48287  -0.47644  -0.47315  -0.47075  -0.46610
 Alpha  occ. eigenvalues --   -0.45826  -0.45505  -0.45336  -0.44504  -0.44363
 Alpha  occ. eigenvalues --   -0.43110  -0.42185  -0.41562  -0.41189  -0.41029
 Alpha  occ. eigenvalues --   -0.40766  -0.40519  -0.40203  -0.38833  -0.38029
 Alpha  occ. eigenvalues --   -0.36938  -0.36059  -0.35340  -0.34083  -0.31704
 Alpha  occ. eigenvalues --   -0.31263  -0.30016
 Alpha virt. eigenvalues --   -0.11906  -0.10157  -0.08089  -0.07473  -0.07331
 Alpha virt. eigenvalues --   -0.05557  -0.04372  -0.03409  -0.01981  -0.01221
 Alpha virt. eigenvalues --   -0.00771  -0.00244   0.00469   0.00651   0.00723

 Mulliken charges:
               1
     1  N   -0.749056
     2  H    0.413115
     3  H    0.430327
     4  H    0.413332
     5  C   -0.118993
     6  H    0.206101
     7  C    0.651858
     8  C   -0.293375
     9  H    0.209802
    10  H    0.156199
    11  O   -0.538393
    12  C   -0.400161
    13  H    0.188614
    14  H    0.166079
    15  C    0.619781
    16  O   -0.567100
    17  O   -0.621405
    18  N   -0.575190
    19  H    0.367778
    20  C   -0.103147
    21  H    0.189631
    22  C    0.645185
    23  C   -0.262042
    24  H    0.155105
    25  H    0.161314
    26  O   -0.530462
    27  C   -0.069954
    28  H    0.121077
    29  C   -0.445594
    30  H    0.151809
    31  H    0.155908
    32  H    0.149962
    33  C   -0.469978
    34  H    0.145997
    35  H    0.159673
    36  H    0.157435
    37  N   -0.607836
    38  H    0.353319
    39  C   -0.058740
    40  H    0.222757
    41  C    0.594665
    42  C   -0.292357
    43  H    0.142034
    44  H    0.192827
    45  O   -0.445944
    46  C   -0.280168
    47  H    0.162363
    48  H    0.176704
    49  C   -0.189693
    50  H    0.159556
    51  H    0.239005
    52  N   -0.597096
    53  H    0.348133
    54  N   -0.782484
    55  H    0.341745
    56  H    0.463578
    57  N   -0.764029
    58  H    0.361409
    59  H    0.361901
    60  C    0.778607
    61  O   -0.578517
    62  H    0.427030
 Sum of Mulliken charges =   1.00000

 Dipole moment (field-independent basis, Debye):
    X=              8.6266    Y=              4.2002    Z=            -13.9403  Tot=             16.9231
 Quadrupole moment (field-independent basis, Debye-Ang):
   XX=            -35.9488   YY=           -137.1203   ZZ=            -89.0656
   XY=             58.8098   XZ=            -32.2074   YZ=              9.8080

 Normal termination of Gaussian 16 at Thu Jun 23 05:40:23 2022.
