 Gaussian 16, Revision C.01,
 Gaussian 16:  ES64L-G16RevC.01  3-Jul-2019

 ----------------------------------------------------------------------
 # B3LYP/6-31G* empiricaldispersion=gd3bj guess=read geom=check nosymm
 integral(ultrafinegrid)
 ----------------------------------------------------------------------

 ------------------------------------------------------
 Candidate Structure: Conf:123 Charge calc in gas phase
 ------------------------------------------------------
 Structure from the checkpoint file:  "conf-123.chk"
 Charge =  1 Multiplicity = 1

                          Input orientation:
 ---------------------------------------------------------------------
 Center     Atomic      Atomic             Coordinates (Angstroms)
 Number     Number       Type             X           Y           Z
 ---------------------------------------------------------------------
      1          7           0       -3.426445   -0.527354   -3.448916
      2          1           0       -4.044488   -1.334598   -3.565822
      3          1           0       -3.778129    0.060197   -2.643575
      4          1           0       -3.410129    0.005517   -4.324673
      5          6           0       -2.031847   -0.896853   -2.996123
      6          1           0       -1.863241   -1.954166   -3.211195
      7          6           0       -2.042039   -0.553608   -1.490963
      8          6           0       -0.993228    0.022290   -3.651111
      9          1           0       -0.016486   -0.261216   -3.245416
     10          1           0       -1.163331    1.049791   -3.312106
     11          8           0       -2.964603    0.148535   -1.060803
     12          6           0       -0.911074    0.041435   -5.175959
     13          1           0       -0.631106   -0.927805   -5.597214
     14          1           0       -1.864676    0.343594   -5.639617
     15          6           0        0.147083    1.106248   -5.573277
     16          8           0        0.149663    2.147523   -4.852439
     17          8           0        0.898090    0.830324   -6.534347
     18          7           0       -0.965662   -0.948591   -0.805469
     19          1           0       -0.209711   -1.403130   -1.315434
     20          6           0       -0.444509   -0.206023    0.347755
     21          1           0       -1.137179    0.613009    0.550227
     22          6           0        0.925723    0.313348   -0.131715
     23          6           0       -0.305735   -1.125639    1.574463
     24          1           0        0.350851   -1.959389    1.295805
     25          1           0       -1.297612   -1.551170    1.772016
     26          8           0        1.578335   -0.352420   -0.937808
     27          6           0        0.229536   -0.455759    2.852136
     28          1           0        1.225213   -0.044620    2.641735
     29          6           0       -0.671293    0.690716    3.330843
     30          1           0       -1.686993    0.330243    3.534444
     31          1           0       -0.280340    1.128044    4.254858
     32          1           0       -0.756553    1.506113    2.601416
     33          6           0        0.384029   -1.511767    3.954158
     34          1           0       -0.586068   -1.953863    4.212220
     35          1           0        1.050401   -2.322430    3.639406
     36          1           0        0.800279   -1.067820    4.864414
     37          7           0        1.342735    1.495437    0.372308
     38          1           0        0.794514    1.935863    1.099267
     39          6           0        2.713327    1.962419    0.189093
     40          1           0        3.298092    1.092204   -0.127514
     41          6           0        3.325108    2.450458    1.499637
     42          6           0        2.867798    3.062465   -0.879874
     43          1           0        3.911582    3.391896   -0.830982
     44          1           0        2.248964    3.925688   -0.601196
     45          8           0        4.448099    2.881332    1.587963
     46          6           0        2.527043    2.602831   -2.300749
     47          1           0        3.019167    1.648832   -2.520740
     48          1           0        1.450667    2.431487   -2.410627
     49          6           0        2.981775    3.649560   -3.328020
     50          1           0        4.072846    3.736507   -3.294809
     51          1           0        2.563555    4.632943   -3.071962
     52          7           0        2.568879    3.270335   -4.672779
     53          1           0        1.597615    2.875567   -4.786572
     54          7           0        4.532381    3.922411   -5.756097
     55          1           0        5.108780    3.884186   -6.583841
     56          1           0        4.647465    4.741100   -5.177585
     57          7           0        2.944807    2.598491   -6.837016
     58          1           0        3.388260    2.765780   -7.727723
     59          1           0        2.131111    1.931409   -6.781805
     60          6           0        3.335261    3.272970   -5.756544
     61          8           0        2.471421    2.371183    2.550270
     62          1           0        2.951770    2.715007    3.328149
 ---------------------------------------------------------------------

 SCF Done:  E(RB3LYP) =  -1447.54047636     A.U. after    3 cycles

 Alpha  occ. eigenvalues --  -19.29986 -19.26616 -19.23576 -19.22959 -19.17530
 Alpha  occ. eigenvalues --  -19.17421 -14.59455 -14.48940 -14.47339 -14.47187
 Alpha  occ. eigenvalues --  -14.44600 -14.44291 -10.43168 -10.42118 -10.41981
 Alpha  occ. eigenvalues --  -10.39940 -10.39650 -10.35789 -10.34665 -10.34112
 Alpha  occ. eigenvalues --  -10.32065 -10.31239 -10.28721 -10.28718 -10.28455
 Alpha  occ. eigenvalues --  -10.27885 -10.27800 -10.26221 -10.25180  -1.20584
 Alpha  occ. eigenvalues --   -1.18967  -1.15016  -1.13434  -1.11545  -1.11202
 Alpha  occ. eigenvalues --   -1.10349  -1.06072  -1.03844  -1.02286  -1.00149
 Alpha  occ. eigenvalues --   -0.98564  -0.93255  -0.90961  -0.89655  -0.86283
 Alpha  occ. eigenvalues --   -0.84853  -0.83032  -0.78341  -0.76891  -0.75520
 Alpha  occ. eigenvalues --   -0.74630  -0.73506  -0.72874  -0.72170  -0.71910
 Alpha  occ. eigenvalues --   -0.71275  -0.69785  -0.69470  -0.67512  -0.65711
 Alpha  occ. eigenvalues --   -0.65127  -0.65011  -0.62660  -0.62174  -0.60738
 Alpha  occ. eigenvalues --   -0.60243  -0.58953  -0.58506  -0.58098  -0.57786
 Alpha  occ. eigenvalues --   -0.57375  -0.56932  -0.56373  -0.55983  -0.55174
 Alpha  occ. eigenvalues --   -0.54893  -0.54013  -0.53346  -0.53047  -0.52194
 Alpha  occ. eigenvalues --   -0.51770  -0.51048  -0.50967  -0.50187  -0.49980
 Alpha  occ. eigenvalues --   -0.49419  -0.48608  -0.48234  -0.47634  -0.47539
 Alpha  occ. eigenvalues --   -0.46714  -0.46427  -0.45794  -0.45562  -0.45137
 Alpha  occ. eigenvalues --   -0.44855  -0.43843  -0.43141  -0.42614  -0.41940
 Alpha  occ. eigenvalues --   -0.41629  -0.41097  -0.40865  -0.38839  -0.38483
 Alpha  occ. eigenvalues --   -0.37898  -0.36694  -0.35709  -0.34562  -0.33026
 Alpha  occ. eigenvalues --   -0.32506  -0.31764
 Alpha virt. eigenvalues --   -0.11932  -0.10509  -0.08954  -0.08757  -0.06620
 Alpha virt. eigenvalues --   -0.05845  -0.03692  -0.03369  -0.03098  -0.01933
 Alpha virt. eigenvalues --   -0.01313  -0.00777  -0.00068  -0.00013   0.01222

 Mulliken charges:
               1
     1  N   -0.749440
     2  H    0.415148
     3  H    0.428813
     4  H    0.414393
     5  C   -0.123002
     6  H    0.210326
     7  C    0.636728
     8  C   -0.317029
     9  H    0.204019
    10  H    0.201852
    11  O   -0.528665
    12  C   -0.369825
    13  H    0.174925
    14  H    0.135761
    15  C    0.618555
    16  O   -0.601622
    17  O   -0.568674
    18  N   -0.573998
    19  H    0.366402
    20  C   -0.106342
    21  H    0.192359
    22  C    0.633424
    23  C   -0.249955
    24  H    0.156666
    25  H    0.161070
    26  O   -0.540628
    27  C   -0.100644
    28  H    0.141780
    29  C   -0.451484
    30  H    0.158982
    31  H    0.163263
    32  H    0.123089
    33  C   -0.446102
    34  H    0.152053
    35  H    0.153618
    36  H    0.156966
    37  N   -0.602901
    38  H    0.364616
    39  C   -0.071320
    40  H    0.221028
    41  C    0.598615
    42  C   -0.273597
    43  H    0.181761
    44  H    0.150500
    45  O   -0.437815
    46  C   -0.286610
    47  H    0.171402
    48  H    0.169627
    49  C   -0.146840
    50  H    0.161251
    51  H    0.164890
    52  N   -0.632225
    53  H    0.429790
    54  N   -0.759631
    55  H    0.360644
    56  H    0.365065
    57  N   -0.794891
    58  H    0.344654
    59  H    0.433325
    60  C    0.765170
    61  O   -0.580287
    62  H    0.431002
 Sum of Mulliken charges =   1.00000

 Dipole moment (field-independent basis, Debye):
    X=             -1.1317    Y=              5.0463    Z=            -12.0681  Tot=             13.1295
 Quadrupole moment (field-independent basis, Debye-Ang):
   XX=           -107.0684   YY=           -129.9943   ZZ=            -82.0791
   XY=             48.4021   XZ=             -7.9300   YZ=            -25.4645

 Normal termination of Gaussian 16 at Thu Jun 23 05:40:36 2022.
