 Gaussian 16, Revision C.01,
 Gaussian 16:  ES64L-G16RevC.01  3-Jul-2019

 ----------------------------------------------------------------------
 # B3LYP/6-31G* empiricaldispersion=gd3bj guess=read geom=check nosymm
 integral(ultrafinegrid)
 ----------------------------------------------------------------------

 ------------------------------------------------------
 Candidate Structure: Conf:102 Charge calc in gas phase
 ------------------------------------------------------
 Structure from the checkpoint file:  "conf-102.chk"
 Charge =  1 Multiplicity = 1

                          Input orientation:
 ---------------------------------------------------------------------
 Center     Atomic      Atomic             Coordinates (Angstroms)
 Number     Number       Type             X           Y           Z
 ---------------------------------------------------------------------
      1          7           0       -3.374931   -1.531116   -3.351868
      2          1           0       -3.412278   -2.477837   -2.963089
      3          1           0       -3.757855   -0.859185   -2.633300
      4          1           0       -3.918612   -1.508001   -4.218647
      5          6           0       -1.950095   -1.025102   -3.530916
      6          1           0       -1.277613   -1.862723   -3.701624
      7          6           0       -1.691816   -0.334793   -2.170191
      8          6           0       -1.947366   -0.061041   -4.726234
      9          1           0       -2.764048    0.660628   -4.588169
     10          1           0       -2.170054   -0.646442   -5.628241
     11          8           0       -2.687284    0.100046   -1.564073
     12          6           0       -0.638477    0.709895   -4.934083
     13          1           0       -0.728751    1.319695   -5.835293
     14          1           0       -0.488018    1.398157   -4.091613
     15          6           0        0.624020   -0.162985   -5.046160
     16          8           0        0.785473   -1.052842   -4.136024
     17          8           0        1.418431    0.096061   -5.968867
     18          7           0       -0.429799   -0.292512   -1.758623
     19          1           0        0.280793   -0.634806   -2.429241
     20          6           0       -0.030496    0.283118   -0.472878
     21          1           0       -0.681113    1.136448   -0.263591
     22          6           0        1.431242    0.710662   -0.581727
     23          6           0       -0.088956   -0.743556    0.684990
     24          1           0        0.400500   -0.283498    1.555469
     25          1           0        0.535645   -1.593410    0.387113
     26          8           0        2.263729   -0.055889   -1.073453
     27          6           0       -1.482476   -1.229170    1.115436
     28          1           0       -1.994170   -1.641156    0.235486
     29          6           0       -1.321482   -2.359343    2.141452
     30          1           0       -0.810194   -1.998689    3.042405
     31          1           0       -2.297858   -2.748140    2.449476
     32          1           0       -0.736536   -3.192821    1.735858
     33          6           0       -2.340901   -0.093105    1.682519
     34          1           0       -1.844415    0.376531    2.541239
     35          1           0       -2.548198    0.674654    0.932302
     36          1           0       -3.305514   -0.477391    2.030990
     37          7           0        1.757932    1.904516   -0.045780
     38          1           0        1.065545    2.424900    0.484675
     39          6           0        3.140784    2.266402    0.241949
     40          1           0        3.724271    1.344003    0.319801
     41          6           0        3.135074    2.956882    1.601694
     42          6           0        3.766793    3.199500   -0.820336
     43          1           0        4.751636    3.512837   -0.455888
     44          1           0        3.148279    4.102535   -0.878860
     45          8           0        2.127862    3.307151    2.177090
     46          6           0        3.893052    2.591675   -2.222832
     47          1           0        2.937029    2.156552   -2.532767
     48          1           0        4.108417    3.403714   -2.927969
     49          6           0        5.001903    1.535376   -2.357535
     50          1           0        4.836278    0.689007   -1.686070
     51          1           0        5.972865    1.959874   -2.086954
     52          7           0        5.125504    1.031843   -3.729489
     53          1           0        5.652426    1.613899   -4.366203
     54          7           0        3.393851   -0.510496   -3.548533
     55          1           0        2.555994   -0.960618   -3.956873
     56          1           0        3.299974   -0.334140   -2.553489
     57          7           0        4.141492    0.089799   -5.639113
     58          1           0        3.196745   -0.160296   -5.984068
     59          1           0        4.637768    0.765693   -6.203561
     60          6           0        4.201524    0.220012   -4.301090
     61          8           0        4.379115    3.151602    2.062824
     62          1           0        4.306852    3.617762    2.918360
 ---------------------------------------------------------------------

 SCF Done:  E(RB3LYP) =  -1447.56312992     A.U. after    1 cycles

 Alpha  occ. eigenvalues --  -19.30467 -19.25204 -19.25046 -19.23840 -19.18983
 Alpha  occ. eigenvalues --  -19.18322 -14.58979 -14.48011 -14.47862 -14.47731
 Alpha  occ. eigenvalues --  -14.45009 -14.44273 -10.43047 -10.42529 -10.41832
 Alpha  occ. eigenvalues --  -10.40818 -10.38338 -10.36681 -10.35085 -10.34648
 Alpha  occ. eigenvalues --  -10.33653 -10.32293 -10.30153 -10.29625 -10.28510
 Alpha  occ. eigenvalues --  -10.28399 -10.27651 -10.25153 -10.24883  -1.21588
 Alpha  occ. eigenvalues --   -1.17691  -1.15853  -1.12773  -1.12650  -1.12066
 Alpha  occ. eigenvalues --   -1.11238  -1.04861  -1.04489  -1.02930  -1.01437
 Alpha  occ. eigenvalues --   -0.98454  -0.92777  -0.91512  -0.90087  -0.86681
 Alpha  occ. eigenvalues --   -0.85052  -0.82821  -0.79568  -0.76649  -0.76037
 Alpha  occ. eigenvalues --   -0.75379  -0.73789  -0.72899  -0.72467  -0.71454
 Alpha  occ. eigenvalues --   -0.70341  -0.69605  -0.69112  -0.68802  -0.66782
 Alpha  occ. eigenvalues --   -0.64792  -0.64049  -0.62216  -0.61834  -0.61024
 Alpha  occ. eigenvalues --   -0.60113  -0.59404  -0.59102  -0.58462  -0.58291
 Alpha  occ. eigenvalues --   -0.57625  -0.57202  -0.56513  -0.56264  -0.55715
 Alpha  occ. eigenvalues --   -0.55266  -0.54085  -0.53545  -0.53111  -0.52464
 Alpha  occ. eigenvalues --   -0.52279  -0.51526  -0.51183  -0.50864  -0.50218
 Alpha  occ. eigenvalues --   -0.49724  -0.49681  -0.49020  -0.48674  -0.48068
 Alpha  occ. eigenvalues --   -0.47551  -0.47182  -0.46366  -0.46120  -0.45833
 Alpha  occ. eigenvalues --   -0.45101  -0.44788  -0.44559  -0.42544  -0.41729
 Alpha  occ. eigenvalues --   -0.41258  -0.40996  -0.39615  -0.39066  -0.38281
 Alpha  occ. eigenvalues --   -0.37763  -0.37021  -0.36781  -0.36484  -0.34206
 Alpha  occ. eigenvalues --   -0.33741  -0.32462
 Alpha virt. eigenvalues --   -0.11427  -0.10153  -0.09831  -0.09362  -0.07547
 Alpha virt. eigenvalues --   -0.05055  -0.04419  -0.03855  -0.02449  -0.01444
 Alpha virt. eigenvalues --   -0.01085  -0.00528  -0.00162   0.00712   0.01299

 Mulliken charges:
               1
     1  N   -0.752947
     2  H    0.413890
     3  H    0.425257
     4  H    0.409929
     5  C   -0.105622
     6  H    0.241555
     7  C    0.629412
     8  C   -0.298626
     9  H    0.166268
    10  H    0.176439
    11  O   -0.557476
    12  C   -0.356612
    13  H    0.185811
    14  H    0.159049
    15  C    0.608621
    16  O   -0.628692
    17  O   -0.559216
    18  N   -0.620123
    19  H    0.407823
    20  C   -0.043757
    21  H    0.180081
    22  C    0.613349
    23  C   -0.260659
    24  H    0.149780
    25  H    0.165551
    26  O   -0.557210
    27  C   -0.067950
    28  H    0.108347
    29  C   -0.447095
    30  H    0.153153
    31  H    0.154916
    32  H    0.146176
    33  C   -0.459428
    34  H    0.145310
    35  H    0.164665
    36  H    0.154387
    37  N   -0.594958
    38  H    0.365482
    39  C   -0.060945
    40  H    0.204661
    41  C    0.591089
    42  C   -0.277220
    43  H    0.178701
    44  H    0.166052
    45  O   -0.455732
    46  C   -0.267344
    47  H    0.160754
    48  H    0.155701
    49  C   -0.181148
    50  H    0.190818
    51  H    0.179767
    52  N   -0.587607
    53  H    0.344106
    54  N   -0.797169
    55  H    0.406456
    56  H    0.413911
    57  N   -0.756820
    58  H    0.405434
    59  H    0.341055
    60  C    0.751103
    61  O   -0.555065
    62  H    0.434562
 Sum of Mulliken charges =   1.00000

 Dipole moment (field-independent basis, Debye):
    X=              1.4992    Y=              2.2192    Z=            -11.1178  Tot=             11.4358
 Quadrupole moment (field-independent basis, Debye-Ang):
   XX=            -78.7820   YY=           -145.0324   ZZ=           -117.2163
   XY=             54.0190   XZ=             14.6945   YZ=              1.3779

 Normal termination of Gaussian 16 at Thu Jun 23 05:40:07 2022.
