 Gaussian 16, Revision C.01,
 Gaussian 16:  ES64L-G16RevC.01  3-Jul-2019

 ----------------------------------------------------------------------
 # B3LYP/6-31G* empiricaldispersion=gd3bj guess=read geom=check nosymm
 integral(ultrafinegrid)
 ----------------------------------------------------------------------

 ------------------------------------------------------
 Candidate Structure: Conf:477 Charge calc in gas phase
 ------------------------------------------------------
 Structure from the checkpoint file:  "conf-477.chk"
 Charge =  1 Multiplicity = 1

                          Input orientation:
 ---------------------------------------------------------------------
 Center     Atomic      Atomic             Coordinates (Angstroms)
 Number     Number       Type             X           Y           Z
 ---------------------------------------------------------------------
      1          7           0       -2.967684   -0.755204   -4.039306
      2          1           0       -3.691949   -1.429019   -4.295528
      3          1           0       -3.282409   -0.099219   -3.262734
      4          1           0       -2.719191   -0.202185   -4.866577
      5          6           0       -1.736716   -1.385215   -3.415119
      6          1           0       -2.099016   -2.282350   -2.901843
      7          6           0       -1.392803   -0.378853   -2.281240
      8          6           0       -0.700330   -1.772600   -4.461341
      9          1           0       -1.162928   -2.512737   -5.125338
     10          1           0        0.106928   -2.291481   -3.935971
     11          8           0       -2.328386    0.359321   -1.916553
     12          6           0       -0.096491   -0.610582   -5.266705
     13          1           0       -0.118743   -0.813474   -6.339819
     14          1           0       -0.651667    0.331217   -5.127181
     15          6           0        1.366232   -0.295022   -4.866566
     16          8           0        2.045347    0.289534   -5.766814
     17          8           0        1.751698   -0.615137   -3.719643
     18          7           0       -0.199680   -0.472839   -1.711787
     19          1           0        0.594638   -0.832964   -2.268722
     20          6           0        0.108284    0.244936   -0.464779
     21          1           0       -0.477285    1.167676   -0.453338
     22          6           0        1.611583    0.529813   -0.459431
     23          6           0       -0.199688   -0.617601    0.777059
     24          1           0        0.193222   -0.081389    1.652633
     25          1           0        0.393846   -1.533448    0.680454
     26          8           0        2.418869   -0.373830   -0.639406
     27          6           0       -1.676051   -0.959160    1.033006
     28          1           0       -2.089149   -1.421503    0.124896
     29          6           0       -1.766690   -1.992307    2.164355
     30          1           0       -1.358398   -1.584546    3.097233
     31          1           0       -2.807808   -2.274512    2.354446
     32          1           0       -1.205773   -2.902709    1.924116
     33          6           0       -2.510469    0.284131    1.362520
     34          1           0       -2.115175    0.788822    2.253115
     35          1           0       -2.525327    0.997989    0.534426
     36          1           0       -3.548568    0.006515    1.575515
     37          7           0        1.961087    1.820270   -0.219854
     38          1           0        1.265818    2.494718    0.079476
     39          6           0        3.341903    2.202730    0.019724
     40          1           0        3.877001    1.332746    0.415190
     41          6           0        3.329486    3.305594    1.067334
     42          6           0        4.055183    2.688888   -1.263061
     43          1           0        5.072709    2.996280   -0.995484
     44          1           0        3.533246    3.582948   -1.630430
     45          8           0        2.328476    3.875856    1.444224
     46          6           0        4.071580    1.613595   -2.348736
     47          1           0        4.624209    0.732009   -2.005224
     48          1           0        3.058958    1.258535   -2.551294
     49          6           0        4.653108    2.115894   -3.673580
     50          1           0        5.724415    2.343102   -3.603872
     51          1           0        4.168900    3.049085   -3.977855
     52          7           0        4.410907    1.155846   -4.745677
     53          1           0        3.426889    1.050941   -5.082871
     54          7           0        6.320181   -0.163992   -4.393062
     55          1           0        6.961708   -0.818300   -4.817419
     56          1           0        6.738248    0.552093   -3.819058
     57          7           0        4.663157   -0.807185   -5.899832
     58          1           0        5.014819   -1.753850   -5.878609
     59          1           0        3.671153   -0.681515   -6.133185
     60          6           0        5.131099    0.071845   -4.991424
     61          8           0        4.568161    3.596186    1.499436
     62          1           0        4.485290    4.324075    2.145351
 ---------------------------------------------------------------------

 SCF Done:  E(RB3LYP) =  -1447.54394190     A.U. after    2 cycles

 Alpha  occ. eigenvalues --  -19.28868 -19.25152 -19.23385 -19.20248 -19.18762
 Alpha  occ. eigenvalues --  -19.18612 -14.58605 -14.48712 -14.47087 -14.46423
 Alpha  occ. eigenvalues --  -14.46217 -14.45093 -10.43639 -10.41776 -10.41336
 Alpha  occ. eigenvalues --  -10.39273 -10.37605 -10.36939 -10.32941 -10.32791
 Alpha  occ. eigenvalues --  -10.32727 -10.31735 -10.29379 -10.28390 -10.27147
 Alpha  occ. eigenvalues --  -10.26801 -10.26623 -10.24199 -10.23985  -1.19933
 Alpha  occ. eigenvalues --   -1.17661  -1.12754  -1.12691  -1.12305  -1.11756
 Alpha  occ. eigenvalues --   -1.11022  -1.04129  -1.03104  -1.01856  -1.01729
 Alpha  occ. eigenvalues --   -1.00569  -0.92628  -0.89857  -0.88829  -0.85592
 Alpha  occ. eigenvalues --   -0.84530  -0.82551  -0.78466  -0.76198  -0.75121
 Alpha  occ. eigenvalues --   -0.74271  -0.73989  -0.73043  -0.71543  -0.70477
 Alpha  occ. eigenvalues --   -0.69700  -0.69333  -0.67837  -0.67549  -0.66233
 Alpha  occ. eigenvalues --   -0.65572  -0.63301  -0.62152  -0.61190  -0.60039
 Alpha  occ. eigenvalues --   -0.59551  -0.59095  -0.59007  -0.58364  -0.57395
 Alpha  occ. eigenvalues --   -0.56820  -0.56252  -0.55993  -0.55472  -0.54763
 Alpha  occ. eigenvalues --   -0.54406  -0.53745  -0.53075  -0.52811  -0.51914
 Alpha  occ. eigenvalues --   -0.51398  -0.50517  -0.50451  -0.49523  -0.49128
 Alpha  occ. eigenvalues --   -0.48798  -0.48480  -0.47995  -0.47382  -0.46719
 Alpha  occ. eigenvalues --   -0.46348  -0.46317  -0.45285  -0.45111  -0.44977
 Alpha  occ. eigenvalues --   -0.44424  -0.43685  -0.42675  -0.40942  -0.40593
 Alpha  occ. eigenvalues --   -0.40039  -0.39898  -0.39497  -0.39432  -0.37542
 Alpha  occ. eigenvalues --   -0.37082  -0.36076  -0.34651  -0.34423  -0.33886
 Alpha  occ. eigenvalues --   -0.33364  -0.32773
 Alpha virt. eigenvalues --   -0.11879  -0.09047  -0.08477  -0.07920  -0.06605
 Alpha virt. eigenvalues --   -0.05684  -0.05141  -0.03641  -0.02182  -0.01490
 Alpha virt. eigenvalues --   -0.00909  -0.00312   0.00692   0.01157   0.01466

 Mulliken charges:
               1
     1  N   -0.749958
     2  H    0.410496
     3  H    0.431455
     4  H    0.407793
     5  C   -0.132566
     6  H    0.227118
     7  C    0.646201
     8  C   -0.290435
     9  H    0.163093
    10  H    0.213267
    11  O   -0.558446
    12  C   -0.384485
    13  H    0.186320
    14  H    0.143340
    15  C    0.597000
    16  O   -0.611237
    17  O   -0.555504
    18  N   -0.622223
    19  H    0.418844
    20  C   -0.054669
    21  H    0.175230
    22  C    0.613453
    23  C   -0.254437
    24  H    0.149823
    25  H    0.166692
    26  O   -0.521198
    27  C   -0.074264
    28  H    0.107588
    29  C   -0.445226
    30  H    0.152525
    31  H    0.151544
    32  H    0.145225
    33  C   -0.458639
    34  H    0.145743
    35  H    0.163625
    36  H    0.150251
    37  N   -0.612906
    38  H    0.356033
    39  C   -0.045347
    40  H    0.205246
    41  C    0.585704
    42  C   -0.271439
    43  H    0.166364
    44  H    0.148973
    45  O   -0.460485
    46  C   -0.273492
    47  H    0.162184
    48  H    0.198173
    49  C   -0.185566
    50  H    0.150134
    51  H    0.182209
    52  N   -0.588322
    53  H    0.410024
    54  N   -0.754793
    55  H    0.368819
    56  H    0.372109
    57  N   -0.769477
    58  H    0.352786
    59  H    0.402684
    60  C    0.776837
    61  O   -0.558845
    62  H    0.429055
 Sum of Mulliken charges =   1.00000

 Dipole moment (field-independent basis, Debye):
    X=              5.3884    Y=             -1.4468    Z=            -17.2553  Tot=             18.1349
 Quadrupole moment (field-independent basis, Debye-Ang):
   XX=            -50.2580   YY=           -148.1592   ZZ=            -86.0198
   XY=             25.0415   XZ=            -10.2302   YZ=             25.4178

 Normal termination of Gaussian 16 at Thu Jun 23 05:40:34 2022.
