 Gaussian 16, Revision C.01,
 Gaussian 16:  ES64L-G16RevC.01  3-Jul-2019

 ----------------------------------------------------------------------
 # B3LYP/6-31G* empiricaldispersion=gd3bj guess=read geom=check nosymm
 integral(ultrafinegrid)
 ----------------------------------------------------------------------

 -----------------------------------------------------
 Candidate Structure: Conf:34 Charge calc in gas phase
 -----------------------------------------------------
 Structure from the checkpoint file:  "conf-34.chk"
 Charge =  1 Multiplicity = 1

                          Input orientation:
 ---------------------------------------------------------------------
 Center     Atomic      Atomic             Coordinates (Angstroms)
 Number     Number       Type             X           Y           Z
 ---------------------------------------------------------------------
      1          7           0       -2.971123   -0.284121   -4.017860
      2          1           0       -3.594563   -1.090959   -3.921873
      3          1           0       -3.256213    0.448133   -3.311200
      4          1           0       -3.036708    0.077605   -4.973457
      5          6           0       -1.535501   -0.575010   -3.611006
      6          1           0       -1.355442   -1.646647   -3.722506
      7          6           0       -1.515207   -0.105828   -2.138702
      8          6           0       -0.597422    0.274980   -4.485286
      9          1           0       -0.766743    1.337302   -4.277938
     10          1           0       -0.864600    0.104047   -5.537530
     11          8           0       -2.376544    0.715277   -1.791146
     12          6           0        0.895790   -0.005222   -4.300110
     13          1           0        1.161922   -0.142597   -3.247915
     14          1           0        1.208454   -0.914661   -4.821584
     15          6           0        1.786324    1.171962   -4.774289
     16          8           0        1.188253    2.308586   -4.899367
     17          8           0        2.991473    0.948330   -4.926061
     18          7           0       -0.546174   -0.589989   -1.364313
     19          1           0        0.188579   -1.163813   -1.775260
     20          6           0       -0.115828    0.042279   -0.115445
     21          1           0       -0.622544    1.006948   -0.040456
     22          6           0        1.400579    0.229769   -0.281666
     23          6           0       -0.415609   -0.828799    1.117227
     24          1           0        0.028323   -0.338751    1.994509
     25          1           0        0.114496   -1.781545    0.992674
     26          8           0        2.030496   -0.501546   -1.046362
     27          6           0       -1.908724   -1.087922    1.376673
     28          1           0       -2.331333   -1.544387    0.469738
     29          6           0       -2.061017   -2.090370    2.527750
     30          1           0       -1.652983   -1.679524    3.459459
     31          1           0       -3.115936   -2.325254    2.703520
     32          1           0       -1.535841   -3.028791    2.316904
     33          6           0       -2.680126    0.205540    1.668336
     34          1           0       -2.246070    0.731916    2.528267
     35          1           0       -2.687404    0.884619    0.810303
     36          1           0       -3.723253   -0.018685    1.915229
     37          7           0        1.965838    1.213118    0.450501
     38          1           0        1.405322    1.719535    1.122595
     39          6           0        3.406272    1.427694    0.449930
     40          1           0        3.842031    0.539025   -0.017716
     41          6           0        3.980104    1.521532    1.858882
     42          6           0        3.829215    2.666570   -0.364543
     43          1           0        4.922956    2.708839   -0.332909
     44          1           0        3.464270    3.572575    0.138520
     45          8           0        5.142941    1.748790    2.086778
     46          6           0        3.321825    2.634750   -1.807409
     47          1           0        3.599418    1.704052   -2.313608
     48          1           0        2.225403    2.679749   -1.811897
     49          6           0        3.865871    3.819230   -2.612882
     50          1           0        4.948176    3.697968   -2.736204
     51          1           0        3.694382    4.760728   -2.073786
     52          7           0        3.219316    3.868110   -3.919364
     53          1           0        2.323145    3.356040   -4.039529
     54          7           0        5.102272    4.511320   -5.152653
     55          1           0        5.472744    4.798355   -6.046621
     56          1           0        5.524022    4.943930   -4.345305
     57          7           0        3.128720    3.828981   -6.205180
     58          1           0        3.637254    3.706303   -7.069657
     59          1           0        2.310041    3.213631   -6.045727
     60          6           0        3.828721    4.061778   -5.083496
     61          8           0        3.046072    1.346201    2.824035
     62          1           0        3.511693    1.432809    3.678427
 ---------------------------------------------------------------------

 SCF Done:  E(RB3LYP) =  -1447.52983412     A.U. after    2 cycles

 Alpha  occ. eigenvalues --  -19.29317 -19.26527 -19.23029 -19.22877 -19.16639
 Alpha  occ. eigenvalues --  -19.15021 -14.59640 -14.49319 -14.47769 -14.47334
 Alpha  occ. eigenvalues --  -14.45368 -14.44658 -10.43248 -10.42484 -10.41435
 Alpha  occ. eigenvalues --  -10.39942 -10.39791 -10.34771 -10.34133 -10.33739
 Alpha  occ. eigenvalues --  -10.32479 -10.31057 -10.28715 -10.28690 -10.27961
 Alpha  occ. eigenvalues --  -10.27864 -10.26874 -10.25322 -10.25190  -1.19986
 Alpha  occ. eigenvalues --   -1.18967  -1.15078  -1.13465  -1.11507  -1.10968
 Alpha  occ. eigenvalues --   -1.09048  -1.06154  -1.03860  -1.01112  -1.00144
 Alpha  occ. eigenvalues --   -0.99204  -0.93035  -0.90809  -0.89693  -0.86321
 Alpha  occ. eigenvalues --   -0.84455  -0.82637  -0.78349  -0.76580  -0.76090
 Alpha  occ. eigenvalues --   -0.75167  -0.73520  -0.73148  -0.72176  -0.71467
 Alpha  occ. eigenvalues --   -0.70094  -0.69864  -0.69580  -0.67811  -0.66359
 Alpha  occ. eigenvalues --   -0.65347  -0.64361  -0.62706  -0.62295  -0.59888
 Alpha  occ. eigenvalues --   -0.59488  -0.59154  -0.58628  -0.57908  -0.57459
 Alpha  occ. eigenvalues --   -0.57139  -0.56581  -0.56301  -0.55891  -0.55553
 Alpha  occ. eigenvalues --   -0.53786  -0.53512  -0.53297  -0.53059  -0.52120
 Alpha  occ. eigenvalues --   -0.51871  -0.50947  -0.50644  -0.49938  -0.49467
 Alpha  occ. eigenvalues --   -0.49119  -0.48166  -0.47987  -0.47702  -0.47146
 Alpha  occ. eigenvalues --   -0.46441  -0.46261  -0.45483  -0.45061  -0.44757
 Alpha  occ. eigenvalues --   -0.44344  -0.43357  -0.42369  -0.41884  -0.41480
 Alpha  occ. eigenvalues --   -0.41301  -0.41003  -0.40705  -0.39155  -0.38473
 Alpha  occ. eigenvalues --   -0.38227  -0.36618  -0.35427  -0.34886  -0.31875
 Alpha  occ. eigenvalues --   -0.31601  -0.29164
 Alpha virt. eigenvalues --   -0.12110  -0.10431  -0.08608  -0.08319  -0.07017
 Alpha virt. eigenvalues --   -0.05737  -0.03785  -0.03572  -0.02896  -0.01709
 Alpha virt. eigenvalues --   -0.01288  -0.00113   0.00021   0.00290   0.00949

 Mulliken charges:
               1
     1  N   -0.748923
     2  H    0.413588
     3  H    0.429806
     4  H    0.414539
     5  C   -0.119314
     6  H    0.207058
     7  C    0.649570
     8  C   -0.289063
     9  H    0.205269
    10  H    0.159804
    11  O   -0.538813
    12  C   -0.398268
    13  H    0.178788
    14  H    0.171051
    15  C    0.596469
    16  O   -0.650442
    17  O   -0.555713
    18  N   -0.579482
    19  H    0.372406
    20  C   -0.102032
    21  H    0.191573
    22  C    0.640179
    23  C   -0.258029
    24  H    0.153563
    25  H    0.158893
    26  O   -0.525996
    27  C   -0.069781
    28  H    0.120262
    29  C   -0.446167
    30  H    0.151782
    31  H    0.157450
    32  H    0.149641
    33  C   -0.468434
    34  H    0.142871
    35  H    0.164167
    36  H    0.158940
    37  N   -0.599232
    38  H    0.350910
    39  C   -0.076460
    40  H    0.231527
    41  C    0.598950
    42  C   -0.272901
    43  H    0.186031
    44  H    0.146207
    45  O   -0.439368
    46  C   -0.305936
    47  H    0.207659
    48  H    0.147213
    49  C   -0.136381
    50  H    0.162075
    51  H    0.165746
    52  N   -0.610982
    53  H    0.405743
    54  N   -0.755737
    55  H    0.366842
    56  H    0.369300
    57  N   -0.764493
    58  H    0.347330
    59  H    0.405533
    60  C    0.783986
    61  O   -0.579795
    62  H    0.429024
 Sum of Mulliken charges =   1.00000

 Dipole moment (field-independent basis, Debye):
    X=             -1.2840    Y=              6.4600    Z=            -13.6957  Tot=             15.1971
 Quadrupole moment (field-independent basis, Debye-Ang):
   XX=           -109.0293   YY=           -124.7396   ZZ=            -73.2555
   XY=             59.5179   XZ=              3.3529   YZ=            -28.2736

 Normal termination of Gaussian 16 at Thu Jun 23 05:40:19 2022.
