 Gaussian 16, Revision C.01,
 Gaussian 16:  ES64L-G16RevC.01  3-Jul-2019

 ----------------------------------------------------------------------
 # B3LYP/6-31G* empiricaldispersion=gd3bj guess=read geom=check nosymm
 integral(ultrafinegrid)
 ----------------------------------------------------------------------

 ------------------------------------------------------
 Candidate Structure: Conf:315 Charge calc in gas phase
 ------------------------------------------------------
 Structure from the checkpoint file:  "conf-315.chk"
 Charge =  1 Multiplicity = 1

                          Input orientation:
 ---------------------------------------------------------------------
 Center     Atomic      Atomic             Coordinates (Angstroms)
 Number     Number       Type             X           Y           Z
 ---------------------------------------------------------------------
      1          7           0       -2.083099    1.452396   -4.264782
      2          1           0       -2.629392    1.344392   -5.118174
      3          1           0       -2.670936    1.919952   -3.570960
      4          1           0       -0.595616    2.192879   -4.139104
      5          6           0       -1.699232    0.143101   -3.699308
      6          1           0       -2.567620   -0.525419   -3.604090
      7          6           0       -1.276352    0.450590   -2.244724
      8          6           0       -0.675641   -0.555846   -4.612990
      9          1           0       -1.226504   -1.084531   -5.397813
     10          1           0       -0.154930   -1.347581   -4.063445
     11          8           0       -1.907936    1.310868   -1.632052
     12          6           0        0.350946    0.353191   -5.329321
     13          1           0        1.099801   -0.265881   -5.826942
     14          1           0       -0.173625    0.914019   -6.112264
     15          6           0        1.102342    1.388243   -4.512977
     16          8           0        2.328177    1.402858   -4.466081
     17          8           0        0.394556    2.339011   -3.928846
     18          7           0       -0.262568   -0.257569   -1.684581
     19          1           0        0.379263   -0.762688   -2.279046
     20          6           0        0.274906    0.142903   -0.384077
     21          1           0       -0.413428    0.897852   -0.002539
     22          6           0        1.648587    0.746824   -0.659191
     23          6           0        0.391240   -1.037055    0.592835
     24          1           0        0.806926   -0.653299    1.534879
     25          1           0        1.125035   -1.749104    0.193500
     26          8           0        2.416356    0.235751   -1.476296
     27          6           0       -0.936166   -1.759975    0.872778
     28          1           0       -1.300877   -2.161562   -0.082575
     29          6           0       -0.687959   -2.937881    1.822776
     30          1           0       -0.333712   -2.585321    2.799461
     31          1           0       -1.609662   -3.504853    1.989335
     32          1           0        0.064044   -3.627353    1.421895
     33          6           0       -2.006186   -0.813473    1.432673
     34          1           0       -1.652049   -0.324600    2.350146
     35          1           0       -2.289866   -0.035026    0.716583
     36          1           0       -2.913668   -1.370378    1.688605
     37          7           0        1.936754    1.875903    0.034026
     38          1           0        1.264920    2.232220    0.701915
     39          6           0        3.154840    2.621732   -0.210981
     40          1           0        3.681050    2.019818   -0.943376
     41          6           0        4.088298    2.687222    0.985420
     42          6           0        2.908309    4.037744   -0.788750
     43          1           0        2.514206    4.686699    0.000547
     44          1           0        2.129353    3.946399   -1.554424
     45          8           0        5.298856    2.675356    0.878046
     46          6           0        4.199610    4.633624   -1.383117
     47          1           0        4.126902    5.727453   -1.396908
     48          1           0        5.039005    4.426613   -0.717922
     49          6           0        4.487772    4.193052   -2.833009
     50          1           0        5.500182    4.465347   -3.147848
     51          1           0        3.795423    4.713985   -3.499657
     52          7           0        4.290887    2.764530   -3.116317
     53          1           0        3.408935    2.473841   -3.557605
     54          7           0        6.172862    1.959179   -2.035998
     55          1           0        6.860036    1.233217   -1.925756
     56          1           0        6.117535    2.625775   -1.283201
     57          7           0        4.969311    0.576904   -3.466944
     58          1           0        5.252547   -0.256600   -2.963679
     59          1           0        4.118617    0.451629   -4.014469
     60          6           0        5.138444    1.777468   -2.853439
     61          8           0        3.434831    2.815565    2.150588
     62          1           0        4.101473    2.879740    2.862225
 ---------------------------------------------------------------------

 SCF Done:  E(RB3LYP) =  -1447.57487533     A.U. after    1 cycles

 Alpha  occ. eigenvalues --  -19.31579 -19.28164 -19.26095 -19.25030 -19.22768
 Alpha  occ. eigenvalues --  -19.21982 -14.49697 -14.48642 -14.48532 -14.47713
 Alpha  occ. eigenvalues --  -14.46584 -14.45224 -10.45474 -10.43900 -10.43017
 Alpha  occ. eigenvalues --  -10.39729 -10.39419 -10.34817 -10.34547 -10.34477
 Alpha  occ. eigenvalues --  -10.32973 -10.31444 -10.31080 -10.30792 -10.30304
 Alpha  occ. eigenvalues --  -10.27707 -10.26811 -10.24453 -10.24407  -1.22499
 Alpha  occ. eigenvalues --   -1.20234  -1.14959  -1.14410  -1.13970  -1.13596
 Alpha  occ. eigenvalues --   -1.11875  -1.04282  -1.03628  -1.02992  -1.02236
 Alpha  occ. eigenvalues --   -1.01544  -0.92019  -0.90557  -0.89483  -0.87010
 Alpha  occ. eigenvalues --   -0.84306  -0.81658  -0.80362  -0.76863  -0.75671
 Alpha  occ. eigenvalues --   -0.75190  -0.74348  -0.73246  -0.72100  -0.70987
 Alpha  occ. eigenvalues --   -0.70598  -0.69818  -0.68856  -0.66915  -0.65683
 Alpha  occ. eigenvalues --   -0.64107  -0.63652  -0.63185  -0.62524  -0.61883
 Alpha  occ. eigenvalues --   -0.60755  -0.60291  -0.59653  -0.59450  -0.58958
 Alpha  occ. eigenvalues --   -0.58323  -0.57171  -0.57048  -0.56339  -0.55719
 Alpha  occ. eigenvalues --   -0.54425  -0.54323  -0.53795  -0.53364  -0.52908
 Alpha  occ. eigenvalues --   -0.52761  -0.52354  -0.51485  -0.50663  -0.50067
 Alpha  occ. eigenvalues --   -0.49782  -0.49249  -0.49005  -0.48450  -0.47430
 Alpha  occ. eigenvalues --   -0.47263  -0.47017  -0.46623  -0.46180  -0.46106
 Alpha  occ. eigenvalues --   -0.45661  -0.45483  -0.44169  -0.43588  -0.41911
 Alpha  occ. eigenvalues --   -0.41146  -0.40818  -0.40348  -0.40314  -0.40054
 Alpha  occ. eigenvalues --   -0.39234  -0.38462  -0.38266  -0.37375  -0.36544
 Alpha  occ. eigenvalues --   -0.35867  -0.34830
 Alpha virt. eigenvalues --   -0.11110  -0.10943  -0.10225  -0.09207  -0.07893
 Alpha virt. eigenvalues --   -0.04927  -0.03670  -0.03587  -0.01879  -0.01298
 Alpha virt. eigenvalues --   -0.00491  -0.00043   0.00538   0.01678   0.01721

 Mulliken charges:
               1
     1  N   -0.787442
     2  H    0.338592
     3  H    0.367428
     4  H    0.469258
     5  C   -0.081921
     6  H    0.193976
     7  C    0.632018
     8  C   -0.309276
     9  H    0.180955
    10  H    0.165246
    11  O   -0.524967
    12  C   -0.372475
    13  H    0.189565
    14  H    0.190668
    15  C    0.619836
    16  O   -0.515687
    17  O   -0.583798
    18  N   -0.602872
    19  H    0.345117
    20  C   -0.092460
    21  H    0.196511
    22  C    0.644425
    23  C   -0.262049
    24  H    0.142879
    25  H    0.148169
    26  O   -0.561910
    27  C   -0.067445
    28  H    0.130848
    29  C   -0.445156
    30  H    0.146825
    31  H    0.157972
    32  H    0.144229
    33  C   -0.470819
    34  H    0.139304
    35  H    0.167889
    36  H    0.159019
    37  N   -0.606981
    38  H    0.352587
    39  C   -0.059456
    40  H    0.202526
    41  C    0.608431
    42  C   -0.288920
    43  H    0.172646
    44  H    0.182336
    45  O   -0.472487
    46  C   -0.312067
    47  H    0.179852
    48  H    0.171664
    49  C   -0.162694
    50  H    0.191107
    51  H    0.192364
    52  N   -0.604568
    53  H    0.413287
    54  N   -0.742578
    55  H    0.371811
    56  H    0.398266
    57  N   -0.753946
    58  H    0.360599
    59  H    0.400369
    60  C    0.734311
    61  O   -0.554451
    62  H    0.433539
 Sum of Mulliken charges =   1.00000

 Dipole moment (field-independent basis, Debye):
    X=             11.4350    Y=              6.2984    Z=            -10.6241  Tot=             16.8315
 Quadrupole moment (field-independent basis, Debye-Ang):
   XX=            -90.8681   YY=           -135.9830   ZZ=           -106.6379
   XY=             31.1517   XZ=             -3.6543   YZ=             -4.5912

 Normal termination of Gaussian 16 at Thu Jun 23 05:40:12 2022.
