 Gaussian 16, Revision C.01,
 Gaussian 16:  ES64L-G16RevC.01  3-Jul-2019

 ----------------------------------------------------------------------
 # B3LYP/6-31G* empiricaldispersion=gd3bj guess=read geom=check nosymm
 integral(ultrafinegrid)
 ----------------------------------------------------------------------

 ------------------------------------------------------
 Candidate Structure: Conf:304 Charge calc in gas phase
 ------------------------------------------------------
 Structure from the checkpoint file:  "conf-304.chk"
 Charge =  1 Multiplicity = 1

                          Input orientation:
 ---------------------------------------------------------------------
 Center     Atomic      Atomic             Coordinates (Angstroms)
 Number     Number       Type             X           Y           Z
 ---------------------------------------------------------------------
      1          7           0       -2.306308    1.022480   -3.869440
      2          1           0       -3.200807    0.575357   -4.087476
      3          1           0       -2.449141    1.698678   -3.071327
      4          1           0       -1.959151    1.501133   -4.707546
      5          6           0       -1.273325    0.067235   -3.312957
      6          1           0       -1.542200   -0.948635   -3.610596
      7          6           0       -1.340606    0.324057   -1.790573
      8          6           0        0.126889    0.482025   -3.781914
      9          1           0        0.843295   -0.237488   -3.377685
     10          1           0        0.355764    1.445191   -3.313796
     11          8           0       -1.898844    1.364119   -1.411355
     12          6           0        0.380216    0.595962   -5.288041
     13          1           0        0.292386   -0.379319   -5.779338
     14          1           0       -0.288762    1.308249   -5.788651
     15          6           0        1.825142    1.138675   -5.417159
     16          8           0        1.967672    2.271777   -5.933327
     17          8           0        2.711548    0.399516   -4.899652
     18          7           0       -0.669314   -0.511701   -0.995873
     19          1           0       -0.194342   -1.304541   -1.412316
     20          6           0       -0.254694   -0.139106    0.373127
     21          1           0       -0.941719    0.651026    0.681966
     22          6           0        1.183231    0.444380    0.286373
     23          6           0       -0.334997   -1.330237    1.320456
     24          1           0       -0.016938   -0.979021    2.308689
     25          1           0        0.413682   -2.074033    1.020960
     26          8           0        2.130399   -0.073042    0.859783
     27          6           0       -1.725879   -1.979616    1.416567
     28          1           0       -1.988725   -2.371935    0.422441
     29          6           0       -1.672969   -3.163403    2.390036
     30          1           0       -1.433371   -2.822244    3.404435
     31          1           0       -2.637193   -3.680744    2.431254
     32          1           0       -0.910027   -3.892365    2.094210
     33          6           0       -2.811992   -0.977714    1.830578
     34          1           0       -2.560578   -0.503741    2.787727
     35          1           0       -2.954334   -0.183472    1.088677
     36          1           0       -3.774824   -1.483900    1.956566
     37          7           0        1.283175    1.523679   -0.536088
     38          1           0        0.446347    1.973178   -0.890709
     39          6           0        2.541960    2.116935   -0.965436
     40          1           0        3.064885    2.572857   -0.115058
     41          6           0        2.165621    3.200549   -1.968826
     42          6           0        3.474004    1.078293   -1.647691
     43          1           0        3.067555    0.853952   -2.638954
     44          1           0        3.411454    0.164338   -1.055241
     45          8           0        1.042714    3.363813   -2.408516
     46          6           0        4.949280    1.515244   -1.746464
     47          1           0        5.042920    2.603997   -1.712014
     48          1           0        5.511564    1.121167   -0.892151
     49          6           0        5.606096    1.019756   -3.042712
     50          1           0        5.474072   -0.059586   -3.158056
     51          1           0        6.687637    1.194236   -3.021835
     52          7           0        5.008503    1.629735   -4.232045
     53          1           0        4.148961    1.154194   -4.610303
     54          7           0        6.341184    3.543503   -4.244488
     55          1           0        6.503437    4.483521   -4.572073
     56          1           0        7.142053    3.040919   -3.894293
     57          7           0        4.343240    3.486077   -5.433648
     58          1           0        4.663343    4.224626   -6.045350
     59          1           0        3.451270    2.988220   -5.696919
     60          6           0        5.236405    2.869247   -4.646437
     61          8           0        3.214374    3.933337   -2.367759
     62          1           0        2.904608    4.508621   -3.094590
 ---------------------------------------------------------------------

 SCF Done:  E(RB3LYP) =  -1447.54192198     A.U. after    2 cycles

 Alpha  occ. eigenvalues --  -19.30863 -19.27307 -19.25476 -19.21539 -19.18530
 Alpha  occ. eigenvalues --  -19.18526 -14.59849 -14.50591 -14.48309 -14.45822
 Alpha  occ. eigenvalues --  -14.45644 -14.45534 -10.44012 -10.43402 -10.43293
 Alpha  occ. eigenvalues --  -10.40511 -10.38748 -10.36753 -10.34344 -10.34128
 Alpha  occ. eigenvalues --  -10.32603 -10.31938 -10.29407 -10.28005 -10.27959
 Alpha  occ. eigenvalues --  -10.27414 -10.27335 -10.25170 -10.24566  -1.22067
 Alpha  occ. eigenvalues --   -1.19749  -1.14074  -1.13571  -1.12895  -1.12253
 Alpha  occ. eigenvalues --   -1.11460  -1.06994  -1.03271  -1.02544  -1.01180
 Alpha  occ. eigenvalues --   -0.99706  -0.93773  -0.90450  -0.89560  -0.86342
 Alpha  occ. eigenvalues --   -0.85075  -0.83270  -0.78614  -0.76141  -0.75592
 Alpha  occ. eigenvalues --   -0.75055  -0.74346  -0.74168  -0.73275  -0.72531
 Alpha  occ. eigenvalues --   -0.71659  -0.70347  -0.69122  -0.67195  -0.66706
 Alpha  occ. eigenvalues --   -0.65217  -0.63764  -0.63522  -0.62167  -0.61652
 Alpha  occ. eigenvalues --   -0.60924  -0.60362  -0.59489  -0.59304  -0.58295
 Alpha  occ. eigenvalues --   -0.57944  -0.57021  -0.56807  -0.56040  -0.55843
 Alpha  occ. eigenvalues --   -0.54598  -0.54122  -0.53735  -0.52811  -0.52189
 Alpha  occ. eigenvalues --   -0.51956  -0.51565  -0.51119  -0.50607  -0.50416
 Alpha  occ. eigenvalues --   -0.49692  -0.49295  -0.48654  -0.48454  -0.47186
 Alpha  occ. eigenvalues --   -0.47054  -0.46623  -0.45787  -0.45461  -0.45204
 Alpha  occ. eigenvalues --   -0.44635  -0.43938  -0.43327  -0.42586  -0.41775
 Alpha  occ. eigenvalues --   -0.41461  -0.40813  -0.40681  -0.39977  -0.39005
 Alpha  occ. eigenvalues --   -0.38795  -0.36237  -0.35397  -0.34487  -0.33931
 Alpha  occ. eigenvalues --   -0.33384  -0.32819
 Alpha virt. eigenvalues --   -0.13188  -0.10630  -0.10311  -0.08169  -0.07971
 Alpha virt. eigenvalues --   -0.05697  -0.05021  -0.04648  -0.03589  -0.02629
 Alpha virt. eigenvalues --   -0.02158  -0.01131  -0.00713   0.00524   0.00946

 Mulliken charges:
               1
     1  N   -0.747743
     2  H    0.415348
     3  H    0.434074
     4  H    0.417236
     5  C   -0.118857
     6  H    0.207015
     7  C    0.646966
     8  C   -0.341047
     9  H    0.201303
    10  H    0.212640
    11  O   -0.543734
    12  C   -0.354329
    13  H    0.172692
    14  H    0.140016
    15  C    0.604565
    16  O   -0.570635
    17  O   -0.586744
    18  N   -0.570929
    19  H    0.354032
    20  C   -0.114777
    21  H    0.214842
    22  C    0.631812
    23  C   -0.269013
    24  H    0.174619
    25  H    0.154495
    26  O   -0.499438
    27  C   -0.072721
    28  H    0.111038
    29  C   -0.444676
    30  H    0.155351
    31  H    0.155177
    32  H    0.148389
    33  C   -0.461296
    34  H    0.154955
    35  H    0.142443
    36  H    0.159219
    37  N   -0.657488
    38  H    0.368031
    39  C   -0.005755
    40  H    0.199992
    41  C    0.598778
    42  C   -0.331848
    43  H    0.182250
    44  H    0.198357
    45  O   -0.477023
    46  C   -0.275392
    47  H    0.174347
    48  H    0.167517
    49  C   -0.181457
    50  H    0.190505
    51  H    0.150817
    52  N   -0.617830
    53  H    0.426304
    54  N   -0.757169
    55  H    0.363218
    56  H    0.370803
    57  N   -0.817420
    58  H    0.344462
    59  H    0.430837
    60  C    0.772108
    61  O   -0.558975
    62  H    0.429742
 Sum of Mulliken charges =   1.00000

 Dipole moment (field-independent basis, Debye):
    X=              4.5928    Y=              7.1837    Z=            -16.2250  Tot=             18.3289
 Quadrupole moment (field-independent basis, Debye-Ang):
   XX=            -66.5551   YY=           -131.6727   ZZ=           -108.5382
   XY=             49.8401   XZ=            -22.8983   YZ=            -38.0819

 Normal termination of Gaussian 16 at Thu Jun 23 05:40:28 2022.
