 Gaussian 16, Revision C.01,
 Gaussian 16:  ES64L-G16RevC.01  3-Jul-2019

 ----------------------------------------------------------------------
 # B3LYP/6-31G* empiricaldispersion=gd3bj guess=read geom=check nosymm
 integral(ultrafinegrid)
 ----------------------------------------------------------------------

 ------------------------------------------------------
 Candidate Structure: Conf:234 Charge calc in gas phase
 ------------------------------------------------------
 Structure from the checkpoint file:  "conf-234.chk"
 Charge =  1 Multiplicity = 1

                          Input orientation:
 ---------------------------------------------------------------------
 Center     Atomic      Atomic             Coordinates (Angstroms)
 Number     Number       Type             X           Y           Z
 ---------------------------------------------------------------------
      1          7           0       -3.688023   -0.509023   -3.387623
      2          1           0       -4.285615   -1.318459   -3.196482
      3          1           0       -3.895526    0.240626   -2.669799
      4          1           0       -3.869750   -0.175100   -4.338145
      5          6           0       -2.213019   -0.773554   -3.138155
      6          1           0       -2.025349   -1.842714   -3.259585
      7          6           0       -2.042428   -0.282355   -1.680980
      8          6           0       -1.395011    0.088165   -4.115980
      9          1           0       -1.591102    1.145912   -3.908979
     10          1           0       -1.757929   -0.106875   -5.133771
     11          8           0       -2.860160    0.552000   -1.266677
     12          6           0        0.121053   -0.142371   -4.061856
     13          1           0        0.476752   -0.444188   -3.075112
     14          1           0        0.423343   -0.941233   -4.747612
     15          6           0        0.927284    1.126954   -4.414041
     16          8           0        2.168790    1.032585   -4.218111
     17          8           0        0.287242    2.127754   -4.835513
     18          7           0       -1.004875   -0.761410   -0.999090
     19          1           0       -0.325661   -1.361202   -1.464537
     20          6           0       -0.426067   -0.092327    0.171457
     21          1           0       -0.940868    0.862673    0.289277
     22          6           0        1.049094    0.110165   -0.221381
     23          6           0       -0.574512   -0.953481    1.438205
     24          1           0       -0.085274   -1.917424    1.250262
     25          1           0       -1.644630   -1.155423    1.573973
     26          8           0        1.591065   -0.696772   -0.980012
     27          6           0       -0.004421   -0.327629    2.724318
     28          1           0        1.064870   -0.129149    2.569929
     29          6           0       -0.692714    0.996639    3.083113
     30          1           0       -1.770496    0.849199    3.224701
     31          1           0       -0.283922    1.403304    4.013166
     32          1           0       -0.568185    1.769371    2.314333
     33          6           0       -0.130615   -1.328609    3.879633
     34          1           0       -1.183353   -1.560222    4.083453
     35          1           0        0.383319   -2.268925    3.651321
     36          1           0        0.304659   -0.920490    4.797553
     37          7           0        1.669090    1.193496    0.278855
     38          1           0        1.234167    1.772643    0.987566
     39          6           0        3.052879    1.498902   -0.051811
     40          1           0        3.569328    0.556968   -0.257291
     41          6           0        3.655707    2.164044    1.173712
     42          6           0        3.133415    2.407769   -1.305585
     43          1           0        2.883320    3.438236   -1.019414
     44          1           0        2.355262    2.059366   -1.988009
     45          8           0        3.003069    2.590384    2.102670
     46          6           0        4.479069    2.351654   -2.035980
     47          1           0        5.310817    2.485140   -1.337588
     48          1           0        4.590577    1.360804   -2.492016
     49          6           0        4.607438    3.429855   -3.116646
     50          1           0        5.582426    3.327021   -3.614069
     51          1           0        4.574313    4.423410   -2.651534
     52          7           0        3.522236    3.330449   -4.088594
     53          1           0        3.008371    2.410066   -4.190570
     54          7           0        3.761607    5.514157   -4.859370
     55          1           0        3.400017    6.278148   -5.410999
     56          1           0        4.763922    5.491106   -4.742708
     57          7           0        1.894362    4.238017   -5.438311
     58          1           0        1.643015    4.901859   -6.155111
     59          1           0        1.257955    3.420431   -5.244000
     60          6           0        3.064572    4.345524   -4.808243
     61          8           0        4.994473    2.261305    1.095599
     62          1           0        5.295930    2.723675    1.901772
 ---------------------------------------------------------------------

 SCF Done:  E(RB3LYP) =  -1447.54555444     A.U. after    3 cycles

 Alpha  occ. eigenvalues --  -19.29288 -19.25977 -19.23643 -19.21779 -19.17333
 Alpha  occ. eigenvalues --  -19.16757 -14.59406 -14.48774 -14.47125 -14.46097
 Alpha  occ. eigenvalues --  -14.44205 -14.44148 -10.42756 -10.41835 -10.41632
 Alpha  occ. eigenvalues --  -10.39608 -10.38876 -10.35258 -10.33920 -10.33131
 Alpha  occ. eigenvalues --  -10.31676 -10.31165 -10.27931 -10.27621 -10.27332
 Alpha  occ. eigenvalues --  -10.27232 -10.27208 -10.25403 -10.24615  -1.20277
 Alpha  occ. eigenvalues --   -1.18504  -1.14080  -1.13130  -1.11327  -1.10863
 Alpha  occ. eigenvalues --   -1.10032  -1.05553  -1.02751  -1.01764  -0.99837
 Alpha  occ. eigenvalues --   -0.98463  -0.92708  -0.90393  -0.88898  -0.85562
 Alpha  occ. eigenvalues --   -0.84058  -0.82347  -0.77422  -0.76327  -0.75944
 Alpha  occ. eigenvalues --   -0.74811  -0.73315  -0.72985  -0.72383  -0.70617
 Alpha  occ. eigenvalues --   -0.70044  -0.69169  -0.68025  -0.67316  -0.65840
 Alpha  occ. eigenvalues --   -0.64646  -0.64487  -0.62480  -0.60973  -0.59973
 Alpha  occ. eigenvalues --   -0.59853  -0.58670  -0.58267  -0.57862  -0.57288
 Alpha  occ. eigenvalues --   -0.56812  -0.56188  -0.55775  -0.55475  -0.54358
 Alpha  occ. eigenvalues --   -0.54038  -0.53412  -0.52999  -0.52577  -0.51483
 Alpha  occ. eigenvalues --   -0.51110  -0.50965  -0.50337  -0.49721  -0.49650
 Alpha  occ. eigenvalues --   -0.49406  -0.48148  -0.47868  -0.47080  -0.46779
 Alpha  occ. eigenvalues --   -0.45959  -0.45808  -0.45450  -0.44702  -0.44254
 Alpha  occ. eigenvalues --   -0.43537  -0.42949  -0.42400  -0.42000  -0.41202
 Alpha  occ. eigenvalues --   -0.41051  -0.40786  -0.40300  -0.38297  -0.37827
 Alpha  occ. eigenvalues --   -0.37408  -0.35620  -0.35298  -0.34408  -0.32565
 Alpha  occ. eigenvalues --   -0.32232  -0.31303
 Alpha virt. eigenvalues --   -0.11751  -0.10176  -0.08555  -0.07610  -0.06389
 Alpha virt. eigenvalues --   -0.05552  -0.03405  -0.03156  -0.01943  -0.01670
 Alpha virt. eigenvalues --   -0.00840  -0.00752  -0.00019   0.00678   0.01915

 Mulliken charges:
               1
     1  N   -0.748476
     2  H    0.413645
     3  H    0.429636
     4  H    0.413540
     5  C   -0.122755
     6  H    0.206385
     7  C    0.647964
     8  C   -0.285756
     9  H    0.203606
    10  H    0.163099
    11  O   -0.538412
    12  C   -0.398819
    13  H    0.183250
    14  H    0.180187
    15  C    0.616964
    16  O   -0.590851
    17  O   -0.592217
    18  N   -0.585560
    19  H    0.370022
    20  C   -0.094597
    21  H    0.194334
    22  C    0.635545
    23  C   -0.250426
    24  H    0.155657
    25  H    0.155677
    26  O   -0.532357
    27  C   -0.096945
    28  H    0.140424
    29  C   -0.454620
    30  H    0.154745
    31  H    0.171258
    32  H    0.129230
    33  C   -0.446329
    34  H    0.149098
    35  H    0.151795
    36  H    0.160494
    37  N   -0.615924
    38  H    0.368180
    39  C   -0.045753
    40  H    0.213302
    41  C    0.589293
    42  C   -0.277494
    43  H    0.142573
    44  H    0.196458
    45  O   -0.463026
    46  C   -0.310589
    47  H    0.175263
    48  H    0.185209
    49  C   -0.150577
    50  H    0.164122
    51  H    0.162169
    52  N   -0.631388
    53  H    0.432202
    54  N   -0.761016
    55  H    0.358368
    56  H    0.367124
    57  N   -0.802083
    58  H    0.341113
    59  H    0.433554
    60  C    0.768852
    61  O   -0.556395
    62  H    0.428025
 Sum of Mulliken charges =   1.00000

 Dipole moment (field-independent basis, Debye):
    X=             -1.5933    Y=              7.1311    Z=            -13.7630  Tot=             15.5824
 Quadrupole moment (field-independent basis, Debye-Ang):
   XX=            -83.8038   YY=           -107.0052   ZZ=            -92.9635
   XY=             62.3633   XZ=             17.0826   YZ=            -39.9933

 Normal termination of Gaussian 16 at Thu Jun 23 05:40:37 2022.
