 Gaussian 16, Revision C.01,
 Gaussian 16:  ES64L-G16RevC.01  3-Jul-2019

 ----------------------------------------------------------------------
 # B3LYP/6-31G* empiricaldispersion=gd3bj guess=read geom=check nosymm
 integral(ultrafinegrid)
 ----------------------------------------------------------------------

 ------------------------------------------------------
 Candidate Structure: Conf:961 Charge calc in gas phase
 ------------------------------------------------------
 Structure from the checkpoint file:  "conf-961.chk"
 Charge =  1 Multiplicity = 1

                          Input orientation:
 ---------------------------------------------------------------------
 Center     Atomic      Atomic             Coordinates (Angstroms)
 Number     Number       Type             X           Y           Z
 ---------------------------------------------------------------------
      1          7           0       -1.908048   -0.758506   -3.952309
      2          1           0       -2.127588   -1.685272   -3.586785
      3          1           0       -2.759813   -0.205310   -3.843334
      4          1           0       -0.928517   -0.920088   -5.440282
      5          6           0       -0.827862   -0.144738   -3.160634
      6          1           0        0.060395   -0.769782   -3.310193
      7          6           0       -1.126084   -0.007428   -1.661785
      8          6           0       -0.551640    1.280951   -3.680325
      9          1           0        0.383055    1.634523   -3.229475
     10          1           0       -1.347709    1.937521   -3.316341
     11          8           0       -2.107127    0.615101   -1.273895
     12          6           0       -0.470873    1.399619   -5.217967
     13          1           0       -1.466502    1.284685   -5.655083
     14          1           0       -0.090945    2.385178   -5.494895
     15          6           0        0.455165    0.346826   -5.784009
     16          8           0       -0.029948   -0.874000   -5.906625
     17          8           0        1.631785    0.588077   -6.061372
     18          7           0       -0.182202   -0.547522   -0.846869
     19          1           0        0.612634   -1.025345   -1.254149
     20          6           0        0.022083   -0.117410    0.538657
     21          1           0       -0.713123    0.667306    0.726431
     22          6           0        1.453216    0.431565    0.523114
     23          6           0       -0.132261   -1.263713    1.541180
     24          1           0        0.528965   -2.080325    1.228149
     25          1           0       -1.163530   -1.631384    1.472614
     26          8           0        2.393433   -0.305425    0.222466
     27          6           0        0.194173   -0.876199    2.994318
     28          1           0        1.250438   -0.569580    3.029760
     29          6           0       -0.662637    0.293496    3.498196
     30          1           0       -1.731611    0.069732    3.395280
     31          1           0       -0.463809    0.489291    4.556903
     32          1           0       -0.461536    1.226107    2.958198
     33          6           0        0.032896   -2.100038    3.903952
     34          1           0       -1.009928   -2.440261    3.917458
     35          1           0        0.654818   -2.935410    3.563167
     36          1           0        0.319470   -1.863604    4.934071
     37          7           0        1.594199    1.765018    0.721241
     38          1           0        0.838626    2.312488    1.118511
     39          6           0        2.899832    2.397974    0.706036
     40          1           0        3.642290    1.662434    1.033046
     41          6           0        2.859937    3.546516    1.704671
     42          6           0        3.301743    2.922417   -0.694907
     43          1           0        4.306752    3.352806   -0.615788
     44          1           0        2.623852    3.739248   -0.975819
     45          8           0        1.850909    3.938893    2.246529
     46          6           0        3.263789    1.831473   -1.770534
     47          1           0        3.845276    0.963656   -1.443982
     48          1           0        2.236813    1.471846   -1.890686
     49          6           0        3.762452    2.338791   -3.129007
     50          1           0        4.808651    2.666943   -3.077997
     51          1           0        3.192461    3.216182   -3.446133
     52          7           0        3.608914    1.349514   -4.201477
     53          1           0        2.821653    1.434067   -4.848093
     54          7           0        5.465641    0.056185   -3.635126
     55          1           0        5.907262   -0.850879   -3.607389
     56          1           0        5.747107    0.719468   -2.930581
     57          7           0        3.959091   -0.682157   -5.238430
     58          1           0        4.605332   -1.392861   -5.548981
     59          1           0        3.106929   -0.514087   -5.783748
     60          6           0        4.342748    0.245795   -4.353036
     61          8           0        4.076210    4.088686    1.882996
     62          1           0        3.976604    4.825506    2.516709
 ---------------------------------------------------------------------

 SCF Done:  E(RB3LYP) =  -1447.56078637     A.U. after    2 cycles

 Alpha  occ. eigenvalues --  -19.30239 -19.29687 -19.26339 -19.24742 -19.21871
 Alpha  occ. eigenvalues --  -19.21581 -14.52074 -14.51015 -14.50229 -14.46690
 Alpha  occ. eigenvalues --  -14.46475 -14.45966 -10.47746 -10.44205 -10.42759
 Alpha  occ. eigenvalues --  -10.38917 -10.38786 -10.36492 -10.34789 -10.34626
 Alpha  occ. eigenvalues --  -10.32567 -10.31702 -10.31610 -10.31114 -10.31010
 Alpha  occ. eigenvalues --  -10.26538 -10.26515 -10.24541 -10.23948  -1.21599
 Alpha  occ. eigenvalues --   -1.21294  -1.16332  -1.14295  -1.13420  -1.13199
 Alpha  occ. eigenvalues --   -1.12430  -1.05642  -1.04277  -1.03309  -1.02857
 Alpha  occ. eigenvalues --   -1.02124  -0.92451  -0.91177  -0.89495  -0.87472
 Alpha  occ. eigenvalues --   -0.84574  -0.81967  -0.81223  -0.77980  -0.75514
 Alpha  occ. eigenvalues --   -0.74900  -0.74040  -0.73697  -0.73049  -0.71752
 Alpha  occ. eigenvalues --   -0.70625  -0.70054  -0.69128  -0.68662  -0.65150
 Alpha  occ. eigenvalues --   -0.65094  -0.64558  -0.63990  -0.63314  -0.62143
 Alpha  occ. eigenvalues --   -0.61654  -0.61257  -0.60265  -0.58770  -0.58348
 Alpha  occ. eigenvalues --   -0.57901  -0.57476  -0.57326  -0.56960  -0.55879
 Alpha  occ. eigenvalues --   -0.55822  -0.55416  -0.54754  -0.54114  -0.53413
 Alpha  occ. eigenvalues --   -0.52271  -0.51477  -0.51365  -0.50587  -0.50463
 Alpha  occ. eigenvalues --   -0.50280  -0.49480  -0.48950  -0.48599  -0.48015
 Alpha  occ. eigenvalues --   -0.47336  -0.47169  -0.46919  -0.45991  -0.45721
 Alpha  occ. eigenvalues --   -0.45257  -0.44718  -0.43655  -0.43153  -0.42516
 Alpha  occ. eigenvalues --   -0.42347  -0.40952  -0.40364  -0.40209  -0.40079
 Alpha  occ. eigenvalues --   -0.39831  -0.39776  -0.38426  -0.36623  -0.36340
 Alpha  occ. eigenvalues --   -0.35065  -0.34305
 Alpha virt. eigenvalues --   -0.11726  -0.11708  -0.09935  -0.09522  -0.08091
 Alpha virt. eigenvalues --   -0.06871  -0.05439  -0.04397  -0.02714  -0.02224
 Alpha virt. eigenvalues --   -0.01865  -0.01219  -0.01024   0.00660   0.01654

 Mulliken charges:
               1
     1  N   -0.767700
     2  H    0.346002
     3  H    0.349669
     4  H    0.462804
     5  C   -0.087880
     6  H    0.148318
     7  C    0.608317
     8  C   -0.303717
     9  H    0.155096
    10  H    0.204924
    11  O   -0.510877
    12  C   -0.371893
    13  H    0.193507
    14  H    0.189202
    15  C    0.618191
    16  O   -0.560121
    17  O   -0.521717
    18  N   -0.602770
    19  H    0.339748
    20  C   -0.056923
    21  H    0.185919
    22  C    0.619034
    23  C   -0.251262
    24  H    0.150267
    25  H    0.155776
    26  O   -0.551488
    27  C   -0.090841
    28  H    0.133943
    29  C   -0.452453
    30  H    0.156055
    31  H    0.161955
    32  H    0.128750
    33  C   -0.445336
    34  H    0.150510
    35  H    0.148242
    36  H    0.155168
    37  N   -0.614350
    38  H    0.368048
    39  C   -0.043416
    40  H    0.206594
    41  C    0.588718
    42  C   -0.272720
    43  H    0.172472
    44  H    0.157816
    45  O   -0.451713
    46  C   -0.285403
    47  H    0.171896
    48  H    0.164104
    49  C   -0.178510
    50  H    0.174301
    51  H    0.189968
    52  N   -0.618909
    53  H    0.399318
    54  N   -0.756548
    55  H    0.380064
    56  H    0.382125
    57  N   -0.785444
    58  H    0.369122
    59  H    0.417439
    60  C    0.806445
    61  O   -0.560837
    62  H    0.433002
 Sum of Mulliken charges =   1.00000

 Dipole moment (field-independent basis, Debye):
    X=             14.1444    Y=              3.2531    Z=            -13.8327  Tot=             20.0497
 Quadrupole moment (field-independent basis, Debye-Ang):
   XX=            -89.2873   YY=           -144.3806   ZZ=           -101.0477
   XY=             18.1284   XZ=            -34.7481   YZ=              2.3479

 Normal termination of Gaussian 16 at Thu Jun 23 05:40:34 2022.
