 Gaussian 16, Revision C.01,
 Gaussian 16:  ES64L-G16RevC.01  3-Jul-2019

 ----------------------------------------------------------------------
 # B3LYP/6-31G* empiricaldispersion=gd3bj guess=read geom=check nosymm
 integral(ultrafinegrid)
 ----------------------------------------------------------------------

 ------------------------------------------------------
 Candidate Structure: Conf:797 Charge calc in gas phase
 ------------------------------------------------------
 Structure from the checkpoint file:  "conf-797.chk"
 Charge =  1 Multiplicity = 1

                          Input orientation:
 ---------------------------------------------------------------------
 Center     Atomic      Atomic             Coordinates (Angstroms)
 Number     Number       Type             X           Y           Z
 ---------------------------------------------------------------------
      1          7           0       -2.476619   -2.574123   -2.891969
      2          1           0       -3.127794   -2.138850   -2.221589
      3          1           0       -2.122538   -1.777275   -3.557048
      4          1           0       -2.913831   -3.348284   -3.394054
      5          6           0       -1.260514   -2.977388   -2.100949
      6          1           0       -1.577385   -3.757841   -1.400119
      7          6           0       -1.006559   -1.727679   -1.222308
      8          6           0       -0.152832   -3.521725   -3.017819
      9          1           0       -0.329212   -4.590011   -3.181628
     10          1           0        0.801733   -3.467936   -2.484713
     11          8           0       -1.998373   -1.103415   -0.828673
     12          6           0       -0.033068   -2.822847   -4.389483
     13          1           0        0.872029   -3.174007   -4.886446
     14          1           0       -0.888391   -3.089723   -5.020501
     15          6           0        0.036239   -1.310025   -4.217320
     16          8           0        1.149669   -0.761716   -4.181790
     17          8           0       -1.098313   -0.725376   -4.008269
     18          7           0        0.253286   -1.426454   -0.895843
     19          1           0        1.063159   -1.858479   -1.332032
     20          6           0        0.582828   -0.301252   -0.030081
     21          1           0       -0.121538    0.503335   -0.243636
     22          6           0        2.008514    0.108653   -0.419304
     23          6           0        0.472373   -0.714601    1.454324
     24          1           0        1.202250   -1.511463    1.641635
     25          1           0       -0.525413   -1.153354    1.576821
     26          8           0        2.770056   -0.701913   -0.944799
     27          6           0        0.649998    0.408810    2.490221
     28          1           0        1.673204    0.797258    2.419958
     29          6           0       -0.326676    1.572076    2.263276
     30          1           0       -1.363965    1.215465    2.265418
     31          1           0       -0.226640    2.320194    3.056197
     32          1           0       -0.163776    2.092551    1.309855
     33          6           0        0.470465   -0.170239    3.899864
     34          1           0       -0.546181   -0.558451    4.037491
     35          1           0        1.171739   -0.991338    4.084873
     36          1           0        0.641118    0.596550    4.662864
     37          7           0        2.363310    1.386043   -0.130883
     38          1           0        1.709382    1.974478    0.366589
     39          6           0        3.749090    1.831427   -0.190057
     40          1           0        4.369417    0.932214   -0.241538
     41          6           0        4.160575    2.582716    1.073339
     42          6           0        4.077961    2.721523   -1.408245
     43          1           0        5.096164    3.088690   -1.254244
     44          1           0        3.427679    3.606229   -1.378529
     45          8           0        5.294435    2.918894    1.306932
     46          6           0        3.982218    2.001828   -2.772465
     47          1           0        4.902532    2.194183   -3.333919
     48          1           0        3.919951    0.917338   -2.635750
     49          6           0        2.816045    2.449528   -3.665283
     50          1           0        3.018702    2.160192   -4.700660
     51          1           0        2.714085    3.541137   -3.666216
     52          7           0        1.544437    1.818863   -3.321355
     53          1           0        1.414077    0.841180   -3.664504
     54          7           0        0.592092    3.539654   -2.025666
     55          1           0       -0.274733    4.049910   -1.913882
     56          1           0        1.393941    4.124070   -2.215588
     57          7           0       -0.593685    1.603950   -2.521486
     58          1           0       -1.361827    1.948047   -1.964483
     59          1           0       -0.753766    0.751275   -3.096998
     60          6           0        0.526637    2.327314   -2.652219
     61          8           0        3.110896    2.887831    1.878302
     62          1           0        3.474446    3.385318    2.636254
 ---------------------------------------------------------------------

 SCF Done:  E(RB3LYP) =  -1447.57113506     A.U. after    1 cycles

 Alpha  occ. eigenvalues --  -19.30390 -19.23941 -19.23900 -19.22889 -19.22695
 Alpha  occ. eigenvalues --  -19.21475 -14.54887 -14.50138 -14.48071 -14.47855
 Alpha  occ. eigenvalues --  -14.47814 -14.47212 -10.45369 -10.42300 -10.41503
 Alpha  occ. eigenvalues --  -10.39888 -10.39494 -10.38219 -10.34444 -10.34222
 Alpha  occ. eigenvalues --  -10.34026 -10.32586 -10.29933 -10.29841 -10.29046
 Alpha  occ. eigenvalues --  -10.28351 -10.28119 -10.26919 -10.25501  -1.20950
 Alpha  occ. eigenvalues --   -1.16586  -1.15197  -1.14849  -1.13833  -1.11923
 Alpha  occ. eigenvalues --   -1.10053  -1.06223  -1.04554  -1.03872  -1.03373
 Alpha  occ. eigenvalues --   -1.01826  -0.92541  -0.91223  -0.90204  -0.86878
 Alpha  occ. eigenvalues --   -0.85444  -0.82958  -0.80096  -0.77474  -0.76369
 Alpha  occ. eigenvalues --   -0.75500  -0.74966  -0.72523  -0.71368  -0.71201
 Alpha  occ. eigenvalues --   -0.70730  -0.70150  -0.69480  -0.68413  -0.67695
 Alpha  occ. eigenvalues --   -0.65804  -0.64577  -0.63763  -0.62784  -0.61877
 Alpha  occ. eigenvalues --   -0.61103  -0.59883  -0.59429  -0.58922  -0.58145
 Alpha  occ. eigenvalues --   -0.57858  -0.57414  -0.56943  -0.56201  -0.55695
 Alpha  occ. eigenvalues --   -0.55392  -0.55253  -0.53806  -0.53752  -0.53241
 Alpha  occ. eigenvalues --   -0.52650  -0.52448  -0.52199  -0.51415  -0.51377
 Alpha  occ. eigenvalues --   -0.50267  -0.50250  -0.49958  -0.48871  -0.48044
 Alpha  occ. eigenvalues --   -0.47444  -0.47122  -0.46602  -0.46338  -0.46059
 Alpha  occ. eigenvalues --   -0.45582  -0.45133  -0.45046  -0.42821  -0.42305
 Alpha  occ. eigenvalues --   -0.42000  -0.41350  -0.40904  -0.38919  -0.38372
 Alpha  occ. eigenvalues --   -0.38030  -0.37614  -0.37418  -0.37153  -0.36415
 Alpha  occ. eigenvalues --   -0.35523  -0.35383
 Alpha virt. eigenvalues --   -0.10616  -0.09852  -0.09365  -0.08722  -0.07320
 Alpha virt. eigenvalues --   -0.07015  -0.06523  -0.03964  -0.03116  -0.01942
 Alpha virt. eigenvalues --   -0.00944  -0.00649  -0.00182   0.00528   0.00775

 Mulliken charges:
               1
     1  N   -0.758199
     2  H    0.407545
     3  H    0.440163
     4  H    0.390615
     5  C   -0.121259
     6  H    0.219282
     7  C    0.664374
     8  C   -0.313992
     9  H    0.182499
    10  H    0.192730
    11  O   -0.561800
    12  C   -0.356941
    13  H    0.199567
    14  H    0.154547
    15  C    0.619528
    16  O   -0.540921
    17  O   -0.635176
    18  N   -0.630299
    19  H    0.377349
    20  C   -0.053276
    21  H    0.174520
    22  C    0.617378
    23  C   -0.255936
    24  H    0.156268
    25  H    0.164671
    26  O   -0.530351
    27  C   -0.100688
    28  H    0.143346
    29  C   -0.454328
    30  H    0.161635
    31  H    0.163039
    32  H    0.110264
    33  C   -0.446840
    34  H    0.151537
    35  H    0.154950
    36  H    0.155086
    37  N   -0.619729
    38  H    0.367515
    39  C   -0.068239
    40  H    0.225773
    41  C    0.594287
    42  C   -0.279773
    43  H    0.200754
    44  H    0.120457
    45  O   -0.433793
    46  C   -0.280505
    47  H    0.173113
    48  H    0.202563
    49  C   -0.182682
    50  H    0.198426
    51  H    0.154065
    52  N   -0.607610
    53  H    0.427714
    54  N   -0.762770
    55  H    0.364330
    56  H    0.368308
    57  N   -0.806418
    58  H    0.355931
    59  H    0.439965
    60  C    0.758254
    61  O   -0.581424
    62  H    0.430600
 Sum of Mulliken charges =   1.00000

 Dipole moment (field-independent basis, Debye):
    X=             -2.2547    Y=              1.6792    Z=             -8.3244  Tot=              8.7863
 Quadrupole moment (field-independent basis, Debye-Ang):
   XX=           -156.0857   YY=           -100.4617   ZZ=           -133.5349
   XY=             28.1695   XZ=              9.3613   YZ=              9.0390

 Normal termination of Gaussian 16 at Thu Jun 23 05:40:27 2022.
