 Gaussian 16, Revision C.01,
 Gaussian 16:  ES64L-G16RevC.01  3-Jul-2019

 ----------------------------------------------------------------------
 # B3LYP/6-31G* empiricaldispersion=gd3bj guess=read geom=check nosymm
 integral(ultrafinegrid)
 ----------------------------------------------------------------------

 ------------------------------------------------------
 Candidate Structure: Conf:705 Charge calc in gas phase
 ------------------------------------------------------
 Structure from the checkpoint file:  "conf-705.chk"
 Charge =  1 Multiplicity = 1

                          Input orientation:
 ---------------------------------------------------------------------
 Center     Atomic      Atomic             Coordinates (Angstroms)
 Number     Number       Type             X           Y           Z
 ---------------------------------------------------------------------
      1          7           0       -2.445609   -1.201320   -4.389379
      2          1           0       -2.952579   -2.046773   -4.114435
      3          1           0       -2.802970   -0.383712   -3.802962
      4          1           0       -2.578718   -1.041046   -5.390987
      5          6           0       -0.981029   -1.216133   -3.983980
      6          1           0       -0.669710   -2.255311   -3.852895
      7          6           0       -1.031494   -0.461122   -2.633283
      8          6           0       -0.173174   -0.529359   -5.092314
      9          1           0       -0.545070    0.494962   -5.204191
     10          1           0       -0.376986   -1.082413   -6.019489
     11          8           0       -2.021476    0.261179   -2.438011
     12          6           0        1.341672   -0.473806   -4.859782
     13          1           0        1.700178   -1.360718   -4.317624
     14          1           0        1.851968   -0.494251   -5.827049
     15          6           0        1.803656    0.790284   -4.097700
     16          8           0        3.043367    1.055715   -4.241981
     17          8           0        0.967273    1.422141   -3.433761
     18          7           0       -0.076316   -0.723203   -1.747484
     19          1           0        0.789351   -1.169247   -2.051176
     20          6           0        0.138780    0.131412   -0.581557
     21          1           0       -0.412344    1.059808   -0.743935
     22          6           0        1.645224    0.413986   -0.556608
     23          6           0       -0.299128   -0.555248    0.725192
     24          1           0        0.007376    0.081861    1.565450
     25          1           0        0.271005   -1.488448    0.818053
     26          8           0        2.441099   -0.344087   -1.110102
     27          6           0       -1.804685   -0.846496    0.836011
     28          1           0       -2.105285   -1.413739   -0.056772
     29          6           0       -2.069583   -1.722702    2.066944
     30          1           0       -1.776490   -1.201631    2.986802
     31          1           0       -3.133549   -1.968677    2.151285
     32          1           0       -1.506887   -2.662202    2.021340
     33          6           0       -2.637569    0.440149    0.890146
     34          1           0       -2.335850    1.061264    1.743409
     35          1           0       -2.539174    1.030605   -0.025060
     36          1           0       -3.700154    0.205172    1.015720
     37          7           0        2.008671    1.499526    0.161765
     38          1           0        1.296608    2.138097    0.489945
     39          6           0        3.381639    1.982036    0.155490
     40          1           0        4.041729    1.112687    0.199165
     41          6           0        3.678674    2.841178    1.370107
     42          6           0        3.667686    2.762226   -1.147052
     43          1           0        3.007656    3.638319   -1.187918
     44          1           0        3.358379    2.097402   -1.958576
     45          8           0        4.792273    3.074288    1.776820
     46          6           0        5.127324    3.190860   -1.327199
     47          1           0        5.390624    3.993681   -0.631086
     48          1           0        5.798015    2.352115   -1.101533
     49          6           0        5.383312    3.664584   -2.763839
     50          1           0        6.390807    4.080802   -2.873416
     51          1           0        4.694107    4.470162   -3.033581
     52          7           0        5.171632    2.594009   -3.737712
     53          1           0        4.189034    2.300285   -3.915143
     54          7           0        7.348228    1.728677   -3.637050
     55          1           0        8.024179    1.099653   -4.045422
     56          1           0        7.711559    2.621763   -3.340421
     57          7           0        5.627507    0.546075   -4.673017
     58          1           0        6.240339   -0.248580   -4.776392
     59          1           0        4.600504    0.408650   -4.703269
     60          6           0        6.049516    1.629904   -4.008509
     61          8           0        2.559706    3.386236    1.905865
     62          1           0        2.846296    3.952359    2.647919
 ---------------------------------------------------------------------

 SCF Done:  E(RB3LYP) =  -1447.54147685     A.U. after    1 cycles

 Alpha  occ. eigenvalues --  -19.28673 -19.24852 -19.22503 -19.20914 -19.17497
 Alpha  occ. eigenvalues --  -19.16426 -14.58398 -14.48604 -14.47053 -14.46077
 Alpha  occ. eigenvalues --  -14.46034 -14.45176 -10.43579 -10.41565 -10.40769
 Alpha  occ. eigenvalues --  -10.38917 -10.37889 -10.35132 -10.32668 -10.32571
 Alpha  occ. eigenvalues --  -10.32379 -10.31465 -10.27999 -10.27642 -10.27181
 Alpha  occ. eigenvalues --  -10.27063 -10.26571 -10.24220 -10.24038  -1.19364
 Alpha  occ. eigenvalues --   -1.17521  -1.13020  -1.12359  -1.12061  -1.10336
 Alpha  occ. eigenvalues --   -1.09999  -1.04150  -1.02097  -1.02011  -1.01239
 Alpha  occ. eigenvalues --   -1.00246  -0.92194  -0.89717  -0.88663  -0.85372
 Alpha  occ. eigenvalues --   -0.83824  -0.81859  -0.78017  -0.76005  -0.75159
 Alpha  occ. eigenvalues --   -0.74450  -0.73940  -0.72291  -0.71354  -0.70226
 Alpha  occ. eigenvalues --   -0.69478  -0.69267  -0.68271  -0.67550  -0.65795
 Alpha  occ. eigenvalues --   -0.65224  -0.63169  -0.62210  -0.61423  -0.61185
 Alpha  occ. eigenvalues --   -0.60172  -0.58486  -0.57801  -0.57627  -0.56644
 Alpha  occ. eigenvalues --   -0.56557  -0.55633  -0.55515  -0.54732  -0.54599
 Alpha  occ. eigenvalues --   -0.53984  -0.53590  -0.52111  -0.51709  -0.51261
 Alpha  occ. eigenvalues --   -0.50713  -0.50554  -0.50043  -0.49611  -0.49140
 Alpha  occ. eigenvalues --   -0.48345  -0.47988  -0.47339  -0.47083  -0.46693
 Alpha  occ. eigenvalues --   -0.46295  -0.45506  -0.45341  -0.44889  -0.43906
 Alpha  occ. eigenvalues --   -0.43450  -0.43042  -0.42741  -0.40706  -0.40392
 Alpha  occ. eigenvalues --   -0.40131  -0.39996  -0.39383  -0.39231  -0.37385
 Alpha  occ. eigenvalues --   -0.36684  -0.36131  -0.35039  -0.33630  -0.32727
 Alpha  occ. eigenvalues --   -0.32252  -0.30722
 Alpha virt. eigenvalues --   -0.10544  -0.09564  -0.08018  -0.07852  -0.06411
 Alpha virt. eigenvalues --   -0.05011  -0.04975  -0.03190  -0.02260  -0.01580
 Alpha virt. eigenvalues --   -0.01409   0.00348   0.01097   0.01302   0.01526

 Mulliken charges:
               1
     1  N   -0.755415
     2  H    0.410414
     3  H    0.433055
     4  H    0.408204
     5  C   -0.125490
     6  H    0.202867
     7  C    0.693301
     8  C   -0.271120
     9  H    0.197191
    10  H    0.149144
    11  O   -0.549808
    12  C   -0.394331
    13  H    0.155862
    14  H    0.173946
    15  C    0.636307
    16  O   -0.627876
    17  O   -0.565674
    18  N   -0.583790
    19  H    0.365818
    20  C   -0.088213
    21  H    0.198793
    22  C    0.672092
    23  C   -0.254342
    24  H    0.148763
    25  H    0.150346
    26  O   -0.554228
    27  C   -0.066169
    28  H    0.113012
    29  C   -0.445238
    30  H    0.150465
    31  H    0.152335
    32  H    0.144836
    33  C   -0.463833
    34  H    0.140808
    35  H    0.168356
    36  H    0.151625
    37  N   -0.615042
    38  H    0.356417
    39  C   -0.052358
    40  H    0.205013
    41  C    0.595695
    42  C   -0.301617
    43  H    0.151599
    44  H    0.214535
    45  O   -0.450701
    46  C   -0.268055
    47  H    0.174598
    48  H    0.156522
    49  C   -0.182871
    50  H    0.152942
    51  H    0.189228
    52  N   -0.596026
    53  H    0.411681
    54  N   -0.755124
    55  H    0.365805
    56  H    0.372652
    57  N   -0.771716
    58  H    0.349219
    59  H    0.405247
    60  C    0.772584
    61  O   -0.579789
    62  H    0.427549
 Sum of Mulliken charges =   1.00000

 Dipole moment (field-independent basis, Debye):
    X=              7.6734    Y=             -0.7645    Z=            -17.2095  Tot=             18.8582
 Quadrupole moment (field-independent basis, Debye-Ang):
   XX=            -46.0771   YY=           -139.3189   ZZ=            -78.7859
   XY=             40.7677   XZ=            -28.1487   YZ=             23.7449

 Normal termination of Gaussian 16 at Thu Jun 23 05:40:24 2022.
