 Gaussian 16, Revision C.01,
 Gaussian 16:  ES64L-G16RevC.01  3-Jul-2019

 ----------------------------------------------------------------------
 # B3LYP/6-31G* empiricaldispersion=gd3bj guess=read geom=check nosymm
 integral(ultrafinegrid)
 ----------------------------------------------------------------------

 ------------------------------------------------------
 Candidate Structure: Conf:126 Charge calc in gas phase
 ------------------------------------------------------
 Structure from the checkpoint file:  "conf-126.chk"
 Charge =  1 Multiplicity = 1

                          Input orientation:
 ---------------------------------------------------------------------
 Center     Atomic      Atomic             Coordinates (Angstroms)
 Number     Number       Type             X           Y           Z
 ---------------------------------------------------------------------
      1          7           0       -2.115200    2.082130   -2.731633
      2          1           0       -3.089138    2.094860   -2.398139
      3          1           0       -1.879661    2.947718   -3.220886
      4          1           0       -1.516487    1.975042   -1.844220
      5          6           0       -1.949981    0.865511   -3.600878
      6          1           0       -2.476784    1.062802   -4.541762
      7          6           0       -2.726067   -0.224469   -2.845381
      8          6           0       -0.470471    0.572877   -3.839904
      9          1           0       -0.364499   -0.263838   -4.535739
     10          1           0        0.023426    1.434727   -4.300454
     11          1           0        0.050860    0.325420   -2.911319
     12          8           0       -3.466128    0.110303   -1.911389
     13          7           0       -2.556331   -1.485124   -3.251534
     14          1           0       -2.045969   -1.683055   -4.103479
     15          6           0       -3.381201   -2.581588   -2.719956
     16          1           0       -4.283872   -2.117128   -2.316022
     17          6           0       -2.543546   -3.180195   -1.566123
     18          6           0       -3.718061   -3.608736   -3.821969
     19          1           0       -3.009407   -4.437752   -3.734790
     20          1           0       -4.709154   -4.018641   -3.594088
     21          8           0       -1.929595   -4.232070   -1.669266
     22          6           0       -3.672092   -3.040967   -5.212624
     23          6           0       -2.982912   -3.579469   -6.274661
     24          1           0       -2.402643   -4.490721   -6.322295
     25          6           0       -4.282208   -1.822966   -5.699831
     26          6           0       -3.913469   -1.687379   -7.067711
     27          6           0       -5.063930   -0.813970   -5.107852
     28          1           0       -5.379909   -0.891778   -4.071438
     29          7           0       -3.127182   -2.776626   -7.388184
     30          1           0       -2.769902   -2.989001   -8.307068
     31          6           0       -5.062846    0.395244   -7.225988
     32          1           0       -5.384142    1.258184   -7.801157
     33          6           0       -4.298017   -0.587937   -7.841764
     34          1           0       -4.010957   -0.504778   -8.885972
     35          6           0       -5.441597    0.284105   -5.871356
     36          1           0       -6.059692    1.059348   -5.427633
     37          7           0       -2.446212   -2.346329   -0.491173
     38          1           0       -2.899632   -1.435981   -0.545060
     39          6           0       -1.260849   -2.383433    0.352635
     40          1           0       -1.154770   -3.378198    0.795515
     41          6           0       -1.425503   -1.298053    1.408623
     42          6           0       -0.009812   -2.016166   -0.496037
     43          1           0       -0.043548   -2.634310   -1.395990
     44          1           0       -0.121951   -0.973621   -0.804441
     45          8           0       -1.945558   -0.210133    1.113970
     46          6           0        1.351670   -2.190080    0.179361
     47          1           0        1.352868   -1.867114    1.227535
     48          1           0        1.684442   -3.232900    0.177294
     49          6           0        2.409963   -1.331806   -0.480770
     50          8           0        2.184581   -0.383127   -1.214629
     51          8           0        3.647963   -1.701190   -0.126942
     52          7           0       -0.887907   -1.532145    2.622510
     53          1           0       -0.413763   -2.413298    2.777576
     54          6           0       -0.543054   -0.425867    3.530129
     55          1           0       -1.427786    0.211141    3.621331
     56          6           0        0.595230    0.312003    2.806195
     57          6           0       -0.123685   -0.945643    4.909932
     58          1           0        0.744692   -1.600279    4.754332
     59          8           0        1.727375   -0.177129    2.741843
     60          6           0        0.320637    0.226316    5.793533
     61          1           0       -0.494150    0.947815    5.931656
     62          1           0        0.612716   -0.136043    6.783454
     63          1           0        1.180552    0.751098    5.366730
     64          6           0       -1.256648   -1.741433    5.568065
     65          1           0       -2.129463   -1.101973    5.746328
     66          1           0       -1.584265   -2.587913    4.955692
     67          1           0       -0.928599   -2.135487    6.534668
     68          7           0        0.249136    1.431100    2.130994
     69          1           0       -0.686195    1.796491    2.249423
     70          6           0        1.108787    1.987937    1.085026
     71          1           0        1.678815    1.147137    0.678824
     72          6           0        2.115560    3.004705    1.662182
     73          6           0        0.271974    2.584096   -0.053178
     74          1           0       -0.281046    3.453378    0.326749
     75          8           0        2.138788    4.180591    1.299898
     76          6           0        1.131157    2.980688   -1.246473
     77          1           0        1.876042    3.725961   -0.970496
     78          1           0        1.633633    2.094251   -1.643272
     79          1           0        0.502439    3.412822   -2.035172
     80          8           0       -0.668546    1.601382   -0.553316
     81          1           0       -1.124095    1.078360    0.146687
     82          7           0        2.973310    2.466277    2.556421
     83          1           0        2.936479    1.458313    2.700419
     84          6           0        4.187987    3.177859    2.974835
     85          1           0        3.964199    4.245039    2.892780
     86          6           0        5.247669    2.774409    1.926975
     87          6           0        4.590610    2.831194    4.411419
     88          1           0        4.834174    1.760955    4.433714
     89          8           0        6.083503    1.900557    2.134105
     90          6           0        5.848820    3.612936    4.809736
     91          1           0        5.668827    4.694369    4.757970
     92          1           0        6.690855    3.366023    4.159149
     93          1           0        6.134066    3.373810    5.839405
     94          6           0        3.439481    3.112806    5.383502
     95          1           0        3.191926    4.181608    5.396140
     96          1           0        3.719818    2.823414    6.401585
     97          1           0        2.530840    2.566245    5.111384
     98          7           0        5.086844    3.384048    0.721563
     99          1           0        4.298596    4.008772    0.574482
    100          6           0        5.732721    2.865949   -0.469309
    101          1           0        6.812421    2.821970   -0.313769
    102          6           0        5.424598    3.767858   -1.647093
    103          6           0        5.214402    1.431963   -0.822031
    104          1           0        4.134633    1.422674   -0.632766
    105          1           0        5.681783    0.763793   -0.091957
    106          8           0        4.342728    4.318736   -1.795777
    107          6           0        5.481999    0.959008   -2.267974
    108          1           0        6.445223    1.354441   -2.602967
    109          1           0        5.591421   -0.133600   -2.276476
    110          6           0        4.359686    1.345288   -3.268944
    111          1           0        3.671424    0.498411   -3.357864
    112          1           0        3.758943    2.163422   -2.857614
    113          6           0        4.826405    1.757723   -4.676768
    114          1           0        4.073267    1.454686   -5.419130
    115          1           0        5.755436    1.239944   -4.938624
    116          7           0        5.089979    3.215232   -4.766877
    117          1           0        5.458167    3.455074   -5.686006
    118          1           0        4.218842    3.732284   -4.649922
    119          1           0        5.983792    3.788664   -3.477238
    120          8           0        6.402240    3.747654   -2.543224
    121          1           0        4.273729   -1.059763   -0.516077
 ---------------------------------------------------------------------

 SCF Done:  E(RB3LYP) =  -2843.96029673     A.U. after    1 cycles

 Alpha  occ. eigenvalues --  -19.28544 -19.27510 -19.25300 -19.24064 -19.23567
 Alpha  occ. eigenvalues --  -19.22789 -19.22600 -19.21338 -19.19992 -19.19556
 Alpha  occ. eigenvalues --  -19.17330 -14.56397 -14.48885 -14.48393 -14.47619
 Alpha  occ. eigenvalues --  -14.46794 -14.44835 -14.43480 -14.42258 -14.41359
 Alpha  occ. eigenvalues --  -10.42325 -10.41656 -10.40840 -10.39660 -10.39062
 Alpha  occ. eigenvalues --  -10.38163 -10.37333 -10.37152 -10.35203 -10.34333
 Alpha  occ. eigenvalues --  -10.33959 -10.33949 -10.33773 -10.33212 -10.31850
 Alpha  occ. eigenvalues --  -10.30948 -10.30710 -10.29675 -10.29364 -10.29162
 Alpha  occ. eigenvalues --  -10.29158 -10.28836 -10.28805 -10.28379 -10.27546
 Alpha  occ. eigenvalues --  -10.27416 -10.27400 -10.27300 -10.27046 -10.26880
 Alpha  occ. eigenvalues --  -10.26562 -10.25979 -10.25846 -10.25810 -10.25809
 Alpha  occ. eigenvalues --  -10.25677 -10.24890 -10.23105 -10.22119  -1.19796
 Alpha  occ. eigenvalues --   -1.17768  -1.16233  -1.14891  -1.14688  -1.14084
 Alpha  occ. eigenvalues --   -1.13193  -1.11889  -1.11118  -1.10705  -1.09233
 Alpha  occ. eigenvalues --   -1.06731  -1.06297  -1.05567  -1.04591  -1.03591
 Alpha  occ. eigenvalues --   -1.02058  -1.00267  -0.98118  -0.97860  -0.92620
 Alpha  occ. eigenvalues --   -0.92030  -0.91092  -0.89504  -0.89181  -0.88529
 Alpha  occ. eigenvalues --   -0.87126  -0.86268  -0.85770  -0.83764  -0.82415
 Alpha  occ. eigenvalues --   -0.82226  -0.81958  -0.80917  -0.79492  -0.79427
 Alpha  occ. eigenvalues --   -0.77685  -0.77058  -0.76150  -0.75658  -0.74265
 Alpha  occ. eigenvalues --   -0.73673  -0.72209  -0.72147  -0.71448  -0.71094
 Alpha  occ. eigenvalues --   -0.70909  -0.70013  -0.69234  -0.69045  -0.68466
 Alpha  occ. eigenvalues --   -0.68010  -0.67518  -0.67439  -0.66703  -0.66404
 Alpha  occ. eigenvalues --   -0.65705  -0.65515  -0.65142  -0.63963  -0.63748
 Alpha  occ. eigenvalues --   -0.63152  -0.62841  -0.61999  -0.61473  -0.61113
 Alpha  occ. eigenvalues --   -0.60744  -0.60166  -0.59696  -0.59265  -0.59083
 Alpha  occ. eigenvalues --   -0.58649  -0.58363  -0.58024  -0.57746  -0.57074
 Alpha  occ. eigenvalues --   -0.56864  -0.56479  -0.56152  -0.55753  -0.55363
 Alpha  occ. eigenvalues --   -0.55091  -0.54534  -0.54144  -0.53692  -0.53408
 Alpha  occ. eigenvalues --   -0.53363  -0.53018  -0.52834  -0.52599  -0.52553
 Alpha  occ. eigenvalues --   -0.52362  -0.52121  -0.51970  -0.51756  -0.51675
 Alpha  occ. eigenvalues --   -0.51220  -0.51147  -0.50765  -0.50570  -0.50544
 Alpha  occ. eigenvalues --   -0.50446  -0.50006  -0.49747  -0.49440  -0.49187
 Alpha  occ. eigenvalues --   -0.48896  -0.48708  -0.48578  -0.48448  -0.48289
 Alpha  occ. eigenvalues --   -0.47944  -0.47757  -0.47637  -0.47217  -0.47105
 Alpha  occ. eigenvalues --   -0.46748  -0.46658  -0.46394  -0.46310  -0.45632
 Alpha  occ. eigenvalues --   -0.45561  -0.45411  -0.45060  -0.44626  -0.44390
 Alpha  occ. eigenvalues --   -0.44101  -0.43756  -0.43640  -0.43348  -0.43094
 Alpha  occ. eigenvalues --   -0.43035  -0.42700  -0.42320  -0.42215  -0.42174
 Alpha  occ. eigenvalues --   -0.41818  -0.41264  -0.40900  -0.40534  -0.40115
 Alpha  occ. eigenvalues --   -0.39951  -0.39832  -0.39592  -0.39535  -0.39325
 Alpha  occ. eigenvalues --   -0.39023  -0.38528  -0.38407  -0.37205  -0.37070
 Alpha  occ. eigenvalues --   -0.36114  -0.36011  -0.35702  -0.34932  -0.34540
 Alpha  occ. eigenvalues --   -0.34390  -0.34303  -0.33169  -0.32886  -0.31124
 Alpha  occ. eigenvalues --   -0.30941  -0.30067  -0.29281
 Alpha virt. eigenvalues --   -0.11806  -0.10914  -0.09713  -0.09139  -0.08468
 Alpha virt. eigenvalues --   -0.08207  -0.07549  -0.07525  -0.06271  -0.05867
 Alpha virt. eigenvalues --   -0.03555  -0.03091  -0.02894  -0.02769  -0.02348

 Mulliken charges:
               1
     1  N   -0.769789
     2  H    0.411166
     3  H    0.395014
     4  H    0.463816
     5  C   -0.131735
     6  H    0.230513
     7  C    0.669711
     8  C   -0.490464
     9  H    0.184064
    10  H    0.176156
    11  H    0.236653
    12  O   -0.554164
    13  N   -0.592323
    14  H    0.355126
    15  C   -0.080611
    16  H    0.199781
    17  C    0.623869
    18  C   -0.381513
    19  H    0.197176
    20  H    0.184166
    21  O   -0.502624
    22  C    0.010906
    23  C    0.002738
    24  H    0.173988
    25  C    0.081914
    26  C    0.310365
    27  C   -0.234476
    28  H    0.139243
    29  N   -0.682714
    30  H    0.342616
    31  C   -0.156009
    32  H    0.143834
    33  C   -0.161863
    34  H    0.143667
    35  C   -0.158578
    36  H    0.134559
    37  N   -0.626174
    38  H    0.382779
    39  C   -0.034771
    40  H    0.180787
    41  C    0.633571
    42  C   -0.311048
    43  H    0.186403
    44  H    0.174298
    45  O   -0.579581
    46  C   -0.396552
    47  H    0.208201
    48  H    0.197106
    49  C    0.598612
    50  O   -0.486712
    51  O   -0.555762
    52  N   -0.594536
    53  H    0.353881
    54  C   -0.023483
    55  H    0.169755
    56  C    0.627670
    57  C   -0.111390
    58  H    0.157289
    59  O   -0.551268
    60  C   -0.479578
    61  H    0.149497
    62  H    0.173646
    63  H    0.179016
    64  C   -0.451667
    65  H    0.156336
    66  H    0.147741
    67  H    0.171879
    68  N   -0.600741
    69  H    0.348260
    70  C   -0.105251
    71  H    0.209121
    72  C    0.638069
    73  C    0.133975
    74  H    0.155093
    75  O   -0.534345
    76  C   -0.509403
    77  H    0.241103
    78  H    0.194595
    79  H    0.102138
    80  O   -0.727577
    81  H    0.470795
    82  N   -0.623030
    83  H    0.376502
    84  C   -0.056591
    85  H    0.181253
    86  C    0.627168
    87  C   -0.083875
    88  H    0.148425
    89  O   -0.530547
    90  C   -0.462865
    91  H    0.141395
    92  H    0.179659
    93  H    0.152674
    94  C   -0.460804
    95  H    0.148436
    96  H    0.154403
    97  H    0.144928
    98  N   -0.637392
    99  H    0.368252
   100  C    0.012183
   101  H    0.192029
   102  C    0.570693
   103  C   -0.329749
   104  H    0.149605
   105  H    0.179252
   106  O   -0.506808
   107  C   -0.294007
   108  H    0.181621
   109  H    0.128001
   110  C   -0.295835
   111  H    0.147153
   112  H    0.166983
   113  C   -0.140503
   114  H    0.130587
   115  H    0.167627
   116  N   -0.771656
   117  H    0.333122
   118  H    0.332660
   119  H    0.456142
   120  O   -0.594466
   121  H    0.441418
 Sum of Mulliken charges =   1.00000

 Dipole moment (field-independent basis, Debye):
    X=             -6.3110    Y=              0.9647    Z=            -13.7131  Tot=             15.1264
 Quadrupole moment (field-independent basis, Debye-Ang):
   XX=           -337.6816   YY=           -331.3189   ZZ=           -195.8480
   XY=            -10.3296   XZ=              3.9233   YZ=             -9.0541

 Normal termination of Gaussian 16 at Sun Jul 10 13:38:09 2022.
