 Gaussian 16, Revision C.01,
 Gaussian 16:  ES64L-G16RevC.01  3-Jul-2019

 ----------------------------------------------------------------------
 # B3LYP/6-31G* empiricaldispersion=gd3bj guess=read geom=check nosymm
 integral(ultrafinegrid)
 ----------------------------------------------------------------------

 -----------------------------------------------------
 Candidate Structure: Conf:60 Charge calc in gas phase
 -----------------------------------------------------
 Structure from the checkpoint file:  "conf-60.chk"
 Charge =  1 Multiplicity = 1

                          Input orientation:
 ---------------------------------------------------------------------
 Center     Atomic      Atomic             Coordinates (Angstroms)
 Number     Number       Type             X           Y           Z
 ---------------------------------------------------------------------
      1          7           0       -4.029605    2.100479   -9.754870
      2          1           0       -4.941116    2.121767   -9.229527
      3          1           0       -4.192189    2.165154  -10.762734
      4          1           0       -3.484608    2.916763   -9.405731
      5          6           0       -3.195419    0.902744   -9.356537
      6          1           0       -3.865772    0.043227   -9.293647
      7          6           0       -2.679511    1.343278   -7.969605
      8          6           0       -2.068068    0.681929  -10.358373
      9          1           0       -1.464004   -0.172979  -10.041971
     10          1           0       -2.456400    0.465657  -11.359300
     11          1           0       -1.415050    1.559188  -10.400866
     12          8           0       -2.414259    2.539861   -7.830355
     13          7           0       -2.606235    0.415980   -7.011639
     14          1           0       -2.781647   -0.570716   -7.180985
     15          6           0       -2.574670    0.777663   -5.604581
     16          1           0       -1.979684    1.685557   -5.494767
     17          6           0       -1.968355   -0.417289   -4.861771
     18          6           0       -4.034284    1.005213   -5.073665
     19          1           0       -4.484404    0.018766   -4.917488
     20          1           0       -3.967160    1.488627   -4.093215
     21          8           0       -2.102257   -1.551829   -5.334410
     22          6           0       -4.890626    1.797515   -6.011547
     23          6           0       -5.740171    1.274545   -6.940539
     24          1           0       -6.037140    0.246660   -7.101153
     25          6           0       -4.882138    3.237347   -6.207628
     26          6           0       -5.749853    3.521806   -7.284032
     27          6           0       -4.204862    4.288131   -5.576587
     28          1           0       -3.519158    4.095699   -4.757225
     29          7           0       -6.220027    2.289526   -7.806134
     30          1           0       -7.179202    2.234646   -8.137899
     31          6           0       -5.312672    5.849658   -7.082898
     32          1           0       -5.476741    6.874959   -7.398755
     33          6           0       -5.980581    4.817650   -7.739981
     34          1           0       -6.662306    5.022360   -8.560891
     35          6           0       -4.431460    5.586610   -6.018709
     36          1           0       -3.921376    6.414001   -5.536144
     37          7           0       -1.382564   -0.129930   -3.696866
     38          1           0       -1.301759    0.821202   -3.339953
     39          6           0       -0.862357   -1.126503   -2.777855
     40          1           0       -1.640652   -1.876066   -2.594423
     41          6           0       -0.605905   -0.361705   -1.466242
     42          6           0        0.413586   -1.835193   -3.318700
     43          1           0        0.770847   -1.262332   -4.177242
     44          1           0        1.203693   -1.795525   -2.564288
     45          8           0       -0.802910    0.861377   -1.409816
     46          6           0        0.166643   -3.283166   -3.737305
     47          1           0       -0.679544   -3.338858   -4.431824
     48          1           0        1.032182   -3.693401   -4.271303
     49          6           0       -0.115106   -4.190024   -2.564256
     50          8           0       -0.184364   -3.844885   -1.395304
     51          8           0       -0.293079   -5.465621   -2.939999
     52          7           0       -0.154817   -1.100342   -0.444925
     53          1           0       -0.011225   -2.097412   -0.602132
     54          6           0        0.260169   -0.511561    0.835056
     55          1           0       -0.398850    0.345590    1.013129
     56          6           0        1.705179    0.008834    0.647330
     57          6           0        0.125175   -1.518547    1.985157
     58          1           0        0.894472   -2.287714    1.840030
     59          8           0        2.686417   -0.507831    1.186864
     60          6           0        0.394368   -0.823167    3.325936
     61          1           0       -0.333696   -0.021141    3.502656
     62          1           0        0.302877   -1.540495    4.147904
     63          1           0        1.398924   -0.397433    3.361004
     64          6           0       -1.258911   -2.181284    1.986954
     65          1           0       -2.053220   -1.428848    2.069853
     66          1           0       -1.443321   -2.768650    1.082242
     67          1           0       -1.348381   -2.855447    2.844943
     68          7           0        1.799089    1.039278   -0.224254
     69          1           0        0.948664    1.362035   -0.679452
     70          6           0        3.077837    1.417830   -0.810755
     71          1           0        3.720366    0.528058   -0.782745
     72          6           0        3.735139    2.510982    0.043500
     73          6           0        2.890892    1.856187   -2.271652
     74          1           0        2.265835    2.753235   -2.289709
     75          8           0        3.747713    3.694306   -0.300747
     76          6           0        4.219946    2.139092   -2.961868
     77          1           0        4.750251    2.972617   -2.495508
     78          1           0        4.868181    1.251366   -2.923708
     79          1           0        4.041302    2.385335   -4.012835
     80          8           0        2.136578    0.856527   -2.980595
     81          1           0        2.742151    0.113571   -3.134751
     82          7           0        4.286322    2.055613    1.189246
     83          1           0        4.174149    1.071391    1.417067
     84          6           0        4.951493    2.956936    2.133138
     85          1           0        4.471033    3.934356    2.012042
     86          6           0        6.428210    3.074066    1.687552
     87          6           0        4.799478    2.481053    3.583763
     88          1           0        5.391252    1.563062    3.693184
     89          8           0        7.361739    2.589102    2.325231
     90          6           0        5.372247    3.530970    4.544740
     91          1           0        4.825575    4.478730    4.455047
     92          1           0        6.429578    3.713884    4.342990
     93          1           0        5.276130    3.189557    5.580970
     94          6           0        3.332385    2.183010    3.919901
     95          1           0        2.709980    3.075381    3.776531
     96          1           0        3.240487    1.876335    4.967358
     97          1           0        2.918139    1.383135    3.299456
     98          7           0        6.592098    3.699911    0.497892
     99          1           0        5.786849    4.034239   -0.030307
    100          6           0        7.877022    3.717253   -0.168246
    101          1           0        8.596442    4.253746    0.461197
    102          6           0        7.713219    4.480924   -1.483730
    103          6           0        8.445791    2.285168   -0.452074
    104          1           0        8.656054    2.184067   -1.523335
    105          1           0        7.641849    1.577664   -0.237267
    106          8           0        8.849027    4.903124   -2.033913
    107          6           0        9.703466    1.932203    0.370953
    108          1           0        9.859105    2.706685    1.128541
    109          1           0        9.520767    1.020077    0.947230
    110          6           0       10.991167    1.725647   -0.445676
    111          1           0       11.826423    1.597743    0.256700
    112          1           0       10.926751    0.787545   -1.012237
    113          6           0       11.348738    2.830092   -1.446620
    114          1           0       10.692981    2.778832   -2.323401
    115          1           0       12.372769    2.660626   -1.805660
    116          7           0       11.187281    4.187052   -0.873112
    117          1           0       11.798092    4.846506   -1.353333
    118          1           0        9.649652    4.698085   -1.448595
    119          1           0       11.465129    4.198523    0.107005
    120          8           0        6.632611    4.651249   -2.012525
    121          1           0       -0.464612   -5.984208   -2.130301
 ---------------------------------------------------------------------

 SCF Done:  E(RB3LYP) =  -2843.93303311     A.U. after    2 cycles

 Alpha  occ. eigenvalues --  -19.28075 -19.25397 -19.23217 -19.21654 -19.21105
 Alpha  occ. eigenvalues --  -19.20338 -19.20023 -19.18025 -19.16229 -19.15786
 Alpha  occ. eigenvalues --  -19.14529 -14.58552 -14.49905 -14.48857 -14.45281
 Alpha  occ. eigenvalues --  -14.43436 -14.41353 -14.40266 -14.39560 -14.38110
 Alpha  occ. eigenvalues --  -10.42648 -10.41039 -10.40237 -10.38762 -10.37122
 Alpha  occ. eigenvalues --  -10.34723 -10.34672 -10.34121 -10.33358 -10.33221
 Alpha  occ. eigenvalues --  -10.32988 -10.32857 -10.32282 -10.31397 -10.30708
 Alpha  occ. eigenvalues --  -10.30359 -10.29543 -10.29499 -10.29379 -10.29318
 Alpha  occ. eigenvalues --  -10.28617 -10.28552 -10.28389 -10.28045 -10.27978
 Alpha  occ. eigenvalues --  -10.27732 -10.26771 -10.26493 -10.26416 -10.24924
 Alpha  occ. eigenvalues --  -10.23115 -10.22838 -10.22726 -10.22607 -10.22100
 Alpha  occ. eigenvalues --  -10.22074 -10.21981 -10.20839 -10.20036  -1.19379
 Alpha  occ. eigenvalues --   -1.18238  -1.13737  -1.12803  -1.12141  -1.11585
 Alpha  occ. eigenvalues --   -1.10256  -1.09749  -1.08718  -1.08332  -1.07933
 Alpha  occ. eigenvalues --   -1.06252  -1.05650  -1.03514  -1.02150  -1.00467
 Alpha  occ. eigenvalues --   -0.98120  -0.96822  -0.95241  -0.94955  -0.94432
 Alpha  occ. eigenvalues --   -0.92874  -0.91440  -0.89306  -0.86844  -0.86491
 Alpha  occ. eigenvalues --   -0.84467  -0.83868  -0.83607  -0.83085  -0.82798
 Alpha  occ. eigenvalues --   -0.81983  -0.80475  -0.79301  -0.78048  -0.77179
 Alpha  occ. eigenvalues --   -0.75795  -0.74536  -0.73829  -0.73477  -0.73178
 Alpha  occ. eigenvalues --   -0.72455  -0.72299  -0.71586  -0.71387  -0.71120
 Alpha  occ. eigenvalues --   -0.69784  -0.68691  -0.68010  -0.67413  -0.67267
 Alpha  occ. eigenvalues --   -0.66761  -0.66376  -0.65704  -0.64264  -0.64027
 Alpha  occ. eigenvalues --   -0.63836  -0.63440  -0.62661  -0.62406  -0.61434
 Alpha  occ. eigenvalues --   -0.61090  -0.60817  -0.60635  -0.59583  -0.59244
 Alpha  occ. eigenvalues --   -0.58628  -0.58519  -0.58274  -0.58014  -0.57665
 Alpha  occ. eigenvalues --   -0.57373  -0.56786  -0.56244  -0.56049  -0.55891
 Alpha  occ. eigenvalues --   -0.55819  -0.55433  -0.55143  -0.54595  -0.53878
 Alpha  occ. eigenvalues --   -0.53717  -0.53522  -0.53390  -0.52887  -0.52786
 Alpha  occ. eigenvalues --   -0.52252  -0.52070  -0.51642  -0.51420  -0.51148
 Alpha  occ. eigenvalues --   -0.51063  -0.50504  -0.50262  -0.50111  -0.49942
 Alpha  occ. eigenvalues --   -0.49900  -0.49445  -0.49351  -0.48958  -0.48555
 Alpha  occ. eigenvalues --   -0.48341  -0.48008  -0.47962  -0.47500  -0.47383
 Alpha  occ. eigenvalues --   -0.46814  -0.46768  -0.46632  -0.46235  -0.46032
 Alpha  occ. eigenvalues --   -0.45740  -0.45252  -0.45206  -0.44957  -0.44555
 Alpha  occ. eigenvalues --   -0.44274  -0.44100  -0.43981  -0.43742  -0.43606
 Alpha  occ. eigenvalues --   -0.43432  -0.43184  -0.42827  -0.42749  -0.42398
 Alpha  occ. eigenvalues --   -0.42276  -0.41922  -0.41661  -0.41271  -0.41027
 Alpha  occ. eigenvalues --   -0.40600  -0.40136  -0.39919  -0.39727  -0.39388
 Alpha  occ. eigenvalues --   -0.39137  -0.39014  -0.38521  -0.38423  -0.37730
 Alpha  occ. eigenvalues --   -0.37543  -0.37357  -0.36925  -0.36819  -0.36585
 Alpha  occ. eigenvalues --   -0.36486  -0.36192  -0.35877  -0.35221  -0.34698
 Alpha  occ. eigenvalues --   -0.34218  -0.33652  -0.33409  -0.33210  -0.32860
 Alpha  occ. eigenvalues --   -0.32006  -0.31924  -0.31259  -0.30722  -0.29496
 Alpha  occ. eigenvalues --   -0.28966  -0.28142  -0.27193
 Alpha virt. eigenvalues --   -0.12408  -0.12137  -0.09335  -0.08704  -0.07954
 Alpha virt. eigenvalues --   -0.07766  -0.06576  -0.05168  -0.04247  -0.03896
 Alpha virt. eigenvalues --   -0.03297  -0.02905  -0.01690  -0.01535  -0.01043

 Mulliken charges:
               1
     1  N   -0.765355
     2  H    0.440799
     3  H    0.399882
     4  H    0.424483
     5  C   -0.108311
     6  H    0.196885
     7  C    0.659066
     8  C   -0.469460
     9  H    0.210675
    10  H    0.183548
    11  H    0.202378
    12  O   -0.524743
    13  N   -0.596628
    14  H    0.357547
    15  C   -0.070266
    16  H    0.204108
    17  C    0.641649
    18  C   -0.368817
    19  H    0.177067
    20  H    0.187284
    21  O   -0.555706
    22  C    0.109303
    23  C   -0.079018
    24  H    0.166378
    25  C    0.145382
    26  C    0.217682
    27  C   -0.188481
    28  H    0.147491
    29  N   -0.723872
    30  H    0.357281
    31  C   -0.141717
    32  H    0.158012
    33  C   -0.188647
    34  H    0.143281
    35  C   -0.132751
    36  H    0.159066
    37  N   -0.624412
    38  H    0.370320
    39  C   -0.019846
    40  H    0.187513
    41  C    0.617978
    42  C   -0.283732
    43  H    0.175094
    44  H    0.167295
    45  O   -0.573217
    46  C   -0.379715
    47  H    0.224758
    48  H    0.191012
    49  C    0.595548
    50  O   -0.484815
    51  O   -0.547270
    52  N   -0.637894
    53  H    0.403003
    54  C   -0.050446
    55  H    0.180532
    56  C    0.628338
    57  C   -0.096355
    58  H    0.153901
    59  O   -0.548656
    60  C   -0.471824
    61  H    0.140724
    62  H    0.153974
    63  H    0.187736
    64  C   -0.453432
    65  H    0.143312
    66  H    0.146720
    67  H    0.156439
    68  N   -0.611931
    69  H    0.384204
    70  C   -0.074462
    71  H    0.155571
    72  C    0.645022
    73  C    0.110872
    74  H    0.166848
    75  O   -0.543808
    76  C   -0.499043
    77  H    0.230416
    78  H    0.122829
    79  H    0.156656
    80  O   -0.639532
    81  H    0.384971
    82  N   -0.624839
    83  H    0.368789
    84  C   -0.046609
    85  H    0.176142
    86  C    0.625450
    87  C   -0.091266
    88  H    0.148001
    89  O   -0.539262
    90  C   -0.460105
    91  H    0.136116
    92  H    0.178009
    93  H    0.145154
    94  C   -0.465249
    95  H    0.141754
    96  H    0.148573
    97  H    0.153842
    98  N   -0.654211
    99  H    0.391987
   100  C   -0.023912
   101  H    0.164177
   102  C    0.573557
   103  C   -0.285196
   104  H    0.148795
   105  H    0.160961
   106  O   -0.621250
   107  C   -0.250938
   108  H    0.151418
   109  H    0.157231
   110  C   -0.295111
   111  H    0.141941
   112  H    0.146675
   113  C   -0.134415
   114  H    0.159782
   115  H    0.146961
   116  N   -0.783450
   117  H    0.334298
   118  H    0.476455
   119  H    0.329691
   120  O   -0.471051
   121  H    0.424430
 Sum of Mulliken charges =   1.00000

 Dipole moment (field-independent basis, Debye):
    X=            -13.1166    Y=              1.2526    Z=            -37.7686  Tot=             40.0010
 Quadrupole moment (field-independent basis, Debye-Ang):
   XX=           -155.6424   YY=           -318.9663   ZZ=             11.5274
   XY=            -27.5762   XZ=            160.2849   YZ=            -46.6984

 Normal termination of Gaussian 16 at Sun Jul 10 13:38:30 2022.
