 Gaussian 16, Revision C.01,
 Gaussian 16:  ES64L-G16RevC.01  3-Jul-2019

 ----------------------------------------------------------------------
 # B3LYP/6-31G* empiricaldispersion=gd3bj guess=read geom=check nosymm
 integral(ultrafinegrid)
 ----------------------------------------------------------------------

 ------------------------------------------------------
 Candidate Structure: Conf:121 Charge calc in gas phase
 ------------------------------------------------------
 Structure from the checkpoint file:  "conf-121.chk"
 Charge =  1 Multiplicity = 1

                          Input orientation:
 ---------------------------------------------------------------------
 Center     Atomic      Atomic             Coordinates (Angstroms)
 Number     Number       Type             X           Y           Z
 ---------------------------------------------------------------------
      1          7           0       -5.269463   -5.456741   -5.825502
      2          1           0       -6.168931   -5.794233   -6.178117
      3          1           0       -4.581694   -6.210855   -5.901611
      4          1           0       -4.964507   -4.600601   -6.393079
      5          6           0       -5.349163   -4.865446   -4.432396
      6          1           0       -6.326895   -5.112052   -4.012214
      7          6           0       -5.198032   -3.349844   -4.709744
      8          6           0       -4.206130   -5.378631   -3.557567
      9          1           0       -4.287949   -4.941869   -2.559604
     10          1           0       -4.243793   -6.467793   -3.453652
     11          1           0       -3.239770   -5.065594   -3.963515
     12          8           0       -4.871992   -3.007203   -5.854498
     13          7           0       -5.381926   -2.531246   -3.682091
     14          1           0       -5.699135   -2.878568   -2.781739
     15          6           0       -4.891659   -1.164831   -3.700517
     16          1           0       -5.401290   -0.614624   -4.496764
     17          6           0       -3.369718   -1.196998   -3.943507
     18          6           0       -5.153695   -0.500488   -2.311675
     19          1           0       -4.306413   -0.721076   -1.654187
     20          1           0       -5.158802    0.584979   -2.461323
     21          8           0       -2.721665   -2.235240   -3.793474
     22          6           0       -6.418583   -0.959901   -1.660482
     23          6           0       -6.510325   -1.663767   -0.479086
     24          1           0       -5.727037   -1.962598    0.204555
     25          6           0       -7.766423   -0.789796   -2.148325
     26          6           0       -8.630578   -1.407715   -1.204355
     27          6           0       -8.321674   -0.179788   -3.285644
     28          1           0       -7.687196    0.310557   -4.019175
     29          7           0       -7.833839   -1.938728   -0.204514
     30          1           0       -8.173706   -2.353900    0.649647
     31          6           0      -10.538599   -0.812168   -2.497513
     32          1           0      -11.613254   -0.801668   -2.650340
     33          6           0      -10.019079   -1.426247   -1.364541
     34          1           0      -10.667935   -1.895284   -0.630827
     35          6           0       -9.699961   -0.195742   -3.449062
     36          1           0      -10.144248    0.280068   -4.317758
     37          7           0       -2.815417   -0.002160   -4.234082
     38          1           0       -3.399627    0.825417   -4.240201
     39          6           0       -1.366129    0.216849   -4.126290
     40          1           0       -0.885398   -0.677227   -4.532236
     41          6           0       -1.032904    0.355437   -2.623191
     42          6           0       -0.939563    1.463676   -4.890179
     43          1           0       -1.355017    1.435599   -5.902278
     44          1           0       -1.347996    2.344019   -4.386271
     45          8           0       -0.951172    1.451784   -2.076386
     46          6           0        0.588046    1.577627   -4.934006
     47          1           0        1.052030    1.218122   -4.010987
     48          1           0        1.010893    0.950204   -5.729599
     49          6           0        1.033431    2.998636   -5.181050
     50          8           0        0.324323    3.908246   -5.545347
     51          8           0        2.362956    3.156798   -4.947225
     52          7           0       -0.918395   -0.821047   -1.960250
     53          1           0       -0.968470   -1.682389   -2.489674
     54          6           0       -0.561763   -0.875290   -0.542753
     55          1           0       -1.102550   -0.065418   -0.041948
     56          6           0        0.951967   -0.609086   -0.479256
     57          6           0       -0.945187   -2.223796    0.078317
     58          1           0       -0.346369   -2.992282   -0.427417
     59          8           0        1.774039   -1.521520   -0.635675
     60          6           0       -0.575848   -2.238343    1.566393
     61          1           0       -1.114370   -1.454233    2.113147
     62          1           0       -0.837897   -3.200944    2.017536
     63          1           0        0.497233   -2.084297    1.707786
     64          6           0       -2.436372   -2.529082   -0.124096
     65          1           0       -3.054509   -1.747580    0.338520
     66          1           0       -2.704891   -2.594540   -1.183704
     67          1           0       -2.693791   -3.481271    0.353838
     68          7           0        1.288382    0.685657   -0.327352
     69          1           0        0.575266    1.406481   -0.415353
     70          6           0        2.655543    1.146176   -0.488603
     71          1           0        3.317973    0.412111   -0.017697
     72          6           0        2.745118    2.517042    0.191074
     73          6           0        3.021198    1.288886   -1.992185
     74          1           0        2.442479    2.128650   -2.391798
     75          8           0        1.799500    3.295982    0.120624
     76          6           0        4.508701    1.573734   -2.209575
     77          1           0        4.811149    2.498759   -1.708113
     78          1           0        5.112455    0.741406   -1.820368
     79          1           0        4.689460    1.667544   -3.284542
     80          8           0        2.622562    0.144429   -2.736031
     81          1           0        2.651016   -0.634099   -2.145721
     82          7           0        3.917158    2.784586    0.810392
     83          1           0        4.697140    2.146285    0.711224
     84          6           0        4.291277    4.121750    1.245232
     85          1           0        3.607070    4.824178    0.760038
     86          6           0        5.724852    4.386188    0.763003
     87          6           0        4.175550    4.308954    2.781430
     88          1           0        4.463883    5.349685    2.976418
     89          8           0        6.436141    3.381406    0.425015
     90          6           0        2.727506    4.112100    3.239827
     91          1           0        2.406224    3.076313    3.083918
     92          1           0        2.039610    4.760161    2.688602
     93          1           0        2.635600    4.336020    4.307990
     94          6           0        5.135175    3.387434    3.542168
     95          1           0        4.891400    2.334152    3.357637
     96          1           0        5.054612    3.561617    4.619898
     97          1           0        6.178634    3.550398    3.252415
     98          7           0        6.096806    5.638627    0.795228
     99          1           0        5.414063    6.437412    0.934207
    100          6           0        7.345003    6.341673    0.493588
    101          1           0        7.935880    6.396767    1.418532
    102          6           0        6.852580    7.835290    0.178491
    103          6           0        8.213255    5.778975   -0.622155
    104          1           0        8.708376    6.651009   -1.062365
    105          1           0        7.558278    5.375811   -1.407436
    106          8           0        7.689403    8.564073   -0.364298
    107          6           0        9.273247    4.766178   -0.153641
    108          1           0       10.065316    5.325122    0.355851
    109          1           0        8.848667    4.086505    0.595493
    110          6           0        9.893122    3.940765   -1.296318
    111          1           0        9.934751    4.537425   -2.217723
    112          1           0       10.928613    3.665481   -1.065712
    113          6           0        9.159412    2.629258   -1.560395
    114          1           0        9.232789    1.960209   -0.698874
    115          1           0        9.545494    2.110481   -2.442270
    116          7           0        7.684386    2.855999   -1.765750
    117          1           0        7.200923    1.997734   -2.042491
    118          1           0        7.199467    3.202893   -0.839449
    119          1           0        7.517707    3.553978   -2.494679
    120          8           0        5.663095    8.045927    0.552376
    121          1           0        2.553989    4.096125   -5.133281
 ---------------------------------------------------------------------

 SCF Done:  E(RB3LYP) =  -2843.86795407     A.U. after    2 cycles

 Alpha  occ. eigenvalues --  -19.27878 -19.25463 -19.23105 -19.20487 -19.19951
 Alpha  occ. eigenvalues --  -19.19677 -19.19256 -19.18851 -19.17722 -19.08211
 Alpha  occ. eigenvalues --  -19.07075 -14.60888 -14.52048 -14.50417 -14.47519
 Alpha  occ. eigenvalues --  -14.47263 -14.44381 -14.42703 -14.42032 -14.39910
 Alpha  occ. eigenvalues --  -10.44410 -10.42064 -10.40082 -10.37886 -10.36908
 Alpha  occ. eigenvalues --  -10.35891 -10.35760 -10.35031 -10.34831 -10.34225
 Alpha  occ. eigenvalues --  -10.33315 -10.32324 -10.32080 -10.31052 -10.31028
 Alpha  occ. eigenvalues --  -10.30932 -10.30876 -10.30065 -10.28518 -10.28280
 Alpha  occ. eigenvalues --  -10.27658 -10.27545 -10.27475 -10.27454 -10.26964
 Alpha  occ. eigenvalues --  -10.26872 -10.26625 -10.26531 -10.26372 -10.26219
 Alpha  occ. eigenvalues --  -10.26020 -10.25625 -10.24635 -10.24144 -10.24034
 Alpha  occ. eigenvalues --  -10.23942 -10.22423 -10.21856 -10.21197  -1.20509
 Alpha  occ. eigenvalues --   -1.16186  -1.15252  -1.14498  -1.12127  -1.10986
 Alpha  occ. eigenvalues --   -1.10058  -1.09329  -1.07849  -1.07666  -1.07233
 Alpha  occ. eigenvalues --   -1.07228  -1.06985  -1.03522  -1.01565  -1.00915
 Alpha  occ. eigenvalues --   -0.99258  -0.98673  -0.96799  -0.94565  -0.92785
 Alpha  occ. eigenvalues --   -0.92737  -0.91224  -0.89129  -0.88116  -0.87372
 Alpha  occ. eigenvalues --   -0.86405  -0.86072  -0.84160  -0.82492  -0.82301
 Alpha  occ. eigenvalues --   -0.82048  -0.81886  -0.80953  -0.79890  -0.77964
 Alpha  occ. eigenvalues --   -0.77074  -0.76566  -0.76316  -0.75163  -0.74473
 Alpha  occ. eigenvalues --   -0.74295  -0.73265  -0.72669  -0.71759  -0.71241
 Alpha  occ. eigenvalues --   -0.70156  -0.70021  -0.68674  -0.68488  -0.67636
 Alpha  occ. eigenvalues --   -0.67385  -0.67121  -0.66142  -0.65711  -0.65399
 Alpha  occ. eigenvalues --   -0.65153  -0.65031  -0.64460  -0.63883  -0.63828
 Alpha  occ. eigenvalues --   -0.63080  -0.62725  -0.62201  -0.61473  -0.60644
 Alpha  occ. eigenvalues --   -0.59837  -0.59787  -0.58974  -0.58445  -0.57937
 Alpha  occ. eigenvalues --   -0.57756  -0.57709  -0.57425  -0.57138  -0.56044
 Alpha  occ. eigenvalues --   -0.55363  -0.55198  -0.54911  -0.54701  -0.54458
 Alpha  occ. eigenvalues --   -0.54317  -0.53999  -0.53756  -0.53251  -0.53101
 Alpha  occ. eigenvalues --   -0.52829  -0.52490  -0.52312  -0.52086  -0.52024
 Alpha  occ. eigenvalues --   -0.51637  -0.51412  -0.51303  -0.50939  -0.50633
 Alpha  occ. eigenvalues --   -0.50448  -0.50052  -0.49816  -0.49571  -0.49544
 Alpha  occ. eigenvalues --   -0.49273  -0.48892  -0.48778  -0.48461  -0.48250
 Alpha  occ. eigenvalues --   -0.47813  -0.47718  -0.47219  -0.47041  -0.46984
 Alpha  occ. eigenvalues --   -0.46597  -0.46131  -0.46055  -0.45678  -0.45271
 Alpha  occ. eigenvalues --   -0.45027  -0.44517  -0.44413  -0.44225  -0.44108
 Alpha  occ. eigenvalues --   -0.44056  -0.43844  -0.43283  -0.42922  -0.42726
 Alpha  occ. eigenvalues --   -0.42565  -0.42525  -0.42438  -0.42247  -0.42148
 Alpha  occ. eigenvalues --   -0.41995  -0.41753  -0.41465  -0.40841  -0.40487
 Alpha  occ. eigenvalues --   -0.40130  -0.39546  -0.39030  -0.38671  -0.38117
 Alpha  occ. eigenvalues --   -0.38045  -0.37803  -0.37590  -0.37569  -0.37105
 Alpha  occ. eigenvalues --   -0.37077  -0.36321  -0.35555  -0.35259  -0.34025
 Alpha  occ. eigenvalues --   -0.33684  -0.33306  -0.33139  -0.32758  -0.31803
 Alpha  occ. eigenvalues --   -0.31391  -0.31347  -0.31000  -0.30695  -0.29893
 Alpha  occ. eigenvalues --   -0.23245  -0.23179  -0.21379
 Alpha virt. eigenvalues --   -0.13128  -0.12067  -0.10439  -0.09221  -0.07175
 Alpha virt. eigenvalues --   -0.06887  -0.06548  -0.05807  -0.05398  -0.05161
 Alpha virt. eigenvalues --   -0.04431  -0.04219  -0.04081  -0.03680  -0.02874

 Mulliken charges:
               1
     1  N   -0.755638
     2  H    0.417725
     3  H    0.416009
     4  H    0.437948
     5  C   -0.120378
     6  H    0.220193
     7  C    0.681110
     8  C   -0.475129
     9  H    0.208534
    10  H    0.186338
    11  H    0.218784
    12  O   -0.535888
    13  N   -0.589320
    14  H    0.351111
    15  C   -0.049465
    16  H    0.196408
    17  C    0.659973
    18  C   -0.409845
    19  H    0.188007
    20  H    0.184823
    21  O   -0.562476
    22  C    0.016971
    23  C   -0.014038
    24  H    0.173337
    25  C    0.102470
    26  C    0.306255
    27  C   -0.210989
    28  H    0.124657
    29  N   -0.684034
    30  H    0.343636
    31  C   -0.149189
    32  H    0.149156
    33  C   -0.160469
    34  H    0.144260
    35  C   -0.139223
    36  H    0.143890
    37  N   -0.601175
    38  H    0.349450
    39  C   -0.061342
    40  H    0.179318
    41  C    0.630629
    42  C   -0.280450
    43  H    0.159602
    44  H    0.191535
    45  O   -0.527036
    46  C   -0.398522
    47  H    0.236498
    48  H    0.180196
    49  C    0.592837
    50  O   -0.452838
    51  O   -0.577615
    52  N   -0.617253
    53  H    0.358102
    54  C   -0.027804
    55  H    0.167469
    56  C    0.630949
    57  C   -0.099861
    58  H    0.154752
    59  O   -0.576556
    60  C   -0.462240
    61  H    0.147453
    62  H    0.151477
    63  H    0.179285
    64  C   -0.480416
    65  H    0.145086
    66  H    0.147525
    67  H    0.145392
    68  N   -0.585437
    69  H    0.382051
    70  C   -0.108660
    71  H    0.164903
    72  C    0.621314
    73  C    0.167584
    74  H    0.163363
    75  O   -0.526258
    76  C   -0.499785
    77  H    0.146004
    78  H    0.131671
    79  H    0.172582
    80  O   -0.659667
    81  H    0.421418
    82  N   -0.599595
    83  H    0.341087
    84  C   -0.067745
    85  H    0.199703
    86  C    0.627928
    87  C   -0.072383
    88  H    0.160227
    89  O   -0.673417
    90  C   -0.447279
    91  H    0.142593
    92  H    0.167019
    93  H    0.149133
    94  C   -0.464068
    95  H    0.137385
    96  H    0.157591
    97  H    0.156715
    98  N   -0.593659
    99  H    0.385517
   100  C   -0.072934
   101  H    0.163162
   102  C    0.596005
   103  C   -0.277955
   104  H    0.207370
   105  H    0.076058
   106  O   -0.561830
   107  C   -0.296661
   108  H    0.169569
   109  H    0.154815
   110  C   -0.284755
   111  H    0.163076
   112  H    0.175254
   113  C   -0.183605
   114  H    0.201577
   115  H    0.185965
   116  N   -0.787260
   117  H    0.396379
   118  H    0.481387
   119  H    0.390192
   120  O   -0.609019
   121  H    0.415415
 Sum of Mulliken charges =   1.00000

 Dipole moment (field-independent basis, Debye):
    X=            -20.1071    Y=            -33.8639    Z=            -20.8679  Tot=             44.5705
 Quadrupole moment (field-independent basis, Debye-Ang):
   XX=            -86.8315   YY=           -393.2491   ZZ=           -230.1820
   XY=             59.8008   XZ=             62.9218   YZ=             91.0102

 Normal termination of Gaussian 16 at Sun Jul 10 13:38:38 2022.
