 Gaussian 16, Revision C.01,
 Gaussian 16:  ES64L-G16RevC.01  3-Jul-2019

 ----------------------------------------------------------------------
 # B3LYP/6-31G* empiricaldispersion=gd3bj guess=read geom=check nosymm
 integral(ultrafinegrid)
 ----------------------------------------------------------------------

 ------------------------------------------------------
 Candidate Structure: Conf:231 Charge calc in gas phase
 ------------------------------------------------------
 Structure from the checkpoint file:  "conf-231.chk"
 Charge =  1 Multiplicity = 1

                          Input orientation:
 ---------------------------------------------------------------------
 Center     Atomic      Atomic             Coordinates (Angstroms)
 Number     Number       Type             X           Y           Z
 ---------------------------------------------------------------------
      1          7           0       -6.790439   -4.334909   -3.576983
      2          1           0       -7.237833   -4.474087   -2.667273
      3          1           0       -7.039559   -5.118619   -4.186753
      4          1           0       -7.116275   -3.405614   -4.001672
      5          6           0       -5.294253   -4.105586   -3.486667
      6          1           0       -5.000462   -4.224847   -2.441285
      7          6           0       -5.158977   -2.620220   -3.923192
      8          6           0       -4.532372   -5.071366   -4.389991
      9          1           0       -3.460194   -4.867924   -4.327820
     10          1           0       -4.689970   -6.109823   -4.082535
     11          1           0       -4.833008   -4.949883   -5.436145
     12          8           0       -6.188202   -2.046910   -4.321680
     13          7           0       -3.951986   -2.090872   -3.844487
     14          1           0       -3.124123   -2.618815   -3.557342
     15          6           0       -3.622259   -0.726201   -4.241537
     16          1           0       -4.049293   -0.524557   -5.228327
     17          6           0       -2.087840   -0.701914   -4.285347
     18          6           0       -4.170245    0.328325   -3.229263
     19          1           0       -5.195554    0.028825   -2.985499
     20          1           0       -3.582678    0.270859   -2.306211
     21          8           0       -1.441494   -1.675424   -3.870701
     22          6           0       -4.162675    1.711793   -3.797796
     23          6           0       -3.352609    2.769724   -3.439593
     24          1           0       -2.570303    2.824972   -2.695546
     25          6           0       -4.988275    2.169266   -4.890262
     26          6           0       -4.623598    3.518927   -5.148490
     27          6           0       -5.992605    1.567822   -5.668725
     28          1           0       -6.302056    0.543251   -5.477406
     29          7           0       -3.627952    3.850662   -4.247378
     30          1           0       -3.160889    4.743291   -4.191464
     31          6           0       -6.211562    3.650266   -6.917466
     32          1           0       -6.700616    4.206635   -7.711036
     33          6           0       -5.226978    4.272239   -6.159162
     34          1           0       -4.938967    5.302428   -6.345805
     35          6           0       -6.591994    2.314331   -6.674682
     36          1           0       -7.371327    1.867428   -7.284655
     37          7           0       -1.536096    0.436630   -4.735404
     38          1           0       -2.163084    1.223885   -4.882276
     39          6           0       -0.130646    0.770915   -4.466232
     40          1           0        0.453662   -0.137863   -4.632211
     41          6           0       -0.055951    1.188323   -2.980715
     42          6           0        0.324472    1.899624   -5.382717
     43          1           0        0.051070    1.650560   -6.413466
     44          1           0       -0.211912    2.813352   -5.112446
     45          8           0       -0.240495    2.363550   -2.631575
     46          6           0        1.828174    2.162402   -5.280801
     47          1           0        2.181309    2.138877   -4.242612
     48          1           0        2.413042    1.415213   -5.827941
     49          6           0        2.183082    3.542679   -5.788507
     50          8           0        1.392787    4.432712   -6.015261
     51          8           0        3.515618    3.680155   -5.954046
     52          7           0        0.122743    0.179261   -2.111170
     53          1           0        0.264416   -0.754020   -2.476782
     54          6           0        0.206058    0.383196   -0.660140
     55          1           0       -0.532832    1.150935   -0.404940
     56          6           0        1.632270    0.908805   -0.390145
     57          6           0       -0.109956   -0.904164    0.107646
     58          1           0        0.672983   -1.630809   -0.145785
     59          8           0        2.590768    0.151716   -0.274776
     60          6           0       -0.042600   -0.635901    1.615794
     61          1           0       -0.780582    0.119600    1.913887
     62          1           0       -0.258185   -1.551654    2.175641
     63          1           0        0.946096   -0.286993    1.918938
     64          6           0       -1.482810   -1.467862   -0.285056
     65          1           0       -2.275812   -0.742841   -0.055966
     66          1           0       -1.545654   -1.714388   -1.349751
     67          1           0       -1.691989   -2.377248    0.288994
     68          7           0        1.715113    2.257903   -0.410011
     69          1           0        0.859959    2.785669   -0.516530
     70          6           0        2.977880    2.988885   -0.458987
     71          1           0        3.722789    2.296722   -0.862198
     72          6           0        3.321650    3.400995    0.983499
     73          6           0        2.831193    4.197374   -1.397729
     74          1           0        2.126733    4.899072   -0.930108
     75          8           0        2.907880    4.460269    1.454083
     76          6           0        4.162944    4.898385   -1.608889
     77          1           0        4.553835    5.264605   -0.656095
     78          1           0        4.887697    4.210232   -2.058689
     79          1           0        4.029609    5.746959   -2.285733
     80          8           0        2.351709    3.789764   -2.680042
     81          1           0        1.419939    3.518591   -2.602113
     82          7           0        4.003833    2.460793    1.665475
     83          1           0        4.391096    1.656577    1.185556
     84          6           0        4.262148    2.516758    3.090826
     85          1           0        4.235811    3.567643    3.392680
     86          6           0        5.651265    1.913389    3.346283
     87          6           0        3.196329    1.729534    3.911424
     88          1           0        3.459291    1.855259    4.969005
     89          8           0        6.232151    1.263984    2.464894
     90          6           0        1.793022    2.301249    3.685533
     91          1           0        1.465559    2.145790    2.650944
     92          1           0        1.758422    3.376919    3.883015
     93          1           0        1.072561    1.803105    4.344625
     94          6           0        3.245774    0.228492    3.598349
     95          1           0        3.095404    0.039007    2.528525
     96          1           0        2.461598   -0.298765    4.152905
     97          1           0        4.205800   -0.211204    3.884882
     98          7           0        6.104254    2.101802    4.597100
     99          1           0        5.445655    2.432375    5.324295
    100          6           0        6.988410    1.168320    5.285617
    101          1           0        6.911395    0.181941    4.809785
    102          6           0        6.444536    1.053666    6.774834
    103          6           0        8.448105    1.601772    5.292537
    104          1           0        8.967846    0.936043    5.990204
    105          1           0        8.513259    2.620272    5.701050
    106          8           0        7.155856    0.373519    7.532750
    107          6           0        9.090511    1.562323    3.906004
    108          1           0        9.037998    0.542281    3.503991
    109          1           0        8.521944    2.189670    3.210766
    110          6           0       10.554592    2.023173    3.955604
    111          1           0       10.600749    3.049486    4.347533
    112          1           0       11.118319    1.381876    4.648319
    113          6           0       11.179616    1.970595    2.577096
    114          1           0       10.683723    2.633727    1.864776
    115          1           0       11.208986    0.959125    2.165810
    116          7           0       12.643828    2.439945    2.640803
    117          1           0       13.113298    2.420832    1.727972
    118          1           0       12.691663    3.398592    3.005374
    119          1           0       13.176611    1.846383    3.287428
    120          8           0        5.368557    1.681657    6.981463
    121          1           0        3.662406    4.607245   -6.219937
 ---------------------------------------------------------------------

 SCF Done:  E(RB3LYP) =  -2843.83069693     A.U. after    3 cycles

 Alpha  occ. eigenvalues --  -19.28061 -19.24057 -19.23333 -19.20640 -19.18504
 Alpha  occ. eigenvalues --  -19.18326 -19.16783 -19.13503 -19.11898 -19.04372
 Alpha  occ. eigenvalues --  -19.03342 -14.61130 -14.60866 -14.50299 -14.46329
 Alpha  occ. eigenvalues --  -14.45383 -14.44862 -14.41437 -14.37546 -14.33546
 Alpha  occ. eigenvalues --  -10.44544 -10.42171 -10.39888 -10.37476 -10.37342
 Alpha  occ. eigenvalues --  -10.36831 -10.35016 -10.34697 -10.33999 -10.32179
 Alpha  occ. eigenvalues --  -10.30876 -10.30026 -10.29562 -10.29543 -10.29014
 Alpha  occ. eigenvalues --  -10.28716 -10.28409 -10.27747 -10.26624 -10.26374
 Alpha  occ. eigenvalues --  -10.26059 -10.26001 -10.25735 -10.25644 -10.25544
 Alpha  occ. eigenvalues --  -10.25544 -10.25099 -10.24889 -10.24839 -10.23687
 Alpha  occ. eigenvalues --  -10.23150 -10.22675 -10.22306 -10.21121 -10.20134
 Alpha  occ. eigenvalues --  -10.19725 -10.19270 -10.18527 -10.18175  -1.20422
 Alpha  occ. eigenvalues --   -1.15264  -1.15059  -1.14983  -1.14608  -1.12316
 Alpha  occ. eigenvalues --   -1.08778  -1.07136  -1.06054  -1.05965  -1.05303
 Alpha  occ. eigenvalues --   -1.05257  -1.03216  -1.03176  -1.01016  -0.97611
 Alpha  occ. eigenvalues --   -0.97376  -0.94489  -0.94193  -0.91195  -0.91125
 Alpha  occ. eigenvalues --   -0.90331  -0.90177  -0.88547  -0.88048  -0.87059
 Alpha  occ. eigenvalues --   -0.85374  -0.82706  -0.82301  -0.81610  -0.81006
 Alpha  occ. eigenvalues --   -0.80636  -0.80434  -0.79551  -0.78104  -0.76998
 Alpha  occ. eigenvalues --   -0.75872  -0.75086  -0.74874  -0.74819  -0.73638
 Alpha  occ. eigenvalues --   -0.73597  -0.73284  -0.72176  -0.71570  -0.70919
 Alpha  occ. eigenvalues --   -0.69435  -0.69390  -0.69216  -0.67530  -0.67142
 Alpha  occ. eigenvalues --   -0.66941  -0.66510  -0.64874  -0.64784  -0.64335
 Alpha  occ. eigenvalues --   -0.63883  -0.63542  -0.63294  -0.63142  -0.61612
 Alpha  occ. eigenvalues --   -0.61115  -0.60812  -0.60532  -0.60362  -0.59140
 Alpha  occ. eigenvalues --   -0.58975  -0.58154  -0.58006  -0.57959  -0.57118
 Alpha  occ. eigenvalues --   -0.56991  -0.56529  -0.56178  -0.55578  -0.55423
 Alpha  occ. eigenvalues --   -0.55126  -0.54919  -0.54516  -0.54225  -0.53834
 Alpha  occ. eigenvalues --   -0.53550  -0.52883  -0.52774  -0.52427  -0.52192
 Alpha  occ. eigenvalues --   -0.51734  -0.51279  -0.51038  -0.50891  -0.50485
 Alpha  occ. eigenvalues --   -0.50167  -0.50077  -0.49978  -0.49049  -0.48751
 Alpha  occ. eigenvalues --   -0.48683  -0.48299  -0.47998  -0.47734  -0.47607
 Alpha  occ. eigenvalues --   -0.47253  -0.46614  -0.46500  -0.46246  -0.46052
 Alpha  occ. eigenvalues --   -0.45639  -0.45409  -0.45235  -0.45058  -0.44726
 Alpha  occ. eigenvalues --   -0.44518  -0.44014  -0.43824  -0.43546  -0.43020
 Alpha  occ. eigenvalues --   -0.42649  -0.42562  -0.42419  -0.42302  -0.42156
 Alpha  occ. eigenvalues --   -0.41847  -0.41185  -0.41036  -0.40748  -0.40644
 Alpha  occ. eigenvalues --   -0.40616  -0.40374  -0.40310  -0.40210  -0.39954
 Alpha  occ. eigenvalues --   -0.39856  -0.39480  -0.39303  -0.39147  -0.38397
 Alpha  occ. eigenvalues --   -0.37939  -0.37343  -0.36813  -0.36602  -0.36295
 Alpha  occ. eigenvalues --   -0.36174  -0.35249  -0.35117  -0.34746  -0.34608
 Alpha  occ. eigenvalues --   -0.34316  -0.33899  -0.33666  -0.33619  -0.32309
 Alpha  occ. eigenvalues --   -0.31711  -0.31424  -0.31353  -0.30128  -0.29364
 Alpha  occ. eigenvalues --   -0.27788  -0.27343  -0.26589  -0.25789  -0.25228
 Alpha  occ. eigenvalues --   -0.19526  -0.19203  -0.17626
 Alpha virt. eigenvalues --   -0.13240  -0.12002  -0.11889  -0.09541  -0.08289
 Alpha virt. eigenvalues --   -0.07159  -0.06855  -0.05394  -0.05262  -0.05021
 Alpha virt. eigenvalues --   -0.04393  -0.03395  -0.03031  -0.02465  -0.01917

 Mulliken charges:
               1
     1  N   -0.758467
     2  H    0.419825
     3  H    0.416234
     4  H    0.438689
     5  C   -0.107222
     6  H    0.229107
     7  C    0.657363
     8  C   -0.484622
     9  H    0.220862
    10  H    0.198785
    11  H    0.197629
    12  O   -0.540919
    13  N   -0.613201
    14  H    0.379507
    15  C   -0.062818
    16  H    0.210991
    17  C    0.628367
    18  C   -0.365419
    19  H    0.182493
    20  H    0.171885
    21  O   -0.560938
    22  C   -0.008258
    23  C   -0.012564
    24  H    0.198425
    25  C    0.093710
    26  C    0.309712
    27  C   -0.225068
    28  H    0.135892
    29  N   -0.681733
    30  H    0.348976
    31  C   -0.148337
    32  H    0.143225
    33  C   -0.156048
    34  H    0.145396
    35  C   -0.139328
    36  H    0.131959
    37  N   -0.602586
    38  H    0.373386
    39  C   -0.060388
    40  H    0.178723
    41  C    0.635380
    42  C   -0.286444
    43  H    0.159821
    44  H    0.188448
    45  O   -0.572569
    46  C   -0.391003
    47  H    0.215540
    48  H    0.174059
    49  C    0.611642
    50  O   -0.470861
    51  O   -0.566689
    52  N   -0.592065
    53  H    0.362889
    54  C   -0.036725
    55  H    0.154833
    56  C    0.633980
    57  C   -0.103048
    58  H    0.160085
    59  O   -0.533504
    60  C   -0.475765
    61  H    0.142659
    62  H    0.153035
    63  H    0.204998
    64  C   -0.476547
    65  H    0.139686
    66  H    0.141577
    67  H    0.148558
    68  N   -0.603361
    69  H    0.341645
    70  C   -0.058280
    71  H    0.168037
    72  C    0.640066
    73  C    0.110720
    74  H    0.145206
    75  O   -0.551031
    76  C   -0.460664
    77  H    0.173183
    78  H    0.146073
    79  H    0.156773
    80  O   -0.662825
    81  H    0.426545
    82  N   -0.596060
    83  H    0.354399
    84  C   -0.069702
    85  H    0.176142
    86  C    0.596469
    87  C   -0.086490
    88  H    0.181801
    89  O   -0.588179
    90  C   -0.452083
    91  H    0.125873
    92  H    0.160747
    93  H    0.136353
    94  C   -0.481719
    95  H    0.152680
    96  H    0.138251
    97  H    0.171750
    98  N   -0.601030
    99  H    0.360242
   100  C   -0.081642
   101  H    0.136546
   102  C    0.581163
   103  C   -0.253371
   104  H    0.163656
   105  H    0.125989
   106  O   -0.590099
   107  C   -0.263398
   108  H    0.149651
   109  H    0.170864
   110  C   -0.290860
   111  H    0.158101
   112  H    0.160597
   113  C   -0.205920
   114  H    0.225473
   115  H    0.223579
   116  N   -0.730416
   117  H    0.419829
   118  H    0.422084
   119  H    0.422437
   120  O   -0.614220
   121  H    0.413233
 Sum of Mulliken charges =   1.00000

 Dipole moment (field-independent basis, Debye):
    X=              2.6861    Y=            -10.4665    Z=            -28.2829  Tot=             30.2768
 Quadrupole moment (field-independent basis, Debye-Ang):
   XX=            293.6166   YY=           -240.6249   ZZ=           -417.2052
   XY=            205.2759   XZ=             72.8998   YZ=             52.0878

 Normal termination of Gaussian 16 at Sun Jul 10 13:38:35 2022.
