 Gaussian 16, Revision C.01,
 Gaussian 16:  ES64L-G16RevC.01  3-Jul-2019

 ----------------------------------------------------------------------
 # B3LYP/6-31G* empiricaldispersion=gd3bj guess=read geom=check nosymm
 integral(ultrafinegrid)
 ----------------------------------------------------------------------

 ------------------------------------------------------
 Candidate Structure: Conf:205 Charge calc in gas phase
 ------------------------------------------------------
 Structure from the checkpoint file:  "conf-205.chk"
 Charge =  1 Multiplicity = 1

                          Input orientation:
 ---------------------------------------------------------------------
 Center     Atomic      Atomic             Coordinates (Angstroms)
 Number     Number       Type             X           Y           Z
 ---------------------------------------------------------------------
      1          7           0       -4.275641   -4.815437   -6.294055
      2          1           0       -3.658917   -5.188729   -7.020139
      3          1           0       -3.746694   -4.257994   -5.575047
      4          1           0       -4.973444   -4.174395   -6.694830
      5          6           0       -5.030130   -5.886341   -5.520906
      6          1           0       -5.712817   -6.363999   -6.228288
      7          6           0       -5.829615   -4.975601   -4.554178
      8          6           0       -4.042924   -6.874450   -4.920264
      9          1           0       -4.580953   -7.626650   -4.335607
     10          1           0       -3.496281   -7.409376   -5.703912
     11          1           0       -3.323767   -6.369119   -4.267579
     12          8           0       -6.447813   -4.040640   -5.049855
     13          7           0       -5.647558   -5.168786   -3.227035
     14          1           0       -5.024503   -5.925849   -2.959261
     15          6           0       -5.422361   -3.992426   -2.399134
     16          1           0       -6.336704   -3.397456   -2.333000
     17          6           0       -4.312712   -3.135708   -3.065913
     18          6           0       -5.000303   -4.466189   -0.976077
     19          1           0       -4.672798   -3.592853   -0.401655
     20          1           0       -5.897653   -4.852454   -0.482485
     21          8           0       -3.609189   -3.579150   -3.991719
     22          6           0       -3.935149   -5.524852   -0.992947
     23          6           0       -4.150881   -6.880809   -0.860454
     24          1           0       -5.070390   -7.412727   -0.655447
     25          6           0       -2.513925   -5.355388   -1.200300
     26          6           0       -1.931426   -6.651500   -1.186550
     27          6           0       -1.676278   -4.240089   -1.364407
     28          1           0       -2.083748   -3.239500   -1.350558
     29          7           0       -2.956991   -7.561022   -0.993872
     30          1           0       -2.831945   -8.546524   -0.818548
     31          6           0        0.241844   -5.728798   -1.510895
     32          1           0        1.314061   -5.850646   -1.629347
     33          6           0       -0.555985   -6.854058   -1.344530
     34          1           0       -0.126164   -7.851343   -1.326268
     35          6           0       -0.310912   -4.430767   -1.516769
     36          1           0        0.342477   -3.571274   -1.637089
     37          7           0       -4.139892   -1.918579   -2.546159
     38          1           0       -4.691114   -1.613952   -1.748316
     39          6           0       -2.977411   -1.075956   -2.826729
     40          1           0       -2.254886   -1.683625   -3.366006
     41          6           0       -2.441027   -0.659101   -1.450412
     42          6           0       -3.355671    0.154904   -3.679252
     43          1           0       -3.463398   -0.179104   -4.716161
     44          1           0       -4.333487    0.518616   -3.347041
     45          8           0       -3.211074   -0.221338   -0.596092
     46          6           0       -2.362630    1.317523   -3.583112
     47          1           0       -2.637866    2.107834   -4.291510
     48          1           0       -2.415854    1.783263   -2.592272
     49          6           0       -0.912157    0.942339   -3.828729
     50          8           0       -0.538160   -0.167946   -4.179687
     51          8           0       -0.097839    1.959352   -3.571961
     52          7           0       -1.114600   -0.837741   -1.293353
     53          1           0       -0.567851   -1.139293   -2.094500
     54          6           0       -0.331551   -0.329894   -0.171207
     55          1           0       -0.849784    0.544199    0.237704
     56          6           0        1.010290    0.053887   -0.789881
     57          6           0       -0.116981   -1.371260    0.957545
     58          1           0        0.379211   -2.234168    0.495879
     59          8           0        1.577886   -0.744448   -1.558249
     60          6           0        0.800829   -0.799896    2.047337
     61          1           0        0.378211    0.114982    2.481326
     62          1           0        0.918880   -1.525103    2.858364
     63          1           0        1.799778   -0.561304    1.668802
     64          6           0       -1.449947   -1.832614    1.554231
     65          1           0       -2.002019   -0.991855    1.987134
     66          1           0       -2.090757   -2.300527    0.803682
     67          1           0       -1.266355   -2.568448    2.344461
     68          7           0        1.511933    1.250338   -0.474095
     69          1           0        1.042170    1.892314    0.162777
     70          6           0        2.867691    1.667157   -0.802976
     71          1           0        3.534142    0.800857   -0.710151
     72          6           0        3.209876    2.732632    0.262759
     73          6           0        2.970324    2.216946   -2.244972
     74          1           0        2.340248    3.112934   -2.304390
     75          8           0        2.290549    3.339247    0.818892
     76          6           0        4.398879    2.550597   -2.662094
     77          1           0        4.834265    3.354521   -2.062938
     78          1           0        5.040256    1.665614   -2.571941
     79          1           0        4.394499    2.855281   -3.712700
     80          8           0        2.425163    1.271911   -3.186232
     81          1           0        2.338209    0.388562   -2.756909
     82          7           0        4.510723    2.897196    0.522527
     83          1           0        5.231686    2.460269   -0.047064
     84          6           0        5.050049    3.929915    1.399213
     85          1           0        4.295911    4.714863    1.504539
     86          6           0        6.304785    4.446790    0.668384
     87          6           0        5.406008    3.367061    2.808790
     88          1           0        6.309473    2.752174    2.686370
     89          8           0        6.884248    3.688630   -0.135627
     90          6           0        5.700244    4.492088    3.810938
     91          1           0        4.809272    5.116919    3.954355
     92          1           0        6.517386    5.154281    3.515700
     93          1           0        5.955696    4.059552    4.784434
     94          6           0        4.281815    2.469323    3.344209
     95          1           0        3.337870    3.021425    3.406680
     96          1           0        4.537142    2.113435    4.348098
     97          1           0        4.119273    1.592922    2.708835
     98          7           0        6.689786    5.683335    0.972636
     99          1           0        6.270911    6.210459    1.760119
    100          6           0        8.029420    6.228106    0.791702
    101          1           0        8.767566    5.438668    0.985692
    102          6           0        8.198198    7.342055    1.919841
    103          6           0        8.304809    6.839887   -0.576490
    104          1           0        9.169298    7.496349   -0.420782
    105          1           0        7.456360    7.474567   -0.866690
    106          8           0        9.242100    8.007754    1.836371
    107          6           0        8.605810    5.825207   -1.681452
    108          1           0        9.394147    5.143083   -1.335892
    109          1           0        7.732623    5.198180   -1.887583
    110          6           0        9.082038    6.539291   -2.955722
    111          1           0        8.283286    7.189680   -3.339931
    112          1           0        9.935241    7.184999   -2.702015
    113          6           0        9.494849    5.543176   -4.019753
    114          1           0        8.661763    4.938824   -4.385573
    115          1           0       10.297817    4.882934   -3.684294
    116          7           0       10.051263    6.285015   -5.247000
    117          1           0       10.352924    5.652850   -5.997589
    118          1           0        9.342658    6.921768   -5.629820
    119          1           0       10.855491    6.862123   -4.973004
    120          8           0        7.239177    7.390066    2.738663
    121          1           0        0.860727    1.650883   -3.596538
 ---------------------------------------------------------------------

 SCF Done:  E(RB3LYP) =  -2843.86250644     A.U. after    3 cycles

 Alpha  occ. eigenvalues --  -19.24324 -19.23571 -19.23178 -19.21600 -19.19866
 Alpha  occ. eigenvalues --  -19.19304 -19.19272 -19.17113 -19.14055 -19.05821
 Alpha  occ. eigenvalues --  -19.04845 -14.61975 -14.57712 -14.46929 -14.46759
 Alpha  occ. eigenvalues --  -14.46736 -14.43576 -14.43463 -14.40623 -14.35934
 Alpha  occ. eigenvalues --  -10.41503 -10.40121 -10.38999 -10.38295 -10.37674
 Alpha  occ. eigenvalues --  -10.36529 -10.36343 -10.34510 -10.34411 -10.31907
 Alpha  occ. eigenvalues --  -10.31344 -10.31141 -10.31031 -10.30639 -10.30357
 Alpha  occ. eigenvalues --  -10.30240 -10.30205 -10.29916 -10.29664 -10.27675
 Alpha  occ. eigenvalues --  -10.27075 -10.26796 -10.26727 -10.26548 -10.26180
 Alpha  occ. eigenvalues --  -10.26122 -10.26038 -10.25691 -10.25528 -10.24260
 Alpha  occ. eigenvalues --  -10.23794 -10.23697 -10.23274 -10.22829 -10.22086
 Alpha  occ. eigenvalues --  -10.21391 -10.20462 -10.19873 -10.18268  -1.17333
 Alpha  occ. eigenvalues --   -1.15835  -1.15112  -1.14651  -1.12107  -1.11954
 Alpha  occ. eigenvalues --   -1.11159  -1.09139  -1.08400  -1.06590  -1.06171
 Alpha  occ. eigenvalues --   -1.05329  -1.04653  -1.03107  -1.00306  -0.99898
 Alpha  occ. eigenvalues --   -0.98966  -0.97298  -0.93119  -0.92093  -0.91599
 Alpha  occ. eigenvalues --   -0.91301  -0.90173  -0.89635  -0.88472  -0.86865
 Alpha  occ. eigenvalues --   -0.85117  -0.84873  -0.82839  -0.82200  -0.81528
 Alpha  occ. eigenvalues --   -0.81483  -0.80381  -0.79628  -0.79085  -0.77127
 Alpha  occ. eigenvalues --   -0.76655  -0.75703  -0.74688  -0.74470  -0.74093
 Alpha  occ. eigenvalues --   -0.73120  -0.72759  -0.72346  -0.70936  -0.70323
 Alpha  occ. eigenvalues --   -0.70068  -0.69900  -0.68639  -0.68602  -0.68022
 Alpha  occ. eigenvalues --   -0.67570  -0.66596  -0.66075  -0.65194  -0.64961
 Alpha  occ. eigenvalues --   -0.64735  -0.64403  -0.63750  -0.63325  -0.62683
 Alpha  occ. eigenvalues --   -0.62092  -0.61993  -0.61454  -0.60136  -0.59256
 Alpha  occ. eigenvalues --   -0.58937  -0.58454  -0.58228  -0.58038  -0.57443
 Alpha  occ. eigenvalues --   -0.57152  -0.56868  -0.56580  -0.56039  -0.55434
 Alpha  occ. eigenvalues --   -0.55034  -0.54794  -0.54609  -0.54181  -0.53430
 Alpha  occ. eigenvalues --   -0.53264  -0.52649  -0.52335  -0.52185  -0.52083
 Alpha  occ. eigenvalues --   -0.52034  -0.51735  -0.51515  -0.51434  -0.51331
 Alpha  occ. eigenvalues --   -0.51077  -0.51043  -0.50599  -0.50479  -0.49812
 Alpha  occ. eigenvalues --   -0.49542  -0.49455  -0.49104  -0.49043  -0.48106
 Alpha  occ. eigenvalues --   -0.47964  -0.47679  -0.47412  -0.47204  -0.46912
 Alpha  occ. eigenvalues --   -0.46544  -0.46373  -0.46052  -0.45977  -0.45474
 Alpha  occ. eigenvalues --   -0.45453  -0.45053  -0.45041  -0.44924  -0.44460
 Alpha  occ. eigenvalues --   -0.44132  -0.43757  -0.43638  -0.43398  -0.43181
 Alpha  occ. eigenvalues --   -0.43051  -0.42680  -0.42257  -0.41873  -0.41752
 Alpha  occ. eigenvalues --   -0.41488  -0.41309  -0.41279  -0.40768  -0.40511
 Alpha  occ. eigenvalues --   -0.40096  -0.39731  -0.39626  -0.39189  -0.39051
 Alpha  occ. eigenvalues --   -0.38227  -0.38129  -0.37665  -0.37024  -0.36880
 Alpha  occ. eigenvalues --   -0.36603  -0.36477  -0.36074  -0.35658  -0.35647
 Alpha  occ. eigenvalues --   -0.35202  -0.35157  -0.34615  -0.34535  -0.33230
 Alpha  occ. eigenvalues --   -0.33138  -0.32969  -0.32684  -0.32314  -0.31322
 Alpha  occ. eigenvalues --   -0.30497  -0.29999  -0.28945  -0.28101  -0.27057
 Alpha  occ. eigenvalues --   -0.20990  -0.20646  -0.19228
 Alpha virt. eigenvalues --   -0.12671  -0.12438  -0.09446  -0.09436  -0.07623
 Alpha virt. eigenvalues --   -0.06673  -0.06059  -0.05815  -0.05479  -0.05208
 Alpha virt. eigenvalues --   -0.04420  -0.03390  -0.03070  -0.02888  -0.02446

 Mulliken charges:
               1
     1  N   -0.747981
     2  H    0.401887
     3  H    0.455554
     4  H    0.418533
     5  C   -0.099465
     6  H    0.220975
     7  C    0.603910
     8  C   -0.507363
     9  H    0.201214
    10  H    0.182808
    11  H    0.216667
    12  O   -0.504057
    13  N   -0.580318
    14  H    0.359479
    15  C   -0.075785
    16  H    0.204036
    17  C    0.669009
    18  C   -0.377987
    19  H    0.187169
    20  H    0.183673
    21  O   -0.605198
    22  C    0.006316
    23  C   -0.013929
    24  H    0.170695
    25  C    0.089522
    26  C    0.300073
    27  C   -0.184922
    28  H    0.132015
    29  N   -0.681088
    30  H    0.341870
    31  C   -0.152556
    32  H    0.145662
    33  C   -0.162296
    34  H    0.139327
    35  C   -0.172084
    36  H    0.157997
    37  N   -0.594696
    38  H    0.360951
    39  C   -0.056629
    40  H    0.204791
    41  C    0.587182
    42  C   -0.251806
    43  H    0.157681
    44  H    0.161170
    45  O   -0.547291
    46  C   -0.382836
    47  H    0.191054
    48  H    0.198481
    49  C    0.589225
    50  O   -0.508938
    51  O   -0.604053
    52  N   -0.620691
    53  H    0.385729
    54  C   -0.012593
    55  H    0.172810
    56  C    0.608946
    57  C   -0.081832
    58  H    0.151192
    59  O   -0.583796
    60  C   -0.466818
    61  H    0.155993
    62  H    0.161660
    63  H    0.155902
    64  C   -0.445987
    65  H    0.161152
    66  H    0.145138
    67  H    0.149303
    68  N   -0.597103
    69  H    0.371997
    70  C   -0.110920
    71  H    0.174963
    72  C    0.619362
    73  C    0.171120
    74  H    0.154509
    75  O   -0.543775
    76  C   -0.473772
    77  H    0.177362
    78  H    0.150462
    79  H    0.154677
    80  O   -0.688134
    81  H    0.445071
    82  N   -0.605954
    83  H    0.354200
    84  C   -0.056341
    85  H    0.178582
    86  C    0.606363
    87  C   -0.074163
    88  H    0.131601
    89  O   -0.596634
    90  C   -0.475253
    91  H    0.145229
    92  H    0.200323
    93  H    0.141868
    94  C   -0.446412
    95  H    0.161219
    96  H    0.145857
    97  H    0.126380
    98  N   -0.601612
    99  H    0.368300
   100  C   -0.074102
   101  H    0.139714
   102  C    0.585653
   103  C   -0.262329
   104  H    0.172422
   105  H    0.127840
   106  O   -0.584363
   107  C   -0.266247
   108  H    0.146554
   109  H    0.171191
   110  C   -0.291513
   111  H    0.158555
   112  H    0.164004
   113  C   -0.205922
   114  H    0.221843
   115  H    0.225312
   116  N   -0.730337
   117  H    0.421060
   118  H    0.422043
   119  H    0.424904
   120  O   -0.603068
   121  H    0.463663
 Sum of Mulliken charges =   1.00000

 Dipole moment (field-independent basis, Debye):
    X=              1.3944    Y=            -19.3055    Z=            -41.8636  Tot=             46.1217
 Quadrupole moment (field-independent basis, Debye-Ang):
   XX=            -83.0126   YY=           -207.6876   ZZ=           -153.1240
   XY=            155.6173   XZ=           -184.6754   YZ=            -90.8252

 Normal termination of Gaussian 16 at Sun Jul 10 13:38:37 2022.
