 Gaussian 16, Revision C.01,
 Gaussian 16:  ES64L-G16RevC.01  3-Jul-2019

 ----------------------------------------------------------------------
 # B3LYP/6-31G* empiricaldispersion=gd3bj guess=read geom=check nosymm
 integral(ultrafinegrid)
 ----------------------------------------------------------------------

 ------------------------------------------------------
 Candidate Structure: Conf:474 Charge calc in gas phase
 ------------------------------------------------------
 Structure from the checkpoint file:  "conf-474.chk"
 Charge =  1 Multiplicity = 1

                          Input orientation:
 ---------------------------------------------------------------------
 Center     Atomic      Atomic             Coordinates (Angstroms)
 Number     Number       Type             X           Y           Z
 ---------------------------------------------------------------------
      1          7           0       -9.034715   -0.317724   -4.005356
      2          1           0       -8.891835    0.521073   -3.436679
      3          1           0       -9.870402   -0.798392   -3.674728
      4          1           0       -9.175735   -0.000213   -4.965711
      5          6           0       -7.830753   -1.166718   -3.929702
      6          1           0       -7.659449   -1.436637   -2.881975
      7          6           0       -6.641202   -0.340409   -4.420479
      8          6           0       -7.984371   -2.430059   -4.762880
      9          1           0       -7.097825   -3.060530   -4.681110
     10          1           0       -8.853549   -3.003077   -4.431454
     11          1           0       -8.124605   -2.166603   -5.813751
     12          8           0       -6.783691    0.583261   -5.212617
     13          7           0       -5.431366   -0.719440   -3.949240
     14          1           0       -5.302495   -1.487952   -3.309509
     15          6           0       -4.227787    0.004783   -4.273052
     16          1           0       -4.137214    0.089332   -5.359797
     17          6           0       -3.077424   -0.834409   -3.716166
     18          6           0       -4.205258    1.442191   -3.698523
     19          1           0       -3.198041    1.850995   -3.837203
     20          1           0       -4.898279    2.037058   -4.287014
     21          8           0       -3.261040   -1.785156   -2.979371
     22          6           0       -4.574775    1.510653   -2.246961
     23          6           0       -3.750249    1.271326   -1.182717
     24          1           0       -2.699588    1.038307   -1.199759
     25          6           0       -5.869129    1.814106   -1.680139
     26          6           0       -5.759966    1.701074   -0.284081
     27          6           0       -7.104348    2.183250   -2.235493
     28          1           0       -7.220344    2.287915   -3.307415
     29          7           0       -4.452958    1.371460   -0.007011
     30          1           0       -4.071792    1.196130    0.902733
     31          6           0       -8.049760    2.256002    0.001092
     32          1           0       -8.913889    2.425364    0.632173
     33          6           0       -6.838066    1.910385    0.579363
     34          1           0       -6.729923    1.808619    1.653415
     35          6           0       -8.178144    2.386985   -1.392059
     36          1           0       -9.138752    2.659021   -1.812147
     37          7           0       -1.834402   -0.429659   -4.114447
     38          1           0       -1.775075    0.504895   -4.481850
     39          6           0       -0.654556   -0.889642   -3.399658
     40          1           0       -0.858127   -1.910017   -3.080784
     41          6           0       -0.433035   -0.029203   -2.124818
     42          6           0        0.577273   -0.830081   -4.290859
     43          1           0        0.691734    0.196347   -4.638053
     44          1           0        1.463124   -1.055226   -3.692142
     45          8           0       -0.428519    1.225963   -2.182252
     46          6           0        0.505378   -1.805548   -5.466094
     47          1           0        0.402924   -2.833680   -5.112308
     48          1           0       -0.360138   -1.605891   -6.102204
     49          6           0        1.722931   -1.724213   -6.345074
     50          8           0        2.569098   -0.866046   -6.303072
     51          8           0        1.764139   -2.741162   -7.235871
     52          7           0       -0.270987   -0.765715   -0.982281
     53          1           0       -0.073105   -1.742346   -1.098981
     54          6           0        0.081878   -0.169896    0.307957
     55          1           0       -0.400788    0.810613    0.324193
     56          6           0        1.604777   -0.007381    0.308646
     57          6           0       -0.427759   -1.004666    1.482390
     58          1           0       -0.014064   -2.008528    1.359911
     59          8           0        2.382369   -0.908289    0.644843
     60          6           0        0.044346   -0.429082    2.819187
     61          1           0       -0.337265    0.586998    2.940384
     62          1           0       -0.324987   -1.036727    3.648241
     63          1           0        1.133821   -0.398078    2.872591
     64          6           0       -1.953705   -1.079548    1.478343
     65          1           0       -2.364317   -0.115743    1.799449
     66          1           0       -2.348565   -1.305807    0.484406
     67          1           0       -2.300298   -1.842602    2.178398
     68          7           0        2.022153    1.196257   -0.148014
     69          1           0        1.332021    1.828337   -0.520338
     70          6           0        3.405238    1.436318   -0.490913
     71          1           0        3.874951    0.455000   -0.588995
     72          6           0        4.047221    2.209519    0.656915
     73          6           0        3.512340    2.166563   -1.824974
     74          1           0        3.044070    3.154230   -1.701385
     75          8           0        4.264277    3.414206    0.588960
     76          6           0        4.945974    2.287420   -2.299034
     77          1           0        5.546594    2.841721   -1.578426
     78          1           0        5.365705    1.286153   -2.412383
     79          1           0        4.979228    2.790874   -3.265132
     80          8           0        2.831911    1.419388   -2.829237
     81          1           0        1.885708    1.480990   -2.665433
     82          7           0        4.319346    1.477442    1.758253
     83          1           0        3.980740    0.525492    1.776668
     84          6           0        4.740732    2.077423    3.010361
     85          1           0        4.001357    2.837926    3.285459
     86          6           0        6.080094    2.795025    2.854606
     87          6           0        4.796650    1.017425    4.139251
     88          1           0        3.809050    0.544319    4.114150
     89          8           0        6.997272    2.387747    2.161083
     90          6           0        5.867673   -0.042560    3.886165
     91          1           0        6.860048    0.405051    3.945601
     92          1           0        5.759479   -0.491895    2.896860
     93          1           0        5.800989   -0.834457    4.636063
     94          6           0        4.991688    1.641282    5.520904
     95          1           0        5.999465    2.046743    5.631814
     96          1           0        4.855959    0.882287    6.293637
     97          1           0        4.270219    2.441394    5.710723
     98          7           0        6.172302    3.938072    3.592880
     99          1           0        5.472911    4.178248    4.270017
    100          6           0        7.415529    4.658383    3.732857
    101          1           0        8.210060    4.002002    3.376331
    102          6           0        7.513891    4.859530    5.280924
    103          6           0        7.389620    5.976663    2.974962
    104          1           0        8.350507    6.484269    3.095992
    105          1           0        6.633223    6.623017    3.429235
    106          8           0        6.998248    5.890942    5.738558
    107          6           0        7.076066    5.762588    1.498922
    108          1           0        7.907537    5.230591    1.023058
    109          1           0        6.221650    5.100646    1.426681
    110          6           0        6.778482    7.046007    0.742736
    111          1           0        6.061893    7.650145    1.310156
    112          1           0        7.692393    7.641407    0.649608
    113          6           0        6.216666    6.789304   -0.645384
    114          1           0        6.887520    6.112884   -1.183346
    115          1           0        6.183916    7.721820   -1.214478
    116          7           0        4.857959    6.184373   -0.601161
    117          1           0        4.429545    6.138923   -1.526244
    118          1           0        4.863415    5.237471   -0.227031
    119          1           0        4.245813    6.733351   -0.000374
    120          8           0        8.023573    3.908507    5.895260
    121          1           0        2.561041   -2.601179   -7.764143
 ---------------------------------------------------------------------

 SCF Done:  E(RB3LYP) =  -2843.80779114     A.U. after    1 cycles

 Alpha  occ. eigenvalues --  -19.27050 -19.26613 -19.24865 -19.24316 -19.22088
 Alpha  occ. eigenvalues --  -19.21276 -19.21042 -19.19828 -19.11790 -19.01153
 Alpha  occ. eigenvalues --  -19.00380 -14.64196 -14.57741 -14.50041 -14.48492
 Alpha  occ. eigenvalues --  -14.48257 -14.48067 -14.45683 -14.42114 -14.35393
 Alpha  occ. eigenvalues --  -10.44457 -10.42756 -10.41363 -10.41095 -10.39557
 Alpha  occ. eigenvalues --  -10.38160 -10.36038 -10.36021 -10.35337 -10.34813
 Alpha  occ. eigenvalues --  -10.34668 -10.33495 -10.32289 -10.32203 -10.31950
 Alpha  occ. eigenvalues --  -10.30938 -10.30566 -10.29597 -10.29482 -10.29240
 Alpha  occ. eigenvalues --  -10.29128 -10.29049 -10.29016 -10.28985 -10.28872
 Alpha  occ. eigenvalues --  -10.28746 -10.28613 -10.27070 -10.26560 -10.26556
 Alpha  occ. eigenvalues --  -10.25603 -10.24744 -10.22874 -10.21714 -10.19444
 Alpha  occ. eigenvalues --  -10.19338 -10.18775 -10.18088 -10.18000  -1.20948
 Alpha  occ. eigenvalues --   -1.18062  -1.18043  -1.17195  -1.14683  -1.12999
 Alpha  occ. eigenvalues --   -1.12865  -1.11547  -1.10058  -1.08988  -1.08683
 Alpha  occ. eigenvalues --   -1.06943  -1.05128  -1.04500  -1.04243  -1.02193
 Alpha  occ. eigenvalues --   -0.98617  -0.96168  -0.95619  -0.94990  -0.92386
 Alpha  occ. eigenvalues --   -0.91663  -0.91157  -0.90061  -0.88487  -0.87764
 Alpha  occ. eigenvalues --   -0.86755  -0.86123  -0.84668  -0.84272  -0.83895
 Alpha  occ. eigenvalues --   -0.83812  -0.82506  -0.81358  -0.80427  -0.79011
 Alpha  occ. eigenvalues --   -0.78491  -0.78253  -0.77429  -0.76156  -0.75429
 Alpha  occ. eigenvalues --   -0.74573  -0.73579  -0.73303  -0.72905  -0.71472
 Alpha  occ. eigenvalues --   -0.71174  -0.70708  -0.70425  -0.70264  -0.70080
 Alpha  occ. eigenvalues --   -0.69454  -0.69154  -0.68078  -0.67589  -0.67191
 Alpha  occ. eigenvalues --   -0.66856  -0.66537  -0.65550  -0.65074  -0.64628
 Alpha  occ. eigenvalues --   -0.63930  -0.62466  -0.61589  -0.61430  -0.61054
 Alpha  occ. eigenvalues --   -0.60780  -0.60717  -0.59910  -0.59796  -0.59323
 Alpha  occ. eigenvalues --   -0.58781  -0.58461  -0.58325  -0.57901  -0.57825
 Alpha  occ. eigenvalues --   -0.57490  -0.57212  -0.57045  -0.56581  -0.56084
 Alpha  occ. eigenvalues --   -0.55673  -0.55070  -0.54516  -0.54459  -0.54138
 Alpha  occ. eigenvalues --   -0.54053  -0.53933  -0.53798  -0.53343  -0.53030
 Alpha  occ. eigenvalues --   -0.52808  -0.52391  -0.52172  -0.52044  -0.51708
 Alpha  occ. eigenvalues --   -0.51393  -0.51191  -0.50466  -0.50333  -0.49661
 Alpha  occ. eigenvalues --   -0.49503  -0.49279  -0.49056  -0.48516  -0.48405
 Alpha  occ. eigenvalues --   -0.48020  -0.47904  -0.47743  -0.47409  -0.47108
 Alpha  occ. eigenvalues --   -0.46929  -0.46347  -0.46206  -0.46169  -0.46077
 Alpha  occ. eigenvalues --   -0.45825  -0.45358  -0.45025  -0.44736  -0.44553
 Alpha  occ. eigenvalues --   -0.44457  -0.44260  -0.44185  -0.43803  -0.42991
 Alpha  occ. eigenvalues --   -0.42780  -0.42495  -0.41870  -0.41309  -0.41009
 Alpha  occ. eigenvalues --   -0.40777  -0.40299  -0.39952  -0.39867  -0.39570
 Alpha  occ. eigenvalues --   -0.39483  -0.39114  -0.38877  -0.38444  -0.38196
 Alpha  occ. eigenvalues --   -0.37992  -0.36898  -0.36737  -0.36477  -0.36232
 Alpha  occ. eigenvalues --   -0.36075  -0.35872  -0.35525  -0.34986  -0.34969
 Alpha  occ. eigenvalues --   -0.34169  -0.33244  -0.33234  -0.32221  -0.32146
 Alpha  occ. eigenvalues --   -0.31081  -0.30988  -0.30788  -0.25770  -0.25385
 Alpha  occ. eigenvalues --   -0.16924  -0.15958  -0.14855
 Alpha virt. eigenvalues --   -0.14089  -0.13318  -0.11803  -0.11251  -0.10221
 Alpha virt. eigenvalues --   -0.08578  -0.08563  -0.07642  -0.07602  -0.06599
 Alpha virt. eigenvalues --   -0.06280  -0.05284  -0.05149  -0.04659  -0.03953

 Mulliken charges:
               1
     1  N   -0.709855
     2  H    0.418681
     3  H    0.423568
     4  H    0.425838
     5  C   -0.148590
     6  H    0.227196
     7  C    0.659117
     8  C   -0.464253
     9  H    0.222150
    10  H    0.188713
    11  H    0.198105
    12  O   -0.525213
    13  N   -0.621643
    14  H    0.363408
    15  C   -0.024566
    16  H    0.195697
    17  C    0.621427
    18  C   -0.403905
    19  H    0.173702
    20  H    0.196818
    21  O   -0.521530
    22  C    0.053953
    23  C    0.017691
    24  H    0.185850
    25  C    0.072499
    26  C    0.315172
    27  C   -0.260522
    28  H    0.144284
    29  N   -0.699445
    30  H    0.345390
    31  C   -0.153550
    32  H    0.149537
    33  C   -0.154225
    34  H    0.153657
    35  C   -0.168240
    36  H    0.122361
    37  N   -0.594904
    38  H    0.345975
    39  C   -0.077951
    40  H    0.179957
    41  C    0.633139
    42  C   -0.285999
    43  H    0.179529
    44  H    0.189004
    45  O   -0.581801
    46  C   -0.358128
    47  H    0.184515
    48  H    0.187588
    49  C    0.582070
    50  O   -0.445882
    51  O   -0.566160
    52  N   -0.583854
    53  H    0.356516
    54  C   -0.059538
    55  H    0.161255
    56  C    0.629229
    57  C   -0.089951
    58  H    0.159373
    59  O   -0.531809
    60  C   -0.465921
    61  H    0.140435
    62  H    0.169135
    63  H    0.184557
    64  C   -0.467933
    65  H    0.123775
    66  H    0.158488
    67  H    0.172232
    68  N   -0.606964
    69  H    0.340980
    70  C   -0.079795
    71  H    0.204964
    72  C    0.673178
    73  C    0.112992
    74  H    0.091959
    75  O   -0.583444
    76  C   -0.463754
    77  H    0.161243
    78  H    0.182707
    79  H    0.158618
    80  O   -0.634785
    81  H    0.400956
    82  N   -0.607258
    83  H    0.357463
    84  C   -0.027660
    85  H    0.134059
    86  C    0.641854
    87  C   -0.119234
    88  H    0.109001
    89  O   -0.553295
    90  C   -0.449366
    91  H    0.201330
    92  H    0.131575
    93  H    0.144613
    94  C   -0.477416
    95  H    0.230022
    96  H    0.146556
    97  H    0.128852
    98  N   -0.609214
    99  H    0.330429
   100  C   -0.028058
   101  H    0.157653
   102  C    0.513603
   103  C   -0.249791
   104  H    0.142826
   105  H    0.139996
   106  O   -0.603465
   107  C   -0.293588
   108  H    0.153923
   109  H    0.139497
   110  C   -0.282558
   111  H    0.147794
   112  H    0.186980
   113  C   -0.218047
   114  H    0.217542
   115  H    0.198217
   116  N   -0.746929
   117  H    0.408052
   118  H    0.469266
   119  H    0.410925
   120  O   -0.601334
   121  H    0.420115
 Sum of Mulliken charges =   1.00000

 Dipole moment (field-independent basis, Debye):
    X=            -46.9002    Y=             -0.7581    Z=            -35.2118  Tot=             58.6521
 Quadrupole moment (field-independent basis, Debye-Ang):
   XX=           -174.5094   YY=           -285.8971   ZZ=           -373.8074
   XY=              6.5651   XZ=            -40.8390   YZ=            -82.7070

 Normal termination of Gaussian 16 at Sun Jul 10 13:37:22 2022.
