 Gaussian 16, Revision C.01,
 Gaussian 16:  ES64L-G16RevC.01  3-Jul-2019

 ----------------------------------------------------------------------
 # B3LYP/6-31G* empiricaldispersion=gd3bj guess=read geom=check nosymm
 integral(ultrafinegrid)
 ----------------------------------------------------------------------

 ------------------------------------------------------
 Candidate Structure: Conf:549 Charge calc in gas phase
 ------------------------------------------------------
 Structure from the checkpoint file:  "conf-549.chk"
 Charge =  1 Multiplicity = 1

                          Input orientation:
 ---------------------------------------------------------------------
 Center     Atomic      Atomic             Coordinates (Angstroms)
 Number     Number       Type             X           Y           Z
 ---------------------------------------------------------------------
      1          7           0       -4.244142   -1.012624   -6.738500
      2          1           0       -4.400455   -0.781644   -7.722201
      3          1           0       -3.245461   -1.319056   -6.595610
      4          1           0       -4.401953   -0.187404   -6.131833
      5          6           0       -5.180317   -2.075795   -6.217457
      6          1           0       -6.193283   -1.786244   -6.517380
      7          6           0       -5.102841   -1.864936   -4.693935
      8          6           0       -4.831591   -3.449391   -6.769495
      9          1           0       -5.584840   -4.174023   -6.445606
     10          1           0       -4.849701   -3.444919   -7.863870
     11          1           0       -3.842953   -3.779205   -6.438613
     12          8           0       -4.964195   -0.704444   -4.286626
     13          7           0       -5.188346   -2.946476   -3.921511
     14          1           0       -5.395899   -3.848815   -4.333027
     15          6           0       -5.354136   -2.869597   -2.462957
     16          1           0       -5.879658   -1.933912   -2.254401
     17          6           0       -3.915813   -2.807924   -1.894613
     18          6           0       -6.150133   -4.093309   -1.948582
     19          1           0       -5.427835   -4.808972   -1.545176
     20          1           0       -6.768434   -3.752449   -1.110229
     21          8           0       -3.306339   -3.816774   -1.560494
     22          6           0       -6.985909   -4.764249   -3.002964
     23          6           0       -6.957582   -6.104584   -3.314859
     24          1           0       -6.392415   -6.902180   -2.852597
     25          6           0       -7.916111   -4.151981   -3.927968
     26          6           0       -8.406187   -5.184842   -4.775469
     27          6           0       -8.341653   -2.830303   -4.156343
     28          1           0       -8.003428   -2.020349   -3.515691
     29          7           0       -7.808578   -6.362843   -4.369767
     30          1           0       -8.012558   -7.278811   -4.739622
     31          6           0       -9.690905   -3.616283   -6.029460
     32          1           0      -10.384758   -3.387312   -6.832369
     33          6           0       -9.294515   -4.932330   -5.826286
     34          1           0       -9.662383   -5.734328   -6.459587
     35          6           0       -9.218839   -2.574362   -5.203041
     36          1           0       -9.567040   -1.560273   -5.376029
     37          7           0       -3.381873   -1.564615   -1.936282
     38          1           0       -3.928331   -0.784489   -2.289354
     39          6           0       -1.961903   -1.305377   -1.784921
     40          1           0       -1.535891   -2.112192   -1.184351
     41          6           0       -1.832427    0.068155   -1.110838
     42          6           0       -1.270887   -1.218575   -3.164015
     43          1           0       -1.721896   -0.373608   -3.696836
     44          1           0       -0.208029   -0.991474   -3.024781
     45          8           0       -2.519141    1.002610   -1.521548
     46          6           0       -1.424757   -2.509209   -3.997509
     47          1           0       -0.848473   -3.322964   -3.550736
     48          1           0       -2.473041   -2.807574   -4.035592
     49          6           0       -0.963114   -2.270417   -5.406563
     50          8           0       -1.673530   -1.901420   -6.342490
     51          8           0        0.344617   -2.457337   -5.570270
     52          7           0       -0.939184    0.145676   -0.107974
     53          1           0       -0.332286   -0.635250    0.120560
     54          6           0       -0.576998    1.391132    0.553625
     55          1           0       -0.868166    2.215363   -0.105079
     56          6           0        0.944451    1.328726    0.729042
     57          6           0       -1.297280    1.554409    1.922646
     58          1           0       -0.966332    0.718885    2.554185
     59          8           0        1.509270    0.243535    0.893657
     60          6           0       -0.913652    2.869853    2.614355
     61          1           0       -1.148650    3.731388    1.974634
     62          1           0       -1.493150    2.985652    3.535746
     63          1           0        0.143249    2.920725    2.886907
     64          6           0       -2.817329    1.459695    1.746064
     65          1           0       -3.186377    2.250038    1.083392
     66          1           0       -3.117631    0.498440    1.320195
     67          1           0       -3.312036    1.567449    2.717091
     68          7           0        1.598480    2.507266    0.699085
     69          1           0        1.087454    3.384304    0.716990
     70          6           0        2.993762    2.630125    1.100598
     71          1           0        3.581174    1.876466    0.569243
     72          6           0        3.104334    2.436564    2.621994
     73          6           0        3.458826    4.059621    0.732442
     74          1           0        4.440218    4.218938    1.204458
     75          8           0        2.699356    3.320179    3.393856
     76          6           0        3.580964    4.265635   -0.769539
     77          1           0        4.353704    3.613066   -1.189338
     78          1           0        2.631536    4.050438   -1.270054
     79          1           0        3.849334    5.305660   -0.974054
     80          8           0        2.508989    4.992919    1.230557
     81          1           0        2.452579    4.803440    2.192611
     82          7           0        3.647294    1.280843    3.029759
     83          1           0        3.928963    0.579247    2.355145
     84          6           0        3.860871    0.932902    4.425535
     85          1           0        3.839902    1.865927    4.995557
     86          6           0        5.236278    0.260480    4.484918
     87          6           0        2.771860   -0.032546    4.976641
     88          1           0        2.934492   -1.003311    4.488279
     89          8           0        5.608978   -0.475190    3.569748
     90          6           0        2.916644   -0.211755    6.494034
     91          1           0        2.774844    0.745472    7.012326
     92          1           0        3.891024   -0.610467    6.790052
     93          1           0        2.151579   -0.901000    6.865910
     94          6           0        1.365327    0.458546    4.615943
     95          1           0        1.195259    1.475834    4.984770
     96          1           0        0.612980   -0.199385    5.065045
     97          1           0        1.215603    0.452920    3.533762
     98          7           0        5.977394    0.511819    5.587593
     99          1           0        5.536578    0.929814    6.400681
    100          6           0        7.149002   -0.298360    5.892200
    101          1           0        6.895081   -1.347874    5.679792
    102          6           0        7.348988   -0.202747    7.418444
    103          6           0        8.374947    0.062602    5.035232
    104          1           0        8.956902    0.847279    5.530485
    105          1           0        8.015563    0.487669    4.095457
    106          8           0        8.543285   -0.472387    7.926656
    107          6           0        9.238601   -1.175613    4.725070
    108          1           0        9.179797   -1.891518    5.556088
    109          1           0        8.791890   -1.683996    3.863660
    110          6           0       10.719916   -0.860150    4.460261
    111          1           0       11.139930   -1.560466    3.728958
    112          1           0       10.819071    0.139790    4.014762
    113          6           0       11.569255   -0.955914    5.729579
    114          1           0       12.612387   -0.684242    5.511978
    115          1           0       11.570873   -1.994674    6.079111
    116          7           0       10.997876   -0.141771    6.822973
    117          1           0       11.519294   -0.298042    7.685178
    118          1           0       11.102576    0.850292    6.609214
    119          1           0        9.342899   -0.425150    7.309444
    120          8           0        6.402067    0.066829    8.134076
    121          1           0        0.573573   -2.240843   -6.495430
 ---------------------------------------------------------------------

 SCF Done:  E(RB3LYP) =  -2843.94289261     A.U. after    3 cycles

 Alpha  occ. eigenvalues --  -19.32116 -19.27677 -19.25557 -19.20936 -19.20585
 Alpha  occ. eigenvalues --  -19.18978 -19.18807 -19.18635 -19.17609 -19.16696
 Alpha  occ. eigenvalues --  -19.16563 -14.57670 -14.49246 -14.47013 -14.44648
 Alpha  occ. eigenvalues --  -14.43477 -14.42681 -14.41763 -14.40538 -14.40147
 Alpha  occ. eigenvalues --  -10.45283 -10.42613 -10.39689 -10.37838 -10.36387
 Alpha  occ. eigenvalues --  -10.35481 -10.35389 -10.34545 -10.33920 -10.33419
 Alpha  occ. eigenvalues --  -10.32767 -10.32270 -10.31162 -10.30923 -10.30750
 Alpha  occ. eigenvalues --  -10.29832 -10.29757 -10.29649 -10.29197 -10.28492
 Alpha  occ. eigenvalues --  -10.28139 -10.27978 -10.27688 -10.27592 -10.27575
 Alpha  occ. eigenvalues --  -10.27503 -10.27258 -10.27128 -10.26954 -10.25497
 Alpha  occ. eigenvalues --  -10.24136 -10.23865 -10.23492 -10.23361 -10.22932
 Alpha  occ. eigenvalues --  -10.22678 -10.22635 -10.21559 -10.21414  -1.23582
 Alpha  occ. eigenvalues --   -1.18056  -1.14331  -1.12797  -1.12514  -1.12132
 Alpha  occ. eigenvalues --   -1.11288  -1.10542  -1.09477  -1.08405  -1.06961
 Alpha  occ. eigenvalues --   -1.06460  -1.05935  -1.04383  -1.01559  -1.00026
 Alpha  occ. eigenvalues --   -0.99094  -0.98189  -0.97244  -0.95911  -0.92813
 Alpha  occ. eigenvalues --   -0.92507  -0.90817  -0.89505  -0.87110  -0.85972
 Alpha  occ. eigenvalues --   -0.85758  -0.84771  -0.83492  -0.83061  -0.82364
 Alpha  occ. eigenvalues --   -0.81177  -0.80512  -0.80203  -0.78728  -0.77444
 Alpha  occ. eigenvalues --   -0.76482  -0.75491  -0.74508  -0.73727  -0.73263
 Alpha  occ. eigenvalues --   -0.72681  -0.72528  -0.72385  -0.71084  -0.70937
 Alpha  occ. eigenvalues --   -0.69977  -0.68101  -0.68003  -0.67794  -0.66949
 Alpha  occ. eigenvalues --   -0.65985  -0.65885  -0.65552  -0.64964  -0.64597
 Alpha  occ. eigenvalues --   -0.64269  -0.64116  -0.63673  -0.63115  -0.62689
 Alpha  occ. eigenvalues --   -0.62396  -0.62248  -0.61612  -0.61250  -0.60413
 Alpha  occ. eigenvalues --   -0.60097  -0.59810  -0.58696  -0.57859  -0.57505
 Alpha  occ. eigenvalues --   -0.57207  -0.56580  -0.56553  -0.56409  -0.56121
 Alpha  occ. eigenvalues --   -0.55527  -0.55134  -0.54667  -0.54252  -0.54023
 Alpha  occ. eigenvalues --   -0.53578  -0.53402  -0.53225  -0.52947  -0.52615
 Alpha  occ. eigenvalues --   -0.52333  -0.52092  -0.52087  -0.51961  -0.51832
 Alpha  occ. eigenvalues --   -0.51524  -0.51085  -0.50839  -0.50470  -0.50351
 Alpha  occ. eigenvalues --   -0.50085  -0.49889  -0.49537  -0.49012  -0.48936
 Alpha  occ. eigenvalues --   -0.48552  -0.48462  -0.48241  -0.47935  -0.47706
 Alpha  occ. eigenvalues --   -0.47527  -0.47141  -0.47096  -0.46784  -0.46388
 Alpha  occ. eigenvalues --   -0.46022  -0.45824  -0.45663  -0.45412  -0.45194
 Alpha  occ. eigenvalues --   -0.44768  -0.44487  -0.44348  -0.44239  -0.44070
 Alpha  occ. eigenvalues --   -0.43829  -0.43653  -0.43554  -0.43447  -0.43310
 Alpha  occ. eigenvalues --   -0.42993  -0.42575  -0.42395  -0.42039  -0.41939
 Alpha  occ. eigenvalues --   -0.41827  -0.41257  -0.41179  -0.40355  -0.40136
 Alpha  occ. eigenvalues --   -0.39999  -0.39481  -0.39311  -0.39066  -0.38871
 Alpha  occ. eigenvalues --   -0.38623  -0.38600  -0.38221  -0.38034  -0.37786
 Alpha  occ. eigenvalues --   -0.37572  -0.36214  -0.35135  -0.34226  -0.34017
 Alpha  occ. eigenvalues --   -0.33925  -0.33366  -0.32671  -0.32599  -0.32251
 Alpha  occ. eigenvalues --   -0.32099  -0.31605  -0.31305  -0.30673  -0.30119
 Alpha  occ. eigenvalues --   -0.29915  -0.29664  -0.29474
 Alpha virt. eigenvalues --   -0.12433  -0.12259  -0.09961  -0.08072  -0.07020
 Alpha virt. eigenvalues --   -0.06419  -0.05388  -0.04577  -0.03795  -0.03613
 Alpha virt. eigenvalues --   -0.03054  -0.02896  -0.02671  -0.02187  -0.02134

 Mulliken charges:
               1
     1  N   -0.769665
     2  H    0.402727
     3  H    0.450943
     4  H    0.420522
     5  C   -0.117625
     6  H    0.236665
     7  C    0.657173
     8  C   -0.495243
     9  H    0.210386
    10  H    0.187884
    11  H    0.194232
    12  O   -0.545175
    13  N   -0.597842
    14  H    0.363581
    15  C   -0.064437
    16  H    0.190803
    17  C    0.616417
    18  C   -0.382241
    19  H    0.201166
    20  H    0.184899
    21  O   -0.518520
    22  C   -0.004972
    23  C    0.009397
    24  H    0.177475
    25  C    0.075058
    26  C    0.310122
    27  C   -0.232267
    28  H    0.138918
    29  N   -0.682370
    30  H    0.344114
    31  C   -0.155256
    32  H    0.146466
    33  C   -0.163228
    34  H    0.145572
    35  C   -0.154798
    36  H    0.140227
    37  N   -0.597553
    38  H    0.373570
    39  C   -0.068061
    40  H    0.187300
    41  C    0.635235
    42  C   -0.284677
    43  H    0.169667
    44  H    0.181122
    45  O   -0.543599
    46  C   -0.346755
    47  H    0.207122
    48  H    0.175383
    49  C    0.593953
    50  O   -0.525874
    51  O   -0.516348
    52  N   -0.608228
    53  H    0.353564
    54  C   -0.059085
    55  H    0.174744
    56  C    0.630831
    57  C   -0.075369
    58  H    0.147002
    59  O   -0.557607
    60  C   -0.489843
    61  H    0.142897
    62  H    0.160853
    63  H    0.182042
    64  C   -0.444857
    65  H    0.159310
    66  H    0.144756
    67  H    0.151448
    68  N   -0.595362
    69  H    0.355642
    70  C   -0.075353
    71  H    0.162851
    72  C    0.655362
    73  C    0.113762
    74  H    0.140227
    75  O   -0.571293
    76  C   -0.449643
    77  H    0.144940
    78  H    0.150392
    79  H    0.173839
    80  O   -0.650670
    81  H    0.425452
    82  N   -0.588551
    83  H    0.360151
    84  C   -0.057789
    85  H    0.177293
    86  C    0.617655
    87  C   -0.076127
    88  H    0.143739
    89  O   -0.551665
    90  C   -0.471775
    91  H    0.149990
    92  H    0.167726
    93  H    0.153837
    94  C   -0.474805
    95  H    0.163209
    96  H    0.142933
    97  H    0.164236
    98  N   -0.613688
    99  H    0.359945
   100  C   -0.043494
   101  H    0.190157
   102  C    0.575620
   103  C   -0.283400
   104  H    0.133688
   105  H    0.176126
   106  O   -0.618806
   107  C   -0.280438
   108  H    0.142177
   109  H    0.164400
   110  C   -0.271485
   111  H    0.151632
   112  H    0.141194
   113  C   -0.142973
   114  H    0.143897
   115  H    0.161457
   116  N   -0.768877
   117  H    0.337578
   118  H    0.325520
   119  H    0.487937
   120  O   -0.473504
   121  H    0.431085
 Sum of Mulliken charges =   1.00000

 Dipole moment (field-independent basis, Debye):
    X=             -8.9848    Y=            -12.2065    Z=            -25.3208  Tot=             29.5105
 Quadrupole moment (field-independent basis, Debye-Ang):
   XX=            -93.3379   YY=           -295.0817   ZZ=           -166.8045
   XY=             76.4010   XZ=            165.2948   YZ=             70.1230

 Normal termination of Gaussian 16 at Sun Jul 10 13:38:20 2022.
