 Gaussian 16, Revision C.01,
 Gaussian 16:  ES64L-G16RevC.01  3-Jul-2019

 ----------------------------------------------------------------------
 # B3LYP/6-31G* empiricaldispersion=gd3bj guess=read geom=check nosymm
 integral(ultrafinegrid)
 ----------------------------------------------------------------------

 ------------------------------------------------------
 Candidate Structure: Conf:879 Charge calc in gas phase
 ------------------------------------------------------
 Structure from the checkpoint file:  "conf-879.chk"
 Charge =  1 Multiplicity = 1

                          Input orientation:
 ---------------------------------------------------------------------
 Center     Atomic      Atomic             Coordinates (Angstroms)
 Number     Number       Type             X           Y           Z
 ---------------------------------------------------------------------
      1          7           0       -2.644066   -1.905158   -8.542300
      2          1           0       -2.480816   -0.881276   -8.566902
      3          1           0       -2.609031   -2.308104   -9.481455
      4          1           0       -1.836518   -2.293105   -7.977738
      5          6           0       -3.986802   -2.089870   -7.877446
      6          1           0       -4.741816   -1.969645   -8.661129
      7          6           0       -4.067077   -0.893718   -6.896499
      8          6           0       -4.089326   -3.463915   -7.219836
      9          1           0       -5.125924   -3.665904   -6.935940
     10          1           0       -3.791910   -4.254146   -7.915896
     11          1           0       -3.475696   -3.519004   -6.316624
     12          8           0       -3.245527    0.017027   -7.029136
     13          7           0       -5.008225   -0.929188   -5.931257
     14          1           0       -5.454567   -1.824480   -5.767548
     15          6           0       -4.731098   -0.187696   -4.688171
     16          1           0       -4.372518    0.799107   -4.976994
     17          6           0       -3.616777   -0.978828   -3.982637
     18          6           0       -5.968269   -0.066575   -3.779969
     19          1           0       -6.691101    0.605491   -4.257780
     20          1           0       -6.442528   -1.051065   -3.689019
     21          8           0       -3.670959   -2.211845   -3.944235
     22          6           0       -5.545918    0.408915   -2.419952
     23          6           0       -5.618862   -0.312552   -1.252873
     24          1           0       -6.074725   -1.275267   -1.067952
     25          6           0       -4.805944    1.611775   -2.116229
     26          6           0       -4.458292    1.549841   -0.737640
     27          6           0       -4.367277    2.712518   -2.875198
     28          1           0       -4.639568    2.811137   -3.923089
     29          7           0       -4.972542    0.367085   -0.240502
     30          1           0       -4.939560    0.078690    0.725066
     31          6           0       -3.277727    3.614821   -0.892155
     32          1           0       -2.687309    4.404506   -0.438235
     33          6           0       -3.708575    2.549394   -0.111229
     34          1           0       -3.474914    2.499720    0.948055
     35          6           0       -3.601764    3.695361   -2.260508
     36          1           0       -3.255340    4.546172   -2.838493
     37          7           0       -2.582654   -0.254334   -3.519999
     38          1           0       -2.621249    0.760912   -3.492343
     39          6           0       -1.442479   -0.867808   -2.857451
     40          1           0       -1.788716   -1.802879   -2.407394
     41          6           0       -0.994513    0.141238   -1.797976
     42          6           0       -0.300649   -1.166016   -3.861355
     43          1           0        0.166905   -0.221813   -4.159375
     44          1           0        0.465791   -1.771671   -3.367241
     45          8           0       -0.927449    1.337105   -2.084387
     46          6           0       -0.864990   -1.883670   -5.091456
     47          1           0       -1.427306   -2.774051   -4.782660
     48          1           0       -1.587538   -1.231370   -5.586857
     49          6           0        0.080520   -2.328947   -6.167237
     50          8           0       -0.289306   -2.622062   -7.304928
     51          8           0        1.353827   -2.425215   -5.800060
     52          7           0       -0.716984   -0.349984   -0.572353
     53          1           0       -0.696084   -1.349842   -0.421828
     54          6           0       -0.256722    0.521888    0.511697
     55          1           0       -0.786130    1.470919    0.381050
     56          6           0        1.253046    0.733674    0.316537
     57          6           0       -0.583047   -0.074763    1.887611
     58          1           0       -0.031178   -1.020294    1.969992
     59          8           0        2.082039   -0.044829    0.798965
     60          6           0       -0.087506    0.860328    2.998585
     61          1           0       -0.568055    1.844201    2.925419
     62          1           0       -0.330094    0.444430    3.981274
     63          1           0        0.995724    0.998284    2.951834
     64          6           0       -2.085942   -0.344387    2.036439
     65          1           0       -2.644233    0.599661    2.029066
     66          1           0       -2.480391   -0.972242    1.230296
     67          1           0       -2.288635   -0.844480    2.988636
     68          7           0        1.586634    1.791523   -0.449642
     69          1           0        0.863734    2.369223   -0.865983
     70          6           0        2.960795    2.047893   -0.865767
     71          1           0        3.460892    1.080768   -0.992254
     72          6           0        3.718207    2.815342    0.236361
     73          6           0        2.966529    2.828283   -2.189587
     74          1           0        4.017800    3.044198   -2.426076
     75          8           0        4.119070    3.983511    0.047335
     76          6           0        2.338026    2.051108   -3.338118
     77          1           0        2.854376    1.096007   -3.486239
     78          1           0        1.278489    1.859043   -3.144268
     79          1           0        2.415849    2.638330   -4.257406
     80          8           0        2.233189    4.037007   -2.029154
     81          1           0        2.740357    4.540493   -1.364995
     82          7           0        3.872086    2.135248    1.373227
     83          1           0        3.557252    1.166149    1.363462
     84          6           0        4.712128    2.578009    2.477310
     85          1           0        4.417950    3.599621    2.742724
     86          6           0        6.179858    2.575248    1.997344
     87          6           0        4.473614    1.662132    3.706534
     88          1           0        3.379406    1.615175    3.816313
     89          8           0        6.545758    1.785698    1.135558
     90          6           0        4.995790    0.234986    3.488837
     91          1           0        6.084695    0.224893    3.383700
     92          1           0        4.572377   -0.242681    2.598189
     93          1           0        4.733393   -0.385432    4.351673
     94          6           0        5.048826    2.276813    4.988282
     95          1           0        6.138215    2.379193    4.964389
     96          1           0        4.790925    1.647514    5.846350
     97          1           0        4.633885    3.274900    5.172578
     98          7           0        6.967270    3.554154    2.551189
     99          1           0        6.828156    3.824708    3.585467
    100          6           0        8.443338    3.444310    2.522429
    101          1           0        8.717444    2.415797    2.270864
    102          6           0        8.887147    3.789426    3.996899
    103          6           0        9.086781    4.412924    1.523658
    104          1           0       10.162344    4.225416    1.546421
    105          1           0        8.974644    5.432072    1.918111
    106          8           0        7.896369    4.020219    4.772258
    107          6           0        8.512708    4.303161    0.089598
    108          1           0        9.267036    3.891961   -0.589833
    109          1           0        7.697187    3.572989    0.077401
    110          6           0        8.011657    5.622717   -0.531185
    111          1           0        8.859109    6.256915   -0.819699
    112          1           0        7.463936    5.400394   -1.456167
    113          6           0        7.135957    6.493677    0.372276
    114          1           0        6.644808    7.285615   -0.199304
    115          1           0        7.724115    6.960967    1.164216
    116          7           0        6.067442    5.704407    1.071906
    117          1           0        5.492378    6.308502    1.663635
    118          1           0        5.420532    5.180230    0.452130
    119          1           0        6.483080    4.935245    1.706695
    120          8           0       10.099864    3.829214    4.209147
    121          1           0        1.872053   -2.747291   -6.564126
 ---------------------------------------------------------------------

 SCF Done:  E(RB3LYP) =  -2843.90649045     A.U. after    2 cycles

 Alpha  occ. eigenvalues --  -19.33161 -19.28216 -19.27465 -19.22617 -19.22334
 Alpha  occ. eigenvalues --  -19.21431 -19.21067 -19.20555 -19.17066 -19.08630
 Alpha  occ. eigenvalues --  -19.06898 -14.58471 -14.50026 -14.49718 -14.47234
 Alpha  occ. eigenvalues --  -14.46903 -14.46652 -14.44813 -14.43357 -14.38453
 Alpha  occ. eigenvalues --  -10.46115 -10.44223 -10.41087 -10.39680 -10.39494
 Alpha  occ. eigenvalues --  -10.37489 -10.37424 -10.34913 -10.34520 -10.33548
 Alpha  occ. eigenvalues --  -10.33498 -10.32396 -10.31845 -10.31670 -10.31498
 Alpha  occ. eigenvalues --  -10.31175 -10.30858 -10.30761 -10.30418 -10.30149
 Alpha  occ. eigenvalues --  -10.29339 -10.28259 -10.27333 -10.27199 -10.27084
 Alpha  occ. eigenvalues --  -10.27013 -10.26527 -10.26509 -10.26231 -10.25856
 Alpha  occ. eigenvalues --  -10.25828 -10.25307 -10.25296 -10.24974 -10.22955
 Alpha  occ. eigenvalues --  -10.22873 -10.22079 -10.21375 -10.21046  -1.24443
 Alpha  occ. eigenvalues --   -1.19766  -1.15194  -1.15034  -1.14245  -1.13030
 Alpha  occ. eigenvalues --   -1.12889  -1.11998  -1.08911  -1.08484  -1.06698
 Alpha  occ. eigenvalues --   -1.06497  -1.05253  -1.03722  -1.03361  -1.01450
 Alpha  occ. eigenvalues --   -1.01386  -1.00039  -0.95385  -0.93703  -0.92345
 Alpha  occ. eigenvalues --   -0.92271  -0.92057  -0.90456  -0.89856  -0.86829
 Alpha  occ. eigenvalues --   -0.86336  -0.85963  -0.85142  -0.84737  -0.81922
 Alpha  occ. eigenvalues --   -0.81497  -0.81025  -0.80324  -0.79975  -0.79039
 Alpha  occ. eigenvalues --   -0.77351  -0.76970  -0.76407  -0.75632  -0.74167
 Alpha  occ. eigenvalues --   -0.73839  -0.73337  -0.72844  -0.72575  -0.70816
 Alpha  occ. eigenvalues --   -0.70655  -0.70277  -0.69384  -0.69136  -0.67951
 Alpha  occ. eigenvalues --   -0.67756  -0.67580  -0.67004  -0.65989  -0.65798
 Alpha  occ. eigenvalues --   -0.65195  -0.64637  -0.64535  -0.63817  -0.63062
 Alpha  occ. eigenvalues --   -0.62762  -0.62621  -0.62239  -0.61780  -0.61262
 Alpha  occ. eigenvalues --   -0.61191  -0.60540  -0.60047  -0.59694  -0.59219
 Alpha  occ. eigenvalues --   -0.59121  -0.58695  -0.58494  -0.58031  -0.57160
 Alpha  occ. eigenvalues --   -0.56883  -0.56668  -0.56086  -0.56044  -0.55358
 Alpha  occ. eigenvalues --   -0.55083  -0.54840  -0.54321  -0.54160  -0.53744
 Alpha  occ. eigenvalues --   -0.53277  -0.53128  -0.52769  -0.52690  -0.52608
 Alpha  occ. eigenvalues --   -0.52265  -0.51787  -0.51698  -0.51561  -0.51435
 Alpha  occ. eigenvalues --   -0.51304  -0.51263  -0.50893  -0.50498  -0.50063
 Alpha  occ. eigenvalues --   -0.49850  -0.49542  -0.49493  -0.48699  -0.48544
 Alpha  occ. eigenvalues --   -0.48381  -0.48201  -0.47856  -0.47660  -0.47537
 Alpha  occ. eigenvalues --   -0.47379  -0.46920  -0.46825  -0.46638  -0.46482
 Alpha  occ. eigenvalues --   -0.46177  -0.45931  -0.45882  -0.45607  -0.45032
 Alpha  occ. eigenvalues --   -0.44869  -0.44154  -0.44123  -0.43610  -0.43443
 Alpha  occ. eigenvalues --   -0.42913  -0.42809  -0.42458  -0.42146  -0.42108
 Alpha  occ. eigenvalues --   -0.42061  -0.41804  -0.41708  -0.41590  -0.41400
 Alpha  occ. eigenvalues --   -0.40829  -0.40562  -0.40382  -0.39329  -0.38869
 Alpha  occ. eigenvalues --   -0.38413  -0.38335  -0.37914  -0.37622  -0.37589
 Alpha  occ. eigenvalues --   -0.37161  -0.36729  -0.36265  -0.36188  -0.36121
 Alpha  occ. eigenvalues --   -0.35343  -0.35190  -0.34566  -0.34105  -0.33613
 Alpha  occ. eigenvalues --   -0.32549  -0.31374  -0.30597  -0.30098  -0.29028
 Alpha  occ. eigenvalues --   -0.23681  -0.23378  -0.20904
 Alpha virt. eigenvalues --   -0.13993  -0.12719  -0.09743  -0.09564  -0.09199
 Alpha virt. eigenvalues --   -0.08375  -0.07474  -0.06085  -0.05984  -0.04859
 Alpha virt. eigenvalues --   -0.04466  -0.04269  -0.03304  -0.02793  -0.02616

 Mulliken charges:
               1
     1  N   -0.772460
     2  H    0.418599
     3  H    0.404574
     4  H    0.447366
     5  C   -0.115969
     6  H    0.227944
     7  C    0.650040
     8  C   -0.492487
     9  H    0.198172
    10  H    0.190399
    11  H    0.216978
    12  O   -0.523988
    13  N   -0.574780
    14  H    0.354030
    15  C   -0.075995
    16  H    0.195941
    17  C    0.626761
    18  C   -0.354712
    19  H    0.180785
    20  H    0.156723
    21  O   -0.567781
    22  C    0.037360
    23  C    0.015694
    24  H    0.166884
    25  C    0.076554
    26  C    0.315714
    27  C   -0.250990
    28  H    0.132230
    29  N   -0.691901
    30  H    0.342459
    31  C   -0.140865
    32  H    0.141205
    33  C   -0.166201
    34  H    0.141799
    35  C   -0.119434
    36  H    0.142167
    37  N   -0.600559
    38  H    0.380078
    39  C   -0.052422
    40  H    0.178486
    41  C    0.636511
    42  C   -0.270644
    43  H    0.186061
    44  H    0.176155
    45  O   -0.533977
    46  C   -0.411496
    47  H    0.222620
    48  H    0.190960
    49  C    0.625567
    50  O   -0.522443
    51  O   -0.523212
    52  N   -0.611532
    53  H    0.344709
    54  C   -0.039903
    55  H    0.179203
    56  C    0.632872
    57  C   -0.103687
    58  H    0.158709
    59  O   -0.555135
    60  C   -0.473102
    61  H    0.143270
    62  H    0.165483
    63  H    0.180482
    64  C   -0.464229
    65  H    0.144298
    66  H    0.136000
    67  H    0.168509
    68  N   -0.597177
    69  H    0.372356
    70  C   -0.088211
    71  H    0.193422
    72  C    0.672075
    73  C    0.109121
    74  H    0.144737
    75  O   -0.615023
    76  C   -0.478657
    77  H    0.140339
    78  H    0.176266
    79  H    0.166320
    80  O   -0.644773
    81  H    0.411011
    82  N   -0.612644
    83  H    0.402584
    84  C   -0.029244
    85  H    0.137392
    86  C    0.616249
    87  C   -0.122144
    88  H    0.137814
    89  O   -0.515047
    90  C   -0.463890
    91  H    0.178825
    92  H    0.152111
    93  H    0.153980
    94  C   -0.470472
    95  H    0.209695
    96  H    0.150841
    97  H    0.138270
    98  N   -0.729723
    99  H    0.388000
   100  C   -0.067881
   101  H    0.168636
   102  C    0.592957
   103  C   -0.292450
   104  H    0.188515
   105  H    0.127100
   106  O   -0.622679
   107  C   -0.303699
   108  H    0.157920
   109  H    0.169584
   110  C   -0.279991
   111  H    0.170829
   112  H    0.147829
   113  C   -0.181129
   114  H    0.181399
   115  H    0.204577
   116  N   -0.805073
   117  H    0.380495
   118  H    0.428261
   119  H    0.448242
   120  O   -0.554111
   121  H    0.435822
 Sum of Mulliken charges =   1.00000

 Dipole moment (field-independent basis, Debye):
    X=            -22.6468    Y=             -5.5856    Z=            -35.3388  Tot=             42.3428
 Quadrupole moment (field-independent basis, Debye-Ang):
   XX=           -406.2363   YY=           -276.9564   ZZ=           -146.7042
   XY=             26.2637   XZ=            -16.4662   YZ=             42.7247

 Normal termination of Gaussian 16 at Sun Jul 10 13:38:12 2022.
