 Gaussian 16, Revision C.01,
 Gaussian 16:  ES64L-G16RevC.01  3-Jul-2019

 ----------------------------------------------------------------------
 # B3LYP/6-31G* empiricaldispersion=gd3bj guess=read geom=check nosymm
 integral(ultrafinegrid)
 ----------------------------------------------------------------------

 ------------------------------------------------------
 Candidate Structure: Conf:315 Charge calc in gas phase
 ------------------------------------------------------
 Structure from the checkpoint file:  "conf-315.chk"
 Charge =  1 Multiplicity = 1

                          Input orientation:
 ---------------------------------------------------------------------
 Center     Atomic      Atomic             Coordinates (Angstroms)
 Number     Number       Type             X           Y           Z
 ---------------------------------------------------------------------
      1          7           0       -8.763069   -0.623139   -7.782280
      2          1           0       -9.082500   -1.171743   -6.942832
      3          1           0       -9.403953   -0.758603   -8.567861
      4          1           0       -8.742558    0.372507   -7.475399
      5          6           0       -7.321368   -0.931155   -8.121976
      6          1           0       -7.186172   -2.010573   -8.029381
      7          6           0       -6.579296   -0.153709   -7.013169
      8          6           0       -6.983540   -0.426356   -9.519889
      9          1           0       -5.933007   -0.638073   -9.737720
     10          1           0       -7.590844   -0.922618  -10.284352
     11          1           0       -7.129646    0.656505   -9.582675
     12          8           0       -7.072659    0.922656   -6.664983
     13          7           0       -5.497005   -0.720999   -6.477796
     14          1           0       -5.082493   -1.578333   -6.834802
     15          6           0       -4.992721   -0.326879   -5.173880
     16          1           0       -5.103448    0.753383   -5.068705
     17          6           0       -3.529521   -0.781282   -5.119192
     18          6           0       -5.780307   -1.076777   -4.040390
     19          1           0       -5.388051   -2.098301   -3.989296
     20          1           0       -5.544969   -0.593104   -3.086428
     21          8           0       -3.173304   -1.738580   -5.815670
     22          6           0       -7.257982   -1.127215   -4.273110
     23          6           0       -7.929600   -2.151261   -4.871540
     24          1           0       -7.569896   -3.124391   -5.178380
     25          6           0       -8.223871   -0.067447   -4.037491
     26          6           0       -9.469677   -0.514840   -4.527630
     27          6           0       -8.127961    1.209982   -3.472039
     28          1           0       -7.178765    1.584035   -3.101004
     29          7           0       -9.273505   -1.782349   -5.133779
     30          1           0       -9.999891   -2.486502   -5.035404
     31          6           0      -10.511524    1.518170   -3.870394
     32          1           0      -11.392758    2.145616   -3.782523
     33          6           0      -10.625842    0.258726   -4.456684
     34          1           0      -11.580940   -0.104958   -4.825605
     35          6           0       -9.276522    1.989153   -3.389747
     36          1           0       -9.222852    2.978108   -2.946138
     37          7           0       -2.760513   -0.125431   -4.246459
     38          1           0       -3.127613    0.607492   -3.636791
     39          6           0       -1.428788   -0.551359   -3.845297
     40          1           0       -1.444080   -1.631796   -3.672885
     41          6           0       -1.183957    0.149345   -2.491337
     42          6           0       -0.333855   -0.217649   -4.895529
     43          1           0       -0.731196    0.544085   -5.572445
     44          1           0        0.534472    0.220994   -4.395123
     45          8           0       -1.997394    0.975644   -2.063328
     46          6           0        0.114215   -1.435395   -5.703885
     47          1           0       -0.752097   -1.940981   -6.147005
     48          1           0        0.768577   -1.143228   -6.532769
     49          6           0        0.856920   -2.437523   -4.852151
     50          8           0        0.973945   -2.391331   -3.640695
     51          8           0        1.385234   -3.434628   -5.584426
     52          7           0       -0.057951   -0.222930   -1.868315
     53          1           0        0.559463   -0.900384   -2.315314
     54          6           0        0.401147    0.371248   -0.621958
     55          1           0       -0.242197    1.231286   -0.417588
     56          6           0        1.855326    0.800725   -0.826498
     57          6           0        0.303168   -0.644239    0.548026
     58          1           0        0.830512   -1.547292    0.211570
     59          8           0        2.647247    0.069897   -1.410072
     60          6           0        0.997619   -0.132321    1.817116
     61          1           0        0.611420    0.843870    2.132277
     62          1           0        0.836332   -0.834925    2.641114
     63          1           0        2.078473   -0.034013    1.681309
     64          6           0       -1.162489   -0.997754    0.818867
     65          1           0       -1.717491   -0.118987    1.168138
     66          1           0       -1.659394   -1.374216   -0.080720
     67          1           0       -1.231423   -1.769921    1.592504
     68          7           0        2.174748    2.021887   -0.303538
     69          1           0        1.503701    2.449322    0.332062
     70          6           0        3.545722    2.354209    0.083822
     71          1           0        4.189887    1.530523   -0.234404
     72          6           0        3.513245    2.526464    1.609967
     73          6           0        3.994613    3.651885   -0.624043
     74          1           0        3.362341    4.468951   -0.238619
     75          8           0        2.520761    3.041659    2.137378
     76          6           0        5.458183    3.976900   -0.366622
     77          1           0        5.643534    4.148996    0.697433
     78          1           0        6.092608    3.150747   -0.707727
     79          1           0        5.737947    4.875472   -0.924283
     80          8           0        3.828703    3.514289   -2.026378
     81          1           0        2.940437    3.140347   -2.154664
     82          7           0        4.590970    2.093174    2.275562
     83          1           0        5.394466    1.679144    1.808259
     84          6           0        4.733493    2.140337    3.723523
     85          1           0        4.421563    3.127785    4.079190
     86          6           0        6.233965    1.919855    3.985953
     87          6           0        3.832878    1.064830    4.402686
     88          1           0        2.854664    1.195918    3.924892
     89          8           0        6.941384    1.416951    3.092289
     90          6           0        4.329269   -0.356020    4.115136
     91          1           0        5.283999   -0.551024    4.616140
     92          1           0        4.471883   -0.527004    3.042302
     93          1           0        3.604535   -1.090938    4.482360
     94          6           0        3.647283    1.308557    5.904745
     95          1           0        4.566570    1.176436    6.483995
     96          1           0        2.901938    0.608715    6.299986
     97          1           0        3.278184    2.323550    6.095946
     98          7           0        6.670610    2.277198    5.194309
     99          1           0        6.022267    2.526785    5.959728
    100          6           0        7.889736    1.791164    5.827812
    101          1           0        8.065583    0.751550    5.522254
    102          6           0        7.614013    1.812727    7.395079
    103          6           0        9.134822    2.617056    5.523852
    104          1           0        9.877458    2.307872    6.268363
    105          1           0        8.911335    3.677823    5.704729
    106          8           0        8.596586    1.518619    8.094798
    107          6           0        9.683667    2.436005    4.107942
    108          1           0        9.857737    1.368593    3.919188
    109          1           0        8.947482    2.755418    3.363752
    110          6           0       10.999916    3.206675    3.925625
    111          1           0       10.825755    4.279288    4.093569
    112          1           0       11.725457    2.870452    4.680323
    113          6           0       11.561143    2.986814    2.536149
    114          1           0       10.906172    3.369119    1.750079
    115          1           0       11.787179    1.937038    2.336125
    116          7           0       12.894002    3.738926    2.377938
    117          1           0       13.316929    3.617864    1.450317
    118          1           0       12.754993    4.743518    2.537870
    119          1           0       13.567397    3.413649    3.081643
    120          8           0        6.435813    2.140314    7.706794
    121          1           0        1.841375   -4.031161   -4.960088
 ---------------------------------------------------------------------

 SCF Done:  E(RB3LYP) =  -2843.83501086     A.U. after    3 cycles

 Alpha  occ. eigenvalues --  -19.26288 -19.24940 -19.21176 -19.20910 -19.18239
 Alpha  occ. eigenvalues --  -19.17368 -19.16294 -19.14576 -19.12739 -19.04682
 Alpha  occ. eigenvalues --  -19.03702 -14.61109 -14.58123 -14.49481 -14.48310
 Alpha  occ. eigenvalues --  -14.44295 -14.41375 -14.40238 -14.38544 -14.34689
 Alpha  occ. eigenvalues --  -10.42174 -10.39800 -10.39093 -10.37995 -10.37345
 Alpha  occ. eigenvalues --  -10.35194 -10.34139 -10.33247 -10.32898 -10.32613
 Alpha  occ. eigenvalues --  -10.32450 -10.31687 -10.30650 -10.30155 -10.29898
 Alpha  occ. eigenvalues --  -10.29355 -10.28999 -10.28901 -10.28724 -10.28216
 Alpha  occ. eigenvalues --  -10.28181 -10.27786 -10.27607 -10.27423 -10.26539
 Alpha  occ. eigenvalues --  -10.26444 -10.26367 -10.24551 -10.23926 -10.23191
 Alpha  occ. eigenvalues --  -10.22684 -10.21629 -10.21313 -10.21121 -10.20412
 Alpha  occ. eigenvalues --  -10.20252 -10.19486 -10.18471 -10.17044  -1.17768
 Alpha  occ. eigenvalues --   -1.17476  -1.14965  -1.12951  -1.12304  -1.10107
 Alpha  occ. eigenvalues --   -1.08378  -1.08335  -1.08285  -1.06528  -1.05162
 Alpha  occ. eigenvalues --   -1.05109  -1.04060  -1.01093  -0.98414  -0.97799
 Alpha  occ. eigenvalues --   -0.96561  -0.95061  -0.94028  -0.92410  -0.91879
 Alpha  occ. eigenvalues --   -0.90977  -0.90366  -0.89014  -0.88043  -0.86114
 Alpha  occ. eigenvalues --   -0.85128  -0.83465  -0.82542  -0.82378  -0.81484
 Alpha  occ. eigenvalues --   -0.80874  -0.80461  -0.79972  -0.77087  -0.76355
 Alpha  occ. eigenvalues --   -0.75954  -0.74386  -0.73616  -0.73330  -0.72889
 Alpha  occ. eigenvalues --   -0.72749  -0.72455  -0.72037  -0.71446  -0.71048
 Alpha  occ. eigenvalues --   -0.70502  -0.69365  -0.68947  -0.67595  -0.67385
 Alpha  occ. eigenvalues --   -0.66707  -0.65331  -0.65037  -0.64277  -0.63857
 Alpha  occ. eigenvalues --   -0.63480  -0.63337  -0.62927  -0.62485  -0.61933
 Alpha  occ. eigenvalues --   -0.61779  -0.61155  -0.60530  -0.59079  -0.58423
 Alpha  occ. eigenvalues --   -0.58071  -0.57997  -0.57514  -0.57492  -0.57066
 Alpha  occ. eigenvalues --   -0.56744  -0.56661  -0.55936  -0.55548  -0.55375
 Alpha  occ. eigenvalues --   -0.55247  -0.54856  -0.54455  -0.54084  -0.53513
 Alpha  occ. eigenvalues --   -0.52983  -0.52875  -0.52402  -0.52140  -0.51859
 Alpha  occ. eigenvalues --   -0.51564  -0.51206  -0.51164  -0.50919  -0.50608
 Alpha  occ. eigenvalues --   -0.50509  -0.49765  -0.49670  -0.49504  -0.49379
 Alpha  occ. eigenvalues --   -0.48929  -0.48332  -0.48260  -0.47854  -0.47636
 Alpha  occ. eigenvalues --   -0.47174  -0.46906  -0.46583  -0.46436  -0.46001
 Alpha  occ. eigenvalues --   -0.45774  -0.45204  -0.44971  -0.44837  -0.44565
 Alpha  occ. eigenvalues --   -0.44059  -0.43852  -0.43657  -0.43385  -0.43182
 Alpha  occ. eigenvalues --   -0.42891  -0.42752  -0.42591  -0.42497  -0.42306
 Alpha  occ. eigenvalues --   -0.42198  -0.41959  -0.41668  -0.41510  -0.41352
 Alpha  occ. eigenvalues --   -0.40914  -0.39731  -0.39685  -0.39543  -0.38991
 Alpha  occ. eigenvalues --   -0.38919  -0.38705  -0.38593  -0.38282  -0.37928
 Alpha  occ. eigenvalues --   -0.37240  -0.37019  -0.36956  -0.36488  -0.36419
 Alpha  occ. eigenvalues --   -0.35360  -0.35101  -0.34886  -0.34786  -0.34247
 Alpha  occ. eigenvalues --   -0.34144  -0.34073  -0.33812  -0.33011  -0.32565
 Alpha  occ. eigenvalues --   -0.32087  -0.31819  -0.31586  -0.31292  -0.30295
 Alpha  occ. eigenvalues --   -0.29315  -0.28552  -0.27505  -0.26731  -0.25792
 Alpha  occ. eigenvalues --   -0.19870  -0.19517  -0.18080
 Alpha virt. eigenvalues --   -0.11944  -0.11848  -0.11719  -0.08946  -0.08311
 Alpha virt. eigenvalues --   -0.07188  -0.05797  -0.05221  -0.04987  -0.04761
 Alpha virt. eigenvalues --   -0.03989  -0.03607  -0.02878  -0.02621  -0.01915

 Mulliken charges:
               1
     1  N   -0.765570
     2  H    0.440620
     3  H    0.398992
     4  H    0.423740
     5  C   -0.107771
     6  H    0.197301
     7  C    0.658676
     8  C   -0.469530
     9  H    0.211246
    10  H    0.182713
    11  H    0.200888
    12  O   -0.527420
    13  N   -0.597014
    14  H    0.358460
    15  C   -0.068185
    16  H    0.200785
    17  C    0.636057
    18  C   -0.370821
    19  H    0.178108
    20  H    0.189552
    21  O   -0.552851
    22  C    0.110579
    23  C   -0.079381
    24  H    0.166570
    25  C    0.145893
    26  C    0.217829
    27  C   -0.188747
    28  H    0.148477
    29  N   -0.724349
    30  H    0.356922
    31  C   -0.141842
    32  H    0.156665
    33  C   -0.188440
    34  H    0.142414
    35  C   -0.132957
    36  H    0.157310
    37  N   -0.625462
    38  H    0.363743
    39  C   -0.034241
    40  H    0.191250
    41  C    0.589757
    42  C   -0.281359
    43  H    0.161486
    44  H    0.182548
    45  O   -0.552807
    46  C   -0.375693
    47  H    0.219005
    48  H    0.187677
    49  C    0.595217
    50  O   -0.472060
    51  O   -0.555866
    52  N   -0.621721
    53  H    0.400597
    54  C   -0.065838
    55  H    0.173354
    56  C    0.603682
    57  C   -0.071755
    58  H    0.146646
    59  O   -0.524198
    60  C   -0.479002
    61  H    0.163137
    62  H    0.157190
    63  H    0.167861
    64  C   -0.445558
    65  H    0.151873
    66  H    0.139266
    67  H    0.151266
    68  N   -0.626695
    69  H    0.354313
    70  C   -0.089442
    71  H    0.177697
    72  C    0.630770
    73  C    0.157959
    74  H    0.127206
    75  O   -0.561838
    76  C   -0.464996
    77  H    0.157508
    78  H    0.148762
    79  H    0.158887
    80  O   -0.631787
    81  H    0.399246
    82  N   -0.616704
    83  H    0.352605
    84  C   -0.042936
    85  H    0.168077
    86  C    0.606229
    87  C   -0.083538
    88  H    0.155547
    89  O   -0.597566
    90  C   -0.456152
    91  H    0.163526
    92  H    0.135883
    93  H    0.139443
    94  C   -0.480575
    95  H    0.204354
    96  H    0.134862
    97  H    0.141442
    98  N   -0.608723
    99  H    0.368556
   100  C   -0.075298
   101  H    0.138662
   102  C    0.582453
   103  C   -0.259437
   104  H    0.168712
   105  H    0.126442
   106  O   -0.587634
   107  C   -0.263343
   108  H    0.148146
   109  H    0.171573
   110  C   -0.290990
   111  H    0.157572
   112  H    0.161821
   113  C   -0.206063
   114  H    0.224561
   115  H    0.224525
   116  N   -0.730475
   117  H    0.420465
   118  H    0.421897
   119  H    0.423239
   120  O   -0.604667
   121  H    0.421009
 Sum of Mulliken charges =   1.00000

 Dipole moment (field-independent basis, Debye):
    X=             -7.8593    Y=              2.1734    Z=            -43.1269  Tot=             43.8910
 Quadrupole moment (field-independent basis, Debye-Ang):
   XX=            432.1726   YY=           -286.8552   ZZ=           -280.9802
   XY=            185.1813   XZ=            194.5119   YZ=             34.7368

 Normal termination of Gaussian 16 at Sun Jul 10 13:38:10 2022.
