 Gaussian 16, Revision C.01,
 Gaussian 16:  ES64L-G16RevC.01  3-Jul-2019

 ----------------------------------------------------------------------
 # B3LYP/6-31G* empiricaldispersion=gd3bj guess=read geom=check nosymm
 integral(ultrafinegrid)
 ----------------------------------------------------------------------

 ------------------------------------------------------
 Candidate Structure: Conf:564 Charge calc in gas phase
 ------------------------------------------------------
 Structure from the checkpoint file:  "conf-564.chk"
 Charge =  1 Multiplicity = 1

                          Input orientation:
 ---------------------------------------------------------------------
 Center     Atomic      Atomic             Coordinates (Angstroms)
 Number     Number       Type             X           Y           Z
 ---------------------------------------------------------------------
      1          7           0       -5.113161   -4.071208   -6.843532
      2          1           0       -5.882122   -3.888218   -6.150279
      3          1           0       -5.315890   -4.908135   -7.395675
      4          1           0       -5.067842   -3.221479   -7.444421
      5          6           0       -3.762050   -4.112946   -6.163163
      6          1           0       -3.877980   -4.684032   -5.239882
      7          6           0       -3.515253   -2.612938   -5.893861
      8          6           0       -2.716805   -4.723127   -7.089453
      9          1           0       -1.744987   -4.724289   -6.587971
     10          1           0       -2.962572   -5.759227   -7.345435
     11          1           0       -2.623420   -4.131865   -8.005720
     12          8           0       -3.913731   -1.820027   -6.751593
     13          7           0       -2.939555   -2.282565   -4.737029
     14          1           0       -2.574906   -2.968949   -4.080323
     15          6           0       -3.041185   -0.944268   -4.180057
     16          1           0       -2.982033   -0.220692   -4.994481
     17          6           0       -1.882350   -0.822195   -3.183004
     18          6           0       -4.391514   -0.789281   -3.393236
     19          1           0       -4.260603   -1.278394   -2.422018
     20          1           0       -4.553278    0.276704   -3.199852
     21          8           0       -1.477989   -1.838605   -2.612865
     22          6           0       -5.566154   -1.396781   -4.095176
     23          6           0       -6.042254   -2.657661   -3.889685
     24          1           0       -5.756680   -3.388429   -3.144732
     25          6           0       -6.324359   -0.832647   -5.198726
     26          6           0       -7.246279   -1.814110   -5.622957
     27          6           0       -6.284069    0.400804   -5.860459
     28          1           0       -5.573010    1.166410   -5.565665
     29          7           0       -7.012421   -2.990776   -4.867420
     30          1           0       -7.807041   -3.561877   -4.592927
     31          6           0       -8.098175   -0.358413   -7.298279
     32          1           0       -8.789259   -0.148348   -8.108361
     33          6           0       -8.141312   -1.601283   -6.668958
     34          1           0       -8.854628   -2.361664   -6.974824
     35          6           0       -7.176479    0.627394   -6.902137
     36          1           0       -7.164926    1.580667   -7.420707
     37          7           0       -1.414723    0.413314   -2.962892
     38          1           0       -1.844736    1.242663   -3.365288
     39          6           0       -0.424295    0.690714   -1.932276
     40          1           0       -0.748600    0.194754   -1.007663
     41          6           0       -0.492418    2.212658   -1.711339
     42          6           0        0.982872    0.157887   -2.305923
     43          1           0        0.851439   -0.641556   -3.038359
     44          1           0        1.553347    0.942754   -2.810974
     45          8           0       -1.300232    2.903076   -2.333928
     46          6           0        1.747654   -0.416100   -1.112362
     47          1           0        1.902375    0.327215   -0.316289
     48          1           0        1.172798   -1.230882   -0.661259
     49          6           0        3.157050   -0.944648   -1.442207
     50          8           0        3.757630   -0.442092   -2.446809
     51          8           0        3.613569   -1.795499   -0.647292
     52          7           0        0.355944    2.719793   -0.786771
     53          1           0        1.037267    2.114054   -0.348441
     54          6           0        0.298995    4.113532   -0.367808
     55          1           0       -0.313569    4.619263   -1.122234
     56          6           0        1.712870    4.713865   -0.468679
     57          6           0       -0.398160    4.256719    1.009756
     58          1           0       -0.431105    5.329914    1.245375
     59          8           0        2.535323    4.266270   -1.280201
     60          6           0       -1.853565    3.780059    0.927734
     61          1           0       -1.899585    2.701237    0.744015
     62          1           0       -2.369592    3.978464    1.872417
     63          1           0       -2.398602    4.281948    0.122390
     64          6           0        0.355454    3.521218    2.127207
     65          1           0        0.355927    2.439710    1.947266
     66          1           0        1.395851    3.846529    2.218822
     67          1           0       -0.134038    3.689021    3.091442
     68          7           0        2.019308    5.725650    0.366057
     69          1           0        1.381046    6.008562    1.099342
     70          6           0        3.351670    6.309303    0.483978
     71          1           0        3.827305    6.263503   -0.500696
     72          6           0        4.226447    5.512928    1.494501
     73          6           0        3.216612    7.760127    0.973084
     74          1           0        4.230056    8.155659    1.098670
     75          8           0        4.972564    6.082951    2.287090
     76          6           0        2.426401    8.642663    0.021126
     77          1           0        2.910013    8.681930   -0.960714
     78          1           0        1.406737    8.267847   -0.111818
     79          1           0        2.367836    9.656758    0.424532
     80          8           0        2.537567    7.739561    2.231697
     81          1           0        3.197750    7.433816    2.878428
     82          7           0        4.063405    4.175954    1.419153
     83          1           0        3.504266    3.792277    0.667530
     84          6           0        4.805439    3.161014    2.154774
     85          1           0        5.806106    3.544670    2.381268
     86          6           0        4.855067    1.989580    1.170776
     87          6           0        4.110742    2.719276    3.473289
     88          1           0        3.168312    2.235113    3.181697
     89          8           0        3.859027    1.795855    0.438267
     90          6           0        4.977285    1.701038    4.227316
     91          1           0        5.940489    2.145649    4.509362
     92          1           0        5.179802    0.794061    3.649560
     93          1           0        4.478337    1.395013    5.151969
     94          6           0        3.785831    3.925529    4.360369
     95          1           0        4.693303    4.478961    4.621901
     96          1           0        3.309145    3.586760    5.286224
     97          1           0        3.102572    4.621690    3.865576
     98          7           0        5.965758    1.254731    1.087188
     99          1           0        6.671047    1.327379    1.814099
    100          6           0        6.038765    0.045597    0.266712
    101          1           0        5.081626   -0.056903   -0.234662
    102          6           0        6.252268   -1.147254    1.205183
    103          6           0        7.175299    0.097207   -0.783013
    104          1           0        7.469818   -0.935810   -0.997173
    105          1           0        8.052072    0.585549   -0.339162
    106          8           0        5.767214   -2.301624    0.776962
    107          6           0        6.764450    0.751869   -2.110027
    108          1           0        7.554804    0.572672   -2.847997
    109          1           0        5.880671    0.213383   -2.468149
    110          6           0        6.485977    2.271813   -2.033014
    111          1           0        6.338419    2.590619   -0.996106
    112          1           0        7.355842    2.835044   -2.389597
    113          6           0        5.278807    2.733005   -2.848706
    114          1           0        5.355485    2.424806   -3.895141
    115          1           0        5.178735    3.821118   -2.812445
    116          7           0        4.006913    2.161265   -2.303561
    117          1           0        3.841220    1.121037   -2.537959
    118          1           0        4.016731    2.167609   -1.266296
    119          1           0        3.197476    2.739286   -2.545972
    120          8           0        6.887002   -1.016602    2.234981
    121          1           0        5.066863   -2.163965    0.065552
 ---------------------------------------------------------------------

 SCF Done:  E(RB3LYP) =  -2843.95084415     A.U. after    1 cycles

 Alpha  occ. eigenvalues --  -19.25211 -19.21226 -19.21007 -19.20971 -19.20877
 Alpha  occ. eigenvalues --  -19.20806 -19.20765 -19.18849 -19.16757 -19.14949
 Alpha  occ. eigenvalues --  -19.14297 -14.58447 -14.49859 -14.48600 -14.47038
 Alpha  occ. eigenvalues --  -14.45169 -14.44978 -14.44948 -14.44667 -14.42844
 Alpha  occ. eigenvalues --  -10.42433 -10.40008 -10.38415 -10.38053 -10.37850
 Alpha  occ. eigenvalues --  -10.37672 -10.35995 -10.35172 -10.34617 -10.33287
 Alpha  occ. eigenvalues --  -10.32865 -10.32789 -10.32711 -10.31904 -10.31795
 Alpha  occ. eigenvalues --  -10.31064 -10.30773 -10.30644 -10.30625 -10.30445
 Alpha  occ. eigenvalues --  -10.30291 -10.29418 -10.29334 -10.28695 -10.28614
 Alpha  occ. eigenvalues --  -10.28611 -10.28075 -10.27992 -10.26044 -10.26038
 Alpha  occ. eigenvalues --  -10.25965 -10.25173 -10.24882 -10.24815 -10.24076
 Alpha  occ. eigenvalues --  -10.23937 -10.23781 -10.23061 -10.23012  -1.18028
 Alpha  occ. eigenvalues --   -1.13661  -1.13215  -1.12942  -1.12666  -1.12400
 Alpha  occ. eigenvalues --   -1.12258  -1.10759  -1.08692  -1.08182  -1.07851
 Alpha  occ. eigenvalues --   -1.05438  -1.04551  -1.03395  -1.01964  -1.01543
 Alpha  occ. eigenvalues --   -1.01426  -1.00761  -0.99534  -0.99024  -0.94460
 Alpha  occ. eigenvalues --   -0.92696  -0.91324  -0.89354  -0.87720  -0.87465
 Alpha  occ. eigenvalues --   -0.86608  -0.85626  -0.84567  -0.83898  -0.83204
 Alpha  occ. eigenvalues --   -0.82859  -0.80722  -0.80367  -0.79727  -0.78719
 Alpha  occ. eigenvalues --   -0.77363  -0.76462  -0.76191  -0.75434  -0.74046
 Alpha  occ. eigenvalues --   -0.73033  -0.72478  -0.71638  -0.71155  -0.70628
 Alpha  occ. eigenvalues --   -0.70086  -0.69792  -0.69138  -0.68684  -0.67745
 Alpha  occ. eigenvalues --   -0.67338  -0.66603  -0.66416  -0.66121  -0.65798
 Alpha  occ. eigenvalues --   -0.65368  -0.65193  -0.64273  -0.63979  -0.63891
 Alpha  occ. eigenvalues --   -0.62873  -0.62624  -0.62248  -0.61534  -0.61001
 Alpha  occ. eigenvalues --   -0.60258  -0.59446  -0.58521  -0.58446  -0.58082
 Alpha  occ. eigenvalues --   -0.57836  -0.57450  -0.57280  -0.56900  -0.56398
 Alpha  occ. eigenvalues --   -0.55586  -0.55528  -0.55193  -0.54957  -0.54626
 Alpha  occ. eigenvalues --   -0.54423  -0.54138  -0.53753  -0.53695  -0.53455
 Alpha  occ. eigenvalues --   -0.52935  -0.52835  -0.52456  -0.52272  -0.52133
 Alpha  occ. eigenvalues --   -0.51988  -0.51659  -0.51402  -0.51380  -0.51130
 Alpha  occ. eigenvalues --   -0.50877  -0.50520  -0.50095  -0.49931  -0.49782
 Alpha  occ. eigenvalues --   -0.49466  -0.49040  -0.48866  -0.48621  -0.48377
 Alpha  occ. eigenvalues --   -0.48278  -0.47729  -0.47438  -0.47298  -0.47133
 Alpha  occ. eigenvalues --   -0.46982  -0.46480  -0.46196  -0.45949  -0.45723
 Alpha  occ. eigenvalues --   -0.45561  -0.45306  -0.45207  -0.44962  -0.44737
 Alpha  occ. eigenvalues --   -0.44637  -0.44311  -0.44181  -0.43987  -0.43860
 Alpha  occ. eigenvalues --   -0.43653  -0.43579  -0.43015  -0.42682  -0.42560
 Alpha  occ. eigenvalues --   -0.41964  -0.41654  -0.41399  -0.41153  -0.40536
 Alpha  occ. eigenvalues --   -0.40083  -0.40029  -0.39917  -0.39671  -0.39611
 Alpha  occ. eigenvalues --   -0.39317  -0.39284  -0.39135  -0.38648  -0.37438
 Alpha  occ. eigenvalues --   -0.36587  -0.35542  -0.35432  -0.35234  -0.34813
 Alpha  occ. eigenvalues --   -0.34566  -0.34205  -0.34020  -0.33919  -0.33798
 Alpha  occ. eigenvalues --   -0.33423  -0.32332  -0.31988  -0.31208  -0.30569
 Alpha  occ. eigenvalues --   -0.30284  -0.29378  -0.28478
 Alpha virt. eigenvalues --   -0.12237  -0.12071  -0.09326  -0.08600  -0.07719
 Alpha virt. eigenvalues --   -0.07638  -0.07369  -0.06346  -0.05070  -0.04428
 Alpha virt. eigenvalues --   -0.03951  -0.03162  -0.02498  -0.02199  -0.01602

 Mulliken charges:
               1
     1  N   -0.764976
     2  H    0.440085
     3  H    0.400044
     4  H    0.423430
     5  C   -0.109139
     6  H    0.199022
     7  C    0.658880
     8  C   -0.469884
     9  H    0.214847
    10  H    0.183670
    11  H    0.200277
    12  O   -0.528813
    13  N   -0.597585
    14  H    0.362118
    15  C   -0.063362
    16  H    0.196587
    17  C    0.639859
    18  C   -0.369970
    19  H    0.180095
    20  H    0.182091
    21  O   -0.544927
    22  C    0.107504
    23  C   -0.077053
    24  H    0.168954
    25  C    0.146005
    26  C    0.218550
    27  C   -0.188135
    28  H    0.143472
    29  N   -0.723192
    30  H    0.357226
    31  C   -0.142166
    32  H    0.156934
    33  C   -0.188229
    34  H    0.143413
    35  C   -0.132927
    36  H    0.155565
    37  N   -0.629272
    38  H    0.360046
    39  C   -0.035843
    40  H    0.189350
    41  C    0.608871
    42  C   -0.268185
    43  H    0.184024
    44  H    0.130641
    45  O   -0.540746
    46  C   -0.407045
    47  H    0.161620
    48  H    0.180287
    49  C    0.633812
    50  O   -0.606794
    51  O   -0.583732
    52  N   -0.614369
    53  H    0.359266
    54  C   -0.063846
    55  H    0.215072
    56  C    0.612827
    57  C   -0.104236
    58  H    0.142018
    59  O   -0.578517
    60  C   -0.449705
    61  H    0.145021
    62  H    0.160372
    63  H    0.163948
    64  C   -0.480867
    65  H    0.149528
    66  H    0.163203
    67  H    0.169413
    68  N   -0.598379
    69  H    0.361816
    70  C   -0.073607
    71  H    0.189474
    72  C    0.615274
    73  C    0.103134
    74  H    0.165372
    75  O   -0.533522
    76  C   -0.445954
    77  H    0.149513
    78  H    0.147852
    79  H    0.176827
    80  O   -0.644942
    81  H    0.417889
    82  N   -0.654525
    83  H    0.383550
    84  C   -0.014140
    85  H    0.174349
    86  C    0.606019
    87  C   -0.082013
    88  H    0.140428
    89  O   -0.595137
    90  C   -0.480032
    91  H    0.151236
    92  H    0.175939
    93  H    0.164452
    94  C   -0.449439
    95  H    0.168913
    96  H    0.153234
    97  H    0.142771
    98  N   -0.567682
    99  H    0.361256
   100  C   -0.125357
   101  H    0.211718
   102  C    0.617764
   103  C   -0.273303
   104  H    0.176844
   105  H    0.150541
   106  O   -0.588274
   107  C   -0.314828
   108  H    0.149808
   109  H    0.202767
   110  C   -0.292218
   111  H    0.155473
   112  H    0.165845
   113  C   -0.169337
   114  H    0.185476
   115  H    0.180441
   116  N   -0.829578
   117  H    0.441166
   118  H    0.432339
   119  H    0.395961
   120  O   -0.485308
   121  H    0.457702
 Sum of Mulliken charges =   1.00000

 Dipole moment (field-independent basis, Debye):
    X=            -19.7996    Y=             -3.9831    Z=            -25.7121  Tot=             32.6956
 Quadrupole moment (field-independent basis, Debye-Ang):
   XX=           -206.6586   YY=           -255.5959   ZZ=           -183.3990
   XY=            129.0086   XZ=            110.1898   YZ=             97.4483

 Normal termination of Gaussian 16 at Sun Jul 10 13:37:30 2022.
