 Gaussian 16, Revision C.01,
 Gaussian 16:  ES64L-G16RevC.01  3-Jul-2019

 ----------------------------------------------------------------------
 # B3LYP/6-31G* empiricaldispersion=gd3bj guess=read geom=check nosymm
 integral(ultrafinegrid)
 ----------------------------------------------------------------------

 ------------------------------------------------------
 Candidate Structure: Conf:727 Charge calc in gas phase
 ------------------------------------------------------
 Structure from the checkpoint file:  "conf-727.chk"
 Charge =  1 Multiplicity = 1

                          Input orientation:
 ---------------------------------------------------------------------
 Center     Atomic      Atomic             Coordinates (Angstroms)
 Number     Number       Type             X           Y           Z
 ---------------------------------------------------------------------
      1          7           0       -5.546653   -1.750710   -0.897390
      2          1           0       -5.151412   -0.821345   -0.670130
      3          1           0       -6.431763   -1.911342   -0.411382
      4          1           0       -5.712364   -1.719887   -1.933643
      5          6           0       -4.475997   -2.749136   -0.521204
      6          1           0       -4.461108   -2.787666    0.573377
      7          6           0       -3.187135   -2.047921   -0.995680
      8          6           0       -4.770037   -4.123487   -1.104197
      9          1           0       -4.043542   -4.849735   -0.724511
     10          1           0       -5.760148   -4.473110   -0.794475
     11          1           0       -4.724196   -4.111153   -2.197625
     12          8           0       -3.212173   -0.805178   -1.070867
     13          7           0       -2.158497   -2.817834   -1.328898
     14          1           0       -2.188406   -3.804778   -1.088016
     15          6           0       -0.846872   -2.278947   -1.738185
     16          1           0       -0.698737   -1.353195   -1.173412
     17          6           0       -0.889750   -1.922535   -3.233915
     18          6           0        0.275300   -3.256759   -1.372284
     19          1           0        0.249105   -4.114259   -2.053421
     20          1           0        1.218827   -2.737556   -1.562356
     21          8           0       -0.184904   -2.452705   -4.080528
     22          6           0        0.124190   -3.672833    0.058398
     23          6           0        0.504112   -2.957833    1.176757
     24          1           0        1.086728   -2.048193    1.236973
     25          6           0       -0.692848   -4.756058    0.536023
     26          6           0       -0.751594   -4.631156    1.960044
     27          6           0       -1.414777   -5.791109   -0.092660
     28          1           0       -1.342300   -5.946473   -1.168809
     29          7           0       -0.009440   -3.531702    2.313032
     30          1           0        0.289022   -3.213901    3.260075
     31          6           0       -2.212060   -6.519602    2.094873
     32          1           0       -2.799739   -7.219730    2.681140
     33          6           0       -1.498480   -5.517641    2.744215
     34          1           0       -1.523326   -5.417822    3.825161
     35          6           0       -2.173507   -6.657472    0.690938
     36          1           0       -2.716718   -7.472668    0.220748
     37          7           0       -1.783947   -0.930508   -3.506328
     38          1           0       -2.245350   -0.490861   -2.713784
     39          6           0       -1.849348   -0.229492   -4.779427
     40          1           0       -1.450784   -0.909090   -5.539501
     41          6           0       -0.944087    1.027508   -4.660512
     42          6           0       -3.309448    0.137225   -5.059587
     43          1           0       -3.642143    0.819403   -4.268786
     44          1           0       -3.391268    0.695443   -5.994128
     45          8           0       -1.394257    2.163086   -4.758634
     46          6           0       -4.190515   -1.139208   -5.092245
     47          1           0       -4.218546   -1.552064   -6.105418
     48          1           0       -3.773673   -1.891362   -4.419756
     49          6           0       -5.595913   -0.864708   -4.638241
     50          8           0       -6.078659   -1.183660   -3.553911
     51          8           0       -6.309337   -0.186758   -5.539050
     52          7           0        0.338789    0.709160   -4.339877
     53          1           0        0.580094   -0.278959   -4.273919
     54          6           0        1.287629    1.553541   -3.627578
     55          1           0        1.785598    2.244042   -4.323668
     56          6           0        2.334381    0.566464   -3.063370
     57          6           0        0.610676    2.409617   -2.509187
     58          1           0       -0.165556    2.972794   -3.033167
     59          8           0        2.151930   -0.646359   -3.077104
     60          6           0       -0.043000    1.552054   -1.421045
     61          1           0        0.697415    0.934560   -0.902054
     62          1           0       -0.534326    2.192815   -0.680379
     63          1           0       -0.810413    0.898302   -1.838050
     64          6           0        1.565830    3.429464   -1.869465
     65          1           0        2.235931    2.927454   -1.162734
     66          1           0        2.162541    3.969056   -2.617607
     67          1           0        0.980288    4.173017   -1.315559
     68          7           0        3.453799    1.120622   -2.535413
     69          1           0        3.594973    2.118326   -2.560083
     70          6           0        4.400607    0.351954   -1.762573
     71          1           0        5.033552   -0.254493   -2.424745
     72          6           0        3.678920   -0.548777   -0.734185
     73          6           0        5.279303    1.313374   -0.899182
     74          1           0        4.801582    1.409035    0.075085
     75          8           0        2.635554   -0.183337   -0.199206
     76          6           0        6.697341    0.820313   -0.690440
     77          1           0        6.673607   -0.094815   -0.096471
     78          1           0        7.207033    0.626210   -1.642744
     79          1           0        7.273357    1.555994   -0.120221
     80          8           0        5.271720    2.667276   -1.445015
     81          1           0        6.013362    2.770887   -2.063973
     82          7           0        4.363806   -1.652473   -0.365211
     83          1           0        5.238930   -1.852737   -0.828239
     84          6           0        4.131632   -2.261539    0.943060
     85          1           0        3.162613   -2.766619    0.913953
     86          6           0        4.068630   -1.121410    1.998894
     87          6           0        5.208974   -3.327108    1.244802
     88          1           0        5.186841   -4.023847    0.393867
     89          8           0        4.786900   -0.113546    1.874597
     90          6           0        6.624756   -2.745752    1.362439
     91          1           0        6.675515   -1.991314    2.152839
     92          1           0        6.968413   -2.275295    0.432401
     93          1           0        7.338049   -3.542199    1.597228
     94          6           0        4.836969   -4.117769    2.506051
     95          1           0        4.880467   -3.486847    3.399402
     96          1           0        5.532442   -4.950832    2.647913
     97          1           0        3.824516   -4.530735    2.437956
     98          7           0        3.182472   -1.347622    2.965328
     99          1           0        2.686382   -2.245266    3.040058
    100          6           0        2.640869   -0.464655    3.997293
    101          1           0        3.385062   -0.293780    4.786716
    102          6           0        1.431959   -1.268629    4.638442
    103          6           0        2.133569    0.879153    3.457374
    104          1           0        1.352239    1.198808    4.150771
    105          1           0        1.652147    0.686381    2.490102
    106          8           0        0.672638   -0.632653    5.370388
    107          6           0        3.203797    1.980785    3.306171
    108          1           0        3.124870    2.706255    4.126655
    109          1           0        4.198260    1.531121    3.347365
    110          6           0        3.075761    2.706450    1.960027
    111          1           0        3.103636    1.953486    1.164554
    112          1           0        2.106885    3.222655    1.891397
    113          6           0        4.200575    3.713810    1.792151
    114          1           0        5.181960    3.240081    1.868120
    115          1           0        4.137545    4.517400    2.529604
    116          7           0        4.158454    4.378663    0.416217
    117          1           0        4.647908    5.278494    0.413515
    118          1           0        4.602468    3.773785   -0.321141
    119          1           0        3.187126    4.547266    0.132111
    120          8           0        1.392633   -2.500739    4.296972
    121          1           0       -7.196331   -0.020953   -5.164834
 ---------------------------------------------------------------------

 SCF Done:  E(RB3LYP) =  -2843.90513037     A.U. after    3 cycles

 Alpha  occ. eigenvalues --  -19.30836 -19.30418 -19.26371 -19.24658 -19.20580
 Alpha  occ. eigenvalues --  -19.19834 -19.19814 -19.19220 -19.16552 -19.11090
 Alpha  occ. eigenvalues --  -19.09640 -14.57916 -14.56815 -14.47804 -14.45115
 Alpha  occ. eigenvalues --  -14.43876 -14.43696 -14.42458 -14.40351 -14.39162
 Alpha  occ. eigenvalues --  -10.44034 -10.41541 -10.38642 -10.37570 -10.37014
 Alpha  occ. eigenvalues --  -10.36705 -10.36368 -10.36206 -10.35903 -10.33509
 Alpha  occ. eigenvalues --  -10.33239 -10.31842 -10.31776 -10.31532 -10.31100
 Alpha  occ. eigenvalues --  -10.29700 -10.29134 -10.28608 -10.28599 -10.28394
 Alpha  occ. eigenvalues --  -10.28245 -10.27996 -10.27750 -10.26509 -10.26139
 Alpha  occ. eigenvalues --  -10.26104 -10.25626 -10.25029 -10.24608 -10.24478
 Alpha  occ. eigenvalues --  -10.24435 -10.24026 -10.23984 -10.23837 -10.23826
 Alpha  occ. eigenvalues --  -10.23694 -10.23160 -10.22696 -10.22167  -1.22262
 Alpha  occ. eigenvalues --   -1.16971  -1.16685  -1.13234  -1.13035  -1.12310
 Alpha  occ. eigenvalues --   -1.12010  -1.11551  -1.11163  -1.10691  -1.07658
 Alpha  occ. eigenvalues --   -1.04494  -1.03873  -1.01889  -1.01570  -1.01372
 Alpha  occ. eigenvalues --   -1.00316  -0.99385  -0.96679  -0.94715  -0.91274
 Alpha  occ. eigenvalues --   -0.89954  -0.89676  -0.89510  -0.89009  -0.88298
 Alpha  occ. eigenvalues --   -0.86930  -0.86685  -0.83786  -0.82563  -0.82086
 Alpha  occ. eigenvalues --   -0.81455  -0.79292  -0.79232  -0.78384  -0.77947
 Alpha  occ. eigenvalues --   -0.77222  -0.76899  -0.75881  -0.74387  -0.74197
 Alpha  occ. eigenvalues --   -0.73598  -0.72782  -0.72307  -0.71592  -0.71179
 Alpha  occ. eigenvalues --   -0.70968  -0.70119  -0.69553  -0.68790  -0.68609
 Alpha  occ. eigenvalues --   -0.67996  -0.67261  -0.66908  -0.66843  -0.65153
 Alpha  occ. eigenvalues --   -0.64363  -0.63929  -0.63772  -0.63450  -0.62635
 Alpha  occ. eigenvalues --   -0.62210  -0.61628  -0.61369  -0.60809  -0.60538
 Alpha  occ. eigenvalues --   -0.60232  -0.59908  -0.59428  -0.59087  -0.58613
 Alpha  occ. eigenvalues --   -0.58087  -0.57741  -0.57455  -0.57065  -0.56717
 Alpha  occ. eigenvalues --   -0.56147  -0.55894  -0.55659  -0.55317  -0.54859
 Alpha  occ. eigenvalues --   -0.54612  -0.53955  -0.53668  -0.53463  -0.52991
 Alpha  occ. eigenvalues --   -0.52784  -0.52597  -0.52274  -0.52013  -0.51626
 Alpha  occ. eigenvalues --   -0.51574  -0.51146  -0.50979  -0.50651  -0.50524
 Alpha  occ. eigenvalues --   -0.50326  -0.50224  -0.49926  -0.49497  -0.49323
 Alpha  occ. eigenvalues --   -0.49105  -0.49049  -0.48688  -0.48594  -0.48498
 Alpha  occ. eigenvalues --   -0.48261  -0.47656  -0.47463  -0.47257  -0.46617
 Alpha  occ. eigenvalues --   -0.46412  -0.46325  -0.46038  -0.45719  -0.45630
 Alpha  occ. eigenvalues --   -0.45536  -0.45466  -0.45301  -0.45113  -0.44952
 Alpha  occ. eigenvalues --   -0.44532  -0.44391  -0.44047  -0.43812  -0.43649
 Alpha  occ. eigenvalues --   -0.43443  -0.43341  -0.42838  -0.42724  -0.42432
 Alpha  occ. eigenvalues --   -0.41976  -0.41611  -0.41186  -0.40957  -0.40650
 Alpha  occ. eigenvalues --   -0.40205  -0.39994  -0.39746  -0.39727  -0.39469
 Alpha  occ. eigenvalues --   -0.39140  -0.38735  -0.38633  -0.38334  -0.38222
 Alpha  occ. eigenvalues --   -0.38117  -0.37127  -0.35595  -0.35469  -0.34386
 Alpha  occ. eigenvalues --   -0.33983  -0.33194  -0.33023  -0.32687  -0.32385
 Alpha  occ. eigenvalues --   -0.31415  -0.30494  -0.29667  -0.27368  -0.26219
 Alpha  occ. eigenvalues --   -0.25999  -0.25205  -0.23790
 Alpha virt. eigenvalues --   -0.11156  -0.10841  -0.09854  -0.07734  -0.07339
 Alpha virt. eigenvalues --   -0.07020  -0.06658  -0.06494  -0.04875  -0.04277
 Alpha virt. eigenvalues --   -0.04022  -0.03301  -0.02947  -0.02654  -0.01731

 Mulliken charges:
               1
     1  N   -0.760540
     2  H    0.417940
     3  H    0.402164
     4  H    0.443773
     5  C   -0.126952
     6  H    0.240697
     7  C    0.667659
     8  C   -0.491068
     9  H    0.220991
    10  H    0.182185
    11  H    0.186365
    12  O   -0.573911
    13  N   -0.606138
    14  H    0.376107
    15  C   -0.082879
    16  H    0.210803
    17  C    0.641148
    18  C   -0.404954
    19  H    0.171471
    20  H    0.206784
    21  O   -0.514853
    22  C    0.024732
    23  C   -0.024149
    24  H    0.185195
    25  C    0.056720
    26  C    0.310932
    27  C   -0.273594
    28  H    0.128370
    29  N   -0.690089
    30  H    0.403148
    31  C   -0.162441
    32  H    0.133694
    33  C   -0.162742
    34  H    0.156843
    35  C   -0.147971
    36  H    0.126367
    37  N   -0.640959
    38  H    0.389265
    39  C   -0.087303
    40  H    0.198953
    41  C    0.624358
    42  C   -0.285140
    43  H    0.166542
    44  H    0.194629
    45  O   -0.520687
    46  C   -0.339489
    47  H    0.198205
    48  H    0.177523
    49  C    0.584227
    50  O   -0.522874
    51  O   -0.518635
    52  N   -0.652985
    53  H    0.396411
    54  C   -0.025345
    55  H    0.161196
    56  C    0.634965
    57  C   -0.088832
    58  H    0.197251
    59  O   -0.526092
    60  C   -0.504956
    61  H    0.209614
    62  H    0.146130
    63  H    0.141981
    64  C   -0.512375
    65  H    0.137469
    66  H    0.142301
    67  H    0.156298
    68  N   -0.639900
    69  H    0.342388
    70  C   -0.028799
    71  H    0.164043
    72  C    0.660936
    73  C    0.068819
    74  H    0.215972
    75  O   -0.536352
    76  C   -0.501193
    77  H    0.215608
    78  H    0.154613
    79  H    0.164652
    80  O   -0.677993
    81  H    0.427087
    82  N   -0.614175
    83  H    0.331163
    84  C   -0.022561
    85  H    0.177416
    86  C    0.651378
    87  C   -0.120697
    88  H    0.142483
    89  O   -0.606509
    90  C   -0.456984
    91  H    0.176790
    92  H    0.117273
    93  H    0.161067
    94  C   -0.464436
    95  H    0.171789
    96  H    0.156132
    97  H    0.165632
    98  N   -0.631557
    99  H    0.372870
   100  C   -0.056920
   101  H    0.156706
   102  C    0.585727
   103  C   -0.291012
   104  H    0.187791
   105  H    0.143068
   106  O   -0.544829
   107  C   -0.263636
   108  H    0.134779
   109  H    0.180764
   110  C   -0.325245
   111  H    0.211391
   112  H    0.146068
   113  C   -0.198431
   114  H    0.217102
   115  H    0.204388
   116  N   -0.787662
   117  H    0.401781
   118  H    0.456802
   119  H    0.411030
   120  O   -0.637627
   121  H    0.427559
 Sum of Mulliken charges =   1.00000

 Dipole moment (field-independent basis, Debye):
    X=             -1.1020    Y=              8.7953    Z=            -13.1958  Tot=             15.8965
 Quadrupole moment (field-independent basis, Debye-Ang):
   XX=           -119.5910   YY=           -263.4551   ZZ=           -381.2463
   XY=            102.8583   XZ=             18.5169   YZ=             19.5810

 Normal termination of Gaussian 16 at Sun Jul 10 13:39:30 2022.
