 Gaussian 16, Revision C.01,
 Gaussian 16:  ES64L-G16RevC.01  3-Jul-2019

 ----------------------------------------------------------------------
 # B3LYP/6-31G* empiricaldispersion=gd3bj guess=read geom=check nosymm
 integral(ultrafinegrid)
 ----------------------------------------------------------------------

 ------------------------------------------------------
 Candidate Structure: Conf:883 Charge calc in gas phase
 ------------------------------------------------------
 Structure from the checkpoint file:  "conf-883.chk"
 Charge =  1 Multiplicity = 1

                          Input orientation:
 ---------------------------------------------------------------------
 Center     Atomic      Atomic             Coordinates (Angstroms)
 Number     Number       Type             X           Y           Z
 ---------------------------------------------------------------------
      1          7           0       -1.698127    3.142447   -7.285651
      2          1           0       -1.624049    3.567201   -8.213229
      3          1           0       -1.272947    2.192063   -7.306388
      4          1           0       -1.146776    3.670551   -6.573681
      5          6           0       -3.113890    3.137624   -6.747520
      6          1           0       -3.589041    4.048827   -7.123819
      7          6           0       -2.897698    3.252781   -5.217950
      8          6           0       -3.870515    1.888586   -7.190227
      9          1           0       -4.934420    1.998299   -6.962555
     10          1           0       -3.793059    1.744265   -8.272163
     11          1           0       -3.505965    0.998213   -6.669588
     12          8           0       -1.762842    3.538588   -4.821882
     13          7           0       -3.938750    2.998511   -4.407160
     14          1           0       -4.747034    2.547244   -4.819593
     15          6           0       -3.632549    2.542117   -3.041401
     16          1           0       -2.850388    3.196465   -2.660034
     17          6           0       -3.092304    1.108888   -3.198399
     18          6           0       -4.856224    2.586915   -2.111379
     19          1           0       -5.138343    3.636833   -1.965151
     20          1           0       -5.698759    2.084458   -2.601929
     21          8           0       -3.617526    0.321849   -3.988521
     22          6           0       -4.551008    1.891522   -0.815579
     23          6           0       -5.200849    0.783539   -0.327940
     24          1           0       -6.067316    0.268405   -0.718879
     25          6           0       -3.450283    2.155895    0.084576
     26          6           0       -3.496361    1.157685    1.098106
     27          6           0       -2.409453    3.104630    0.120812
     28          1           0       -2.354261    3.903645   -0.613648
     29          7           0       -4.573677    0.337629    0.817455
     30          1           0       -4.916416   -0.398338    1.415622
     31          6           0       -1.530003    2.035905    2.123793
     32          1           0       -0.768846    2.012404    2.896303
     33          6           0       -2.555951    1.097566    2.131882
     34          1           0       -2.628465    0.348427    2.915999
     35          6           0       -1.453244    3.026418    1.125009
     36          1           0       -0.628653    3.729920    1.148312
     37          7           0       -1.979977    0.846811   -2.489988
     38          1           0       -1.641720    1.512824   -1.800173
     39          6           0       -1.316254   -0.448457   -2.481824
     40          1           0       -2.075298   -1.224442   -2.617657
     41          6           0       -0.662535   -0.504377   -1.095549
     42          6           0       -0.235215   -0.556751   -3.587178
     43          1           0        0.655041   -0.012357   -3.264568
     44          1           0        0.062638   -1.603815   -3.702335
     45          8           0       -0.144047    0.528805   -0.651290
     46          6           0       -0.704256    0.020000   -4.923844
     47          1           0       -1.522322   -0.565377   -5.356495
     48          1           0       -1.098700    1.028819   -4.771120
     49          6           0        0.403296    0.144906   -5.929237
     50          8           0        1.552249   -0.189502   -5.811961
     51          8           0       -0.042614    0.750890   -7.099083
     52          7           0       -0.701820   -1.642404   -0.390869
     53          1           0       -1.138933   -2.465641   -0.781615
     54          6           0       -0.300530   -1.652812    1.024147
     55          1           0       -0.788478   -0.789151    1.487087
     56          6           0        1.228964   -1.489224    1.146450
     57          6           0       -0.783534   -2.935604    1.718685
     58          1           0       -0.307173   -3.783215    1.208904
     59          8           0        1.990715   -2.429911    0.886728
     60          6           0       -0.326684   -2.940489    3.183464
     61          1           0       -0.714811   -2.065194    3.719170
     62          1           0       -0.698719   -3.834837    3.692135
     63          1           0        0.763478   -2.940615    3.263125
     64          6           0       -2.310821   -3.069543    1.634403
     65          1           0       -2.797752   -2.221376    2.131613
     66          1           0       -2.687459   -3.108023    0.605831
     67          1           0       -2.638389   -3.985496    2.135312
     68          7           0        1.597686   -0.268085    1.564933
     69          1           0        0.914216    0.485569    1.474134
     70          6           0        2.928277    0.248583    1.840308
     71          1           0        3.255713   -0.102590    2.827350
     72          6           0        2.731273    1.780078    1.904151
     73          6           0        4.061207   -0.137971    0.799382
     74          1           0        4.580628    0.782776    0.520877
     75          8           0        1.660429    2.283641    1.554132
     76          6           0        5.045826   -1.132085    1.406751
     77          1           0        5.523668   -0.715847    2.301616
     78          1           0        4.529214   -2.055179    1.689462
     79          1           0        5.827341   -1.371019    0.680293
     80          8           0        3.531026   -0.633569   -0.425892
     81          1           0        3.119284   -1.499188   -0.211138
     82          7           0        3.778059    2.521301    2.324519
     83          1           0        4.667199    2.049851    2.431958
     84          6           0        3.849976    3.939119    1.938989
     85          1           0        3.070524    4.484899    2.479351
     86          6           0        3.572916    4.011284    0.426348
     87          6           0        5.236495    4.518313    2.299338
     88          1           0        5.971796    3.988030    1.675576
     89          8           0        3.996034    3.066140   -0.292775
     90          6           0        5.310747    6.017691    1.978578
     91          1           0        4.614641    6.580517    2.612709
     92          1           0        5.068505    6.265842    0.942442
     93          1           0        6.318901    6.388160    2.189502
     94          6           0        5.570978    4.281853    3.779669
     95          1           0        4.829116    4.769038    4.423432
     96          1           0        6.549788    4.712331    4.013454
     97          1           0        5.602845    3.221893    4.054736
     98          7           0        2.885841    5.042053   -0.033567
     99          1           0        2.867334    5.937552    0.495911
    100          6           0        2.793591    5.416247   -1.444238
    101          1           0        3.494499    4.815672   -2.026454
    102          6           0        3.224780    6.946099   -1.511614
    103          6           0        1.361264    5.333945   -1.986102
    104          1           0        1.394695    5.781174   -2.985778
    105          1           0        0.752571    6.009290   -1.370143
    106          8           0        3.329312    7.399818   -2.658407
    107          6           0        0.647126    3.976483   -2.028184
    108          1           0        0.718855    3.482459   -1.050403
    109          1           0       -0.423186    4.176711   -2.173449
    110          6           0        1.047118    3.011102   -3.160954
    111          1           0        0.225099    2.300429   -3.305607
    112          1           0        1.135162    3.572500   -4.099166
    113          6           0        2.334219    2.206603   -2.974537
    114          1           0        3.224137    2.835794   -3.023149
    115          1           0        2.419814    1.430544   -3.740512
    116          7           0        2.356340    1.556271   -1.627401
    117          1           0        2.875346    0.662825   -1.561245
    118          1           0        2.882380    2.209403   -0.973718
    119          1           0        1.415867    1.365970   -1.251719
    120          8           0        3.345361    7.483082   -0.373672
    121          1           0        0.725635    0.744224   -7.704251
 ---------------------------------------------------------------------

 SCF Done:  E(RB3LYP) =  -2843.91648104     A.U. after    1 cycles

 Alpha  occ. eigenvalues --  -19.34013 -19.28625 -19.27551 -19.24154 -19.23371
 Alpha  occ. eigenvalues --  -19.23320 -19.21170 -19.20982 -19.18263 -19.08374
 Alpha  occ. eigenvalues --  -19.07295 -14.60584 -14.51056 -14.48671 -14.48037
 Alpha  occ. eigenvalues --  -14.47595 -14.47025 -14.44820 -14.44163 -14.40106
 Alpha  occ. eigenvalues --  -10.45448 -10.45267 -10.42391 -10.41234 -10.40371
 Alpha  occ. eigenvalues --  -10.38257 -10.37622 -10.35828 -10.35541 -10.34639
 Alpha  occ. eigenvalues --  -10.34542 -10.33126 -10.32655 -10.32542 -10.32392
 Alpha  occ. eigenvalues --  -10.31780 -10.31639 -10.31216 -10.30773 -10.30645
 Alpha  occ. eigenvalues --  -10.29733 -10.29164 -10.27781 -10.27556 -10.27543
 Alpha  occ. eigenvalues --  -10.27440 -10.27393 -10.27105 -10.26565 -10.26244
 Alpha  occ. eigenvalues --  -10.26045 -10.25989 -10.25591 -10.25276 -10.25098
 Alpha  occ. eigenvalues --  -10.24047 -10.23262 -10.22628 -10.21087  -1.23788
 Alpha  occ. eigenvalues --   -1.21030  -1.16656  -1.15461  -1.15195  -1.14685
 Alpha  occ. eigenvalues --   -1.13609  -1.12673  -1.10321  -1.09428  -1.07724
 Alpha  occ. eigenvalues --   -1.06869  -1.04807  -1.04541  -1.04206  -1.01605
 Alpha  occ. eigenvalues --   -1.01518  -1.00637  -0.96779  -0.94801  -0.93060
 Alpha  occ. eigenvalues --   -0.92777  -0.92420  -0.91002  -0.90727  -0.87551
 Alpha  occ. eigenvalues --   -0.87223  -0.87079  -0.85643  -0.85323  -0.82639
 Alpha  occ. eigenvalues --   -0.82005  -0.81713  -0.81431  -0.80858  -0.79401
 Alpha  occ. eigenvalues --   -0.78377  -0.77729  -0.77356  -0.76414  -0.75565
 Alpha  occ. eigenvalues --   -0.74900  -0.74105  -0.73202  -0.72403  -0.71845
 Alpha  occ. eigenvalues --   -0.71078  -0.70882  -0.70321  -0.69920  -0.69764
 Alpha  occ. eigenvalues --   -0.68492  -0.67999  -0.67689  -0.66794  -0.66166
 Alpha  occ. eigenvalues --   -0.65757  -0.65268  -0.65134  -0.64487  -0.63796
 Alpha  occ. eigenvalues --   -0.63418  -0.63015  -0.62895  -0.62318  -0.62008
 Alpha  occ. eigenvalues --   -0.61720  -0.61668  -0.61460  -0.60659  -0.60357
 Alpha  occ. eigenvalues --   -0.59781  -0.59456  -0.59030  -0.58163  -0.57964
 Alpha  occ. eigenvalues --   -0.57239  -0.57122  -0.56816  -0.56654  -0.56060
 Alpha  occ. eigenvalues --   -0.55890  -0.55402  -0.55211  -0.54840  -0.54553
 Alpha  occ. eigenvalues --   -0.54324  -0.53936  -0.53682  -0.53607  -0.53267
 Alpha  occ. eigenvalues --   -0.53093  -0.52867  -0.52618  -0.52362  -0.52039
 Alpha  occ. eigenvalues --   -0.51692  -0.51618  -0.51339  -0.51138  -0.50837
 Alpha  occ. eigenvalues --   -0.50702  -0.50212  -0.50047  -0.49879  -0.49864
 Alpha  occ. eigenvalues --   -0.49483  -0.49106  -0.48808  -0.48513  -0.48196
 Alpha  occ. eigenvalues --   -0.48072  -0.47533  -0.47405  -0.47253  -0.46992
 Alpha  occ. eigenvalues --   -0.46831  -0.46689  -0.46538  -0.46202  -0.45825
 Alpha  occ. eigenvalues --   -0.45377  -0.44639  -0.44557  -0.44329  -0.43998
 Alpha  occ. eigenvalues --   -0.43547  -0.43492  -0.43166  -0.43126  -0.42883
 Alpha  occ. eigenvalues --   -0.42719  -0.42537  -0.42196  -0.42123  -0.41999
 Alpha  occ. eigenvalues --   -0.41772  -0.41299  -0.40945  -0.39992  -0.39615
 Alpha  occ. eigenvalues --   -0.39497  -0.39043  -0.38687  -0.38569  -0.38509
 Alpha  occ. eigenvalues --   -0.38159  -0.37550  -0.37340  -0.36996  -0.36856
 Alpha  occ. eigenvalues --   -0.35981  -0.35718  -0.35105  -0.34448  -0.34390
 Alpha  occ. eigenvalues --   -0.33653  -0.32614  -0.31454  -0.30769  -0.29375
 Alpha  occ. eigenvalues --   -0.23485  -0.23174  -0.21414
 Alpha virt. eigenvalues --   -0.14983  -0.12427  -0.11026  -0.10867  -0.10122
 Alpha virt. eigenvalues --   -0.09265  -0.08375  -0.07087  -0.06534  -0.06216
 Alpha virt. eigenvalues --   -0.05952  -0.04580  -0.04298  -0.03911  -0.03459

 Mulliken charges:
               1
     1  N   -0.775249
     2  H    0.411670
     3  H    0.441726
     4  H    0.429838
     5  C   -0.118735
     6  H    0.237333
     7  C    0.657456
     8  C   -0.494196
     9  H    0.204101
    10  H    0.192597
    11  H    0.218694
    12  O   -0.523043
    13  N   -0.572593
    14  H    0.356222
    15  C   -0.089985
    16  H    0.205965
    17  C    0.627708
    18  C   -0.355128
    19  H    0.185952
    20  H    0.156625
    21  O   -0.563661
    22  C    0.045036
    23  C    0.009838
    24  H    0.166722
    25  C    0.075356
    26  C    0.317174
    27  C   -0.261008
    28  H    0.139484
    29  N   -0.690085
    30  H    0.340763
    31  C   -0.153021
    32  H    0.148996
    33  C   -0.183398
    34  H    0.140352
    35  C   -0.114336
    36  H    0.169429
    37  N   -0.618743
    38  H    0.399205
    39  C   -0.032664
    40  H    0.181033
    41  C    0.625761
    42  C   -0.277725
    43  H    0.173193
    44  H    0.180652
    45  O   -0.554066
    46  C   -0.389535
    47  H    0.214260
    48  H    0.187987
    49  C    0.609317
    50  O   -0.419858
    51  O   -0.627577
    52  N   -0.610064
    53  H    0.348012
    54  C   -0.032101
    55  H    0.183420
    56  C    0.623693
    57  C   -0.121771
    58  H    0.165164
    59  O   -0.571134
    60  C   -0.466616
    61  H    0.147118
    62  H    0.167245
    63  H    0.179237
    64  C   -0.456062
    65  H    0.141994
    66  H    0.129461
    67  H    0.175268
    68  N   -0.637218
    69  H    0.407533
    70  C   -0.039567
    71  H    0.184928
    72  C    0.598862
    73  C    0.102685
    74  H    0.183798
    75  O   -0.546906
    76  C   -0.481496
    77  H    0.145435
    78  H    0.179950
    79  H    0.175654
    80  O   -0.672390
    81  H    0.436816
    82  N   -0.599538
    83  H    0.339869
    84  C   -0.007019
    85  H    0.174627
    86  C    0.617681
    87  C   -0.127115
    88  H    0.141956
    89  O   -0.631831
    90  C   -0.473619
    91  H    0.151864
    92  H    0.204561
    93  H    0.154312
    94  C   -0.444343
    95  H    0.156041
    96  H    0.165665
    97  H    0.129101
    98  N   -0.558744
    99  H    0.366011
   100  C   -0.116505
   101  H    0.147104
   102  C    0.599092
   103  C   -0.257154
   104  H    0.161498
   105  H    0.143896
   106  O   -0.576939
   107  C   -0.301373
   108  H    0.159838
   109  H    0.130041
   110  C   -0.296190
   111  H    0.129133
   112  H    0.147456
   113  C   -0.175534
   114  H    0.214448
   115  H    0.176147
   116  N   -0.867988
   117  H    0.416506
   118  H    0.465602
   119  H    0.435206
   120  O   -0.603281
   121  H    0.432731
 Sum of Mulliken charges =   1.00000

 Dipole moment (field-independent basis, Debye):
    X=            -16.5222    Y=             -6.6241    Z=            -21.2293  Tot=             27.7046
 Quadrupole moment (field-independent basis, Debye-Ang):
   XX=           -291.4792   YY=           -443.5970   ZZ=           -116.5950
   XY=            -68.9598   XZ=             89.2628   YZ=            -49.8142

 Normal termination of Gaussian 16 at Sun Jul 10 13:37:56 2022.
