 Gaussian 16, Revision C.01,
 Gaussian 16:  ES64L-G16RevC.01  3-Jul-2019

 ----------------------------------------------------------------------
 # B3LYP/6-31G* empiricaldispersion=gd3bj guess=read geom=check nosymm
 integral(ultrafinegrid)
 ----------------------------------------------------------------------

 ------------------------------------------------------
 Candidate Structure: Conf:156 Charge calc in gas phase
 ------------------------------------------------------
 Structure from the checkpoint file:  "conf-156.chk"
 Charge =  1 Multiplicity = 1

                          Input orientation:
 ---------------------------------------------------------------------
 Center     Atomic      Atomic             Coordinates (Angstroms)
 Number     Number       Type             X           Y           Z
 ---------------------------------------------------------------------
      1          7           0       -3.471112   -4.237468   -5.622206
      2          1           0       -3.810184   -5.075711   -6.098829
      3          1           0       -2.886075   -4.520449   -4.829487
      4          1           0       -2.886474   -3.615791   -6.264040
      5          6           0       -4.566216   -3.281767   -5.188800
      6          1           0       -5.453673   -3.532180   -5.776992
      7          6           0       -3.989040   -1.915092   -5.646591
      8          6           0       -4.834591   -3.375853   -3.691334
      9          1           0       -5.712195   -2.776061   -3.431909
     10          1           0       -5.049260   -4.406562   -3.391705
     11          1           0       -3.981777   -2.985193   -3.127181
     12          8           0       -2.994228   -1.930612   -6.385381
     13          7           0       -4.595040   -0.822480   -5.194025
     14          1           0       -5.400930   -0.918612   -4.585590
     15          6           0       -3.890193    0.451623   -5.154931
     16          1           0       -3.673285    0.770467   -6.178338
     17          6           0       -2.574596    0.245066   -4.371197
     18          6           0       -4.749197    1.532987   -4.427153
     19          1           0       -4.547095    1.468745   -3.351581
     20          1           0       -4.386056    2.512141   -4.750883
     21          8           0       -2.394988   -0.767742   -3.678415
     22          6           0       -6.219882    1.391404   -4.663137
     23          6           0       -6.989457    1.965291   -5.646278
     24          1           0       -6.716339    2.685915   -6.404588
     25          6           0       -7.091750    0.512736   -3.920497
     26          6           0       -8.380031    0.592258   -4.519771
     27          6           0       -6.903000   -0.336823   -2.812548
     28          1           0       -5.944938   -0.376927   -2.299884
     29          7           0       -8.282212    1.487318   -5.565709
     30          1           0       -9.051448    1.801104   -6.137939
     31          6           0       -9.246170   -0.994800   -2.964603
     32          1           0      -10.070786   -1.582911   -2.574397
     33          6           0       -9.464873   -0.153065   -4.049738
     34          1           0      -10.444779   -0.078182   -4.511775
     35          6           0       -7.980828   -1.084812   -2.349389
     36          1           0       -7.855682   -1.727430   -1.482876
     37          7           0       -1.722629    1.272873   -4.449926
     38          1           0       -1.891771    2.030884   -5.114479
     39          6           0       -0.442520    1.318342   -3.739028
     40          1           0       -0.009577    0.311070   -3.780942
     41          6           0       -0.665798    1.678744   -2.250438
     42          6           0        0.512575    2.323633   -4.383630
     43          1           0        0.127879    3.335380   -4.226420
     44          1           0        1.450290    2.269345   -3.823322
     45          8           0       -0.272973    2.747369   -1.777250
     46          6           0        0.805326    2.082125   -5.872212
     47          1           0        1.797034    2.463830   -6.130716
     48          1           0        0.830811    1.008031   -6.105509
     49          6           0       -0.182190    2.718677   -6.826733
     50          8           0       -1.346106    3.005961   -6.585747
     51          8           0        0.362160    2.941430   -8.031631
     52          7           0       -1.302585    0.726483   -1.538192
     53          1           0       -1.538756   -0.137749   -2.019231
     54          6           0       -1.448435    0.778291   -0.079384
     55          1           0       -1.673792    1.815343    0.189379
     56          6           0       -0.063342    0.360748    0.467891
     57          6           0       -2.568562   -0.151480    0.396774
     58          1           0       -2.233183   -1.176952    0.194371
     59          8           0        0.225447   -0.816550    0.664201
     60          6           0       -2.750194   -0.006036    1.912050
     61          1           0       -3.054531    1.014492    2.175754
     62          1           0       -3.525262   -0.689569    2.274149
     63          1           0       -1.822822   -0.239603    2.442297
     64          6           0       -3.882368    0.109733   -0.351641
     65          1           0       -4.209388    1.149653   -0.227865
     66          1           0       -3.782008   -0.088247   -1.424440
     67          1           0       -4.676833   -0.535446    0.040815
     68          7           0        0.804394    1.393631    0.550746
     69          1           0        0.475660    2.347247    0.442037
     70          6           0        2.240798    1.260138    0.656222
     71          1           0        2.476501    0.376503    1.256445
     72          6           0        2.756692    2.543878    1.321279
     73          6           0        2.903467    1.120476   -0.748248
     74          1           0        3.989322    1.104929   -0.596304
     75          8           0        2.064949    3.557497    1.361206
     76          6           0        2.493309   -0.157563   -1.479566
     77          1           0        2.725749   -1.050317   -0.891132
     78          1           0        1.418506   -0.170499   -1.681703
     79          1           0        3.028647   -0.207675   -2.433315
     80          8           0        2.661053    2.275614   -1.543621
     81          1           0        1.717089    2.516342   -1.480494
     82          7           0        4.015072    2.454612    1.812359
     83          1           0        4.587999    1.653335    1.560132
     84          6           0        4.812713    3.629241    2.119719
     85          1           0        4.335304    4.491557    1.641224
     86          6           0        6.193943    3.378757    1.492845
     87          6           0        4.922398    3.905045    3.642626
     88          1           0        5.540240    4.807812    3.749848
     89          8           0        6.514890    2.262769    1.075987
     90          6           0        3.542326    4.195753    4.240310
     91          1           0        2.899425    3.311765    4.177688
     92          1           0        3.035869    5.008126    3.710422
     93          1           0        3.636893    4.471736    5.296297
     94          6           0        5.619262    2.754746    4.377084
     95          1           0        5.044527    1.827740    4.270946
     96          1           0        5.700019    2.977807    5.445947
     97          1           0        6.628510    2.572763    3.992936
     98          7           0        7.024628    4.439721    1.475718
     99          1           0        6.726153    5.354414    1.794567
    100          6           0        8.389954    4.365042    0.989021
    101          1           0        8.836509    3.425534    1.321032
    102          6           0        9.165562    5.532010    1.570844
    103          6           0        8.445443    4.433228   -0.570498
    104          1           0        7.652555    5.118336   -0.893836
    105          1           0        8.168773    3.438584   -0.931452
    106          8           0       10.463172    5.273991    1.649653
    107          6           0        9.791333    4.885404   -1.174793
    108          1           0       10.613000    4.478786   -0.578509
    109          1           0        9.889520    4.445833   -2.173711
    110          6           0        9.924865    6.428243   -1.298559
    111          1           0        9.641829    6.719931   -2.316446
    112          1           0        9.200396    6.925139   -0.642957
    113          6           0       11.316870    7.016671   -1.003159
    114          1           0       11.481288    7.905804   -1.627535
    115          1           0       12.099241    6.294542   -1.261149
    116          7           0       11.481570    7.355918    0.433535
    117          1           0       12.423392    7.701953    0.610496
    118          1           0       10.838184    8.107156    0.683911
    119          1           0       10.975269    6.136424    1.409618
    120          8           0        8.639641    6.608413    1.814285
    121          1           0       -0.329978    3.338351   -8.594793
 ---------------------------------------------------------------------

 SCF Done:  E(RB3LYP) =  -2843.93058639     A.U. after    1 cycles

 Alpha  occ. eigenvalues --  -19.28809 -19.26699 -19.23886 -19.22340 -19.19994
 Alpha  occ. eigenvalues --  -19.19420 -19.18368 -19.17049 -19.16449 -19.16024
 Alpha  occ. eigenvalues --  -19.16019 -14.59796 -14.48953 -14.47266 -14.45452
 Alpha  occ. eigenvalues --  -14.43220 -14.40515 -14.40201 -14.39688 -14.39577
 Alpha  occ. eigenvalues --  -10.43255 -10.41779 -10.40835 -10.39009 -10.36393
 Alpha  occ. eigenvalues --  -10.34848 -10.34681 -10.33709 -10.33030 -10.32947
 Alpha  occ. eigenvalues --  -10.32728 -10.31992 -10.31386 -10.31189 -10.30052
 Alpha  occ. eigenvalues --  -10.29301 -10.28832 -10.28771 -10.28033 -10.28007
 Alpha  occ. eigenvalues --  -10.27934 -10.27848 -10.27800 -10.27429 -10.27374
 Alpha  occ. eigenvalues --  -10.27164 -10.27042 -10.26947 -10.26751 -10.25713
 Alpha  occ. eigenvalues --  -10.24625 -10.23288 -10.23066 -10.22960 -10.22872
 Alpha  occ. eigenvalues --  -10.22417 -10.22371 -10.20729 -10.20328  -1.20101
 Alpha  occ. eigenvalues --   -1.19331  -1.14207  -1.13401  -1.12362  -1.11292
 Alpha  occ. eigenvalues --   -1.10924  -1.08765  -1.08138  -1.07493  -1.07184
 Alpha  occ. eigenvalues --   -1.06191  -1.05802  -1.03852  -1.02454  -0.99870
 Alpha  occ. eigenvalues --   -0.97241  -0.96980  -0.96581  -0.95105  -0.93389
 Alpha  occ. eigenvalues --   -0.93017  -0.90430  -0.88965  -0.87178  -0.86119
 Alpha  occ. eigenvalues --   -0.85008  -0.83821  -0.82864  -0.82604  -0.81886
 Alpha  occ. eigenvalues --   -0.81549  -0.80465  -0.79583  -0.78158  -0.76716
 Alpha  occ. eigenvalues --   -0.76495  -0.74992  -0.74672  -0.74522  -0.73794
 Alpha  occ. eigenvalues --   -0.72882  -0.72294  -0.71647  -0.71433  -0.70991
 Alpha  occ. eigenvalues --   -0.69288  -0.68201  -0.67642  -0.67123  -0.66955
 Alpha  occ. eigenvalues --   -0.66168  -0.65471  -0.64869  -0.64437  -0.64049
 Alpha  occ. eigenvalues --   -0.63744  -0.63376  -0.63335  -0.62606  -0.62475
 Alpha  occ. eigenvalues --   -0.61457  -0.61399  -0.60667  -0.60243  -0.59617
 Alpha  occ. eigenvalues --   -0.59098  -0.58639  -0.58209  -0.57583  -0.57254
 Alpha  occ. eigenvalues --   -0.57046  -0.56441  -0.56118  -0.55709  -0.55586
 Alpha  occ. eigenvalues --   -0.55031  -0.54971  -0.54078  -0.53855  -0.53743
 Alpha  occ. eigenvalues --   -0.53164  -0.53047  -0.52933  -0.52417  -0.52254
 Alpha  occ. eigenvalues --   -0.52162  -0.51751  -0.51647  -0.51472  -0.51267
 Alpha  occ. eigenvalues --   -0.50687  -0.50425  -0.50308  -0.50069  -0.49934
 Alpha  occ. eigenvalues --   -0.49549  -0.49419  -0.49230  -0.49044  -0.48943
 Alpha  occ. eigenvalues --   -0.48528  -0.48124  -0.47738  -0.47518  -0.47363
 Alpha  occ. eigenvalues --   -0.47100  -0.46887  -0.46544  -0.46283  -0.45864
 Alpha  occ. eigenvalues --   -0.45812  -0.45527  -0.45387  -0.45077  -0.44673
 Alpha  occ. eigenvalues --   -0.44561  -0.44487  -0.44246  -0.44036  -0.43518
 Alpha  occ. eigenvalues --   -0.43111  -0.42843  -0.42785  -0.42651  -0.42527
 Alpha  occ. eigenvalues --   -0.41814  -0.41637  -0.41332  -0.41306  -0.41230
 Alpha  occ. eigenvalues --   -0.41125  -0.40763  -0.40713  -0.40216  -0.40079
 Alpha  occ. eigenvalues --   -0.40068  -0.39518  -0.39193  -0.38226  -0.37825
 Alpha  occ. eigenvalues --   -0.37636  -0.37572  -0.37194  -0.37074  -0.37003
 Alpha  occ. eigenvalues --   -0.36888  -0.36777  -0.36496  -0.35897  -0.34366
 Alpha  occ. eigenvalues --   -0.33492  -0.32461  -0.31983  -0.31802  -0.31595
 Alpha  occ. eigenvalues --   -0.31049  -0.30840  -0.30396  -0.29675  -0.29628
 Alpha  occ. eigenvalues --   -0.29285  -0.29044  -0.28645
 Alpha virt. eigenvalues --   -0.12715  -0.10836  -0.10043  -0.08525  -0.08317
 Alpha virt. eigenvalues --   -0.07120  -0.06183  -0.05749  -0.04134  -0.03377
 Alpha virt. eigenvalues --   -0.03088  -0.02805  -0.01909  -0.01291  -0.01254

 Mulliken charges:
               1
     1  N   -0.753121
     2  H    0.413484
     3  H    0.418351
     4  H    0.435456
     5  C   -0.115012
     6  H    0.228357
     7  C    0.677539
     8  C   -0.505363
     9  H    0.212338
    10  H    0.183513
    11  H    0.218404
    12  O   -0.543492
    13  N   -0.608134
    14  H    0.373599
    15  C   -0.043199
    16  H    0.196394
    17  C    0.651020
    18  C   -0.414576
    19  H    0.189866
    20  H    0.188977
    21  O   -0.584202
    22  C    0.067852
    23  C    0.014201
    24  H    0.173105
    25  C    0.036061
    26  C    0.323900
    27  C   -0.252977
    28  H    0.157697
    29  N   -0.686553
    30  H    0.345558
    31  C   -0.153050
    32  H    0.149618
    33  C   -0.155685
    34  H    0.149163
    35  C   -0.150230
    36  H    0.140858
    37  N   -0.633145
    38  H    0.398583
    39  C   -0.068927
    40  H    0.180421
    41  C    0.633861
    42  C   -0.319032
    43  H    0.189281
    44  H    0.203362
    45  O   -0.538998
    46  C   -0.373244
    47  H    0.206390
    48  H    0.190907
    49  C    0.602698
    50  O   -0.496987
    51  O   -0.540894
    52  N   -0.627927
    53  H    0.377030
    54  C   -0.030977
    55  H    0.166679
    56  C    0.626709
    57  C   -0.099588
    58  H    0.149105
    59  O   -0.546165
    60  C   -0.460523
    61  H    0.147253
    62  H    0.148319
    63  H    0.178811
    64  C   -0.469593
    65  H    0.154071
    66  H    0.137785
    67  H    0.145688
    68  N   -0.610219
    69  H    0.367442
    70  C   -0.103870
    71  H    0.180017
    72  C    0.642198
    73  C    0.139656
    74  H    0.155408
    75  O   -0.536958
    76  C   -0.458924
    77  H    0.160761
    78  H    0.136582
    79  H    0.145628
    80  O   -0.660049
    81  H    0.426991
    82  N   -0.606428
    83  H    0.354167
    84  C   -0.069515
    85  H    0.179307
    86  C    0.631196
    87  C   -0.072051
    88  H    0.129492
    89  O   -0.556818
    90  C   -0.442276
    91  H    0.153938
    92  H    0.158153
    93  H    0.143288
    94  C   -0.461428
    95  H    0.150133
    96  H    0.151387
    97  H    0.157681
    98  N   -0.619456
    99  H    0.350759
   100  C    0.000213
   101  H    0.186973
   102  C    0.572300
   103  C   -0.281869
   104  H    0.147160
   105  H    0.172359
   106  O   -0.601451
   107  C   -0.285025
   108  H    0.170019
   109  H    0.141178
   110  C   -0.291589
   111  H    0.146702
   112  H    0.164254
   113  C   -0.140666
   114  H    0.144311
   115  H    0.162016
   116  N   -0.777187
   117  H    0.331284
   118  H    0.341076
   119  H    0.456430
   120  O   -0.508130
   121  H    0.422782
 Sum of Mulliken charges =   1.00000

 Dipole moment (field-independent basis, Debye):
    X=            -15.3435    Y=             -5.5867    Z=            -28.7844  Tot=             33.0935
 Quadrupole moment (field-independent basis, Debye-Ang):
   XX=           -106.0174   YY=           -236.2190   ZZ=           -175.9080
   XY=            111.8480   XZ=            107.1850   YZ=             36.5671

 Normal termination of Gaussian 16 at Sun Jul 10 13:37:44 2022.
