 Gaussian 16, Revision C.01,
 Gaussian 16:  ES64L-G16RevC.01  3-Jul-2019

 ----------------------------------------------------------------------
 # B3LYP/6-31G* empiricaldispersion=gd3bj guess=read geom=check nosymm
 integral(ultrafinegrid)
 ----------------------------------------------------------------------

 -----------------------------------------------------
 Candidate Structure: Conf:81 Charge calc in gas phase
 -----------------------------------------------------
 Structure from the checkpoint file:  "conf-81.chk"
 Charge =  1 Multiplicity = 1

                          Input orientation:
 ---------------------------------------------------------------------
 Center     Atomic      Atomic             Coordinates (Angstroms)
 Number     Number       Type             X           Y           Z
 ---------------------------------------------------------------------
      1          7           0       -8.142653   -3.411030   -2.909341
      2          1           0       -8.226643   -2.947439   -1.981930
      3          1           0       -8.774501   -4.215494   -2.937258
      4          1           0       -8.396495   -2.714586   -3.644807
      5          6           0       -6.711403   -3.772458   -3.228000
      6          1           0       -6.212460   -3.973762   -2.279202
      7          6           0       -6.185802   -2.483036   -3.898809
      8          6           0       -6.657844   -4.966147   -4.176747
      9          1           0       -5.615617   -5.195068   -4.415483
     10          1           0       -7.099039   -5.858432   -3.720284
     11          1           0       -7.176602   -4.739857   -5.113706
     12          8           0       -6.987059   -1.816066   -4.557664
     13          7           0       -4.898128   -2.201885   -3.693294
     14          1           0       -4.282538   -2.838104   -3.191578
     15          6           0       -4.248226   -0.962987   -4.087054
     16          1           0       -4.644192   -0.645115   -5.054922
     17          6           0       -2.750427   -1.280909   -4.133561
     18          6           0       -4.464670    0.168046   -3.022997
     19          1           0       -3.851083   -0.072335   -2.147688
     20          1           0       -4.067451    1.100742   -3.438030
     21          8           0       -2.316373   -2.264229   -3.522448
     22          6           0       -5.895477    0.333013   -2.623145
     23          6           0       -6.821619    1.174962   -3.188846
     24          1           0       -6.690481    1.934528   -3.946849
     25          6           0       -6.610593   -0.476362   -1.669187
     26          6           0       -7.982673   -0.086638   -1.732419
     27          6           0       -6.237394   -1.504517   -0.786465
     28          1           0       -5.195816   -1.798807   -0.692402
     29          7           0       -8.071419    0.923941   -2.663127
     30          1           0       -8.904689    1.452094   -2.875949
     31          6           0       -8.576163   -1.746954   -0.119197
     32          1           0       -9.316533   -2.237429    0.505423
     33          6           0       -8.972251   -0.712030   -0.967858
     34          1           0      -10.011278   -0.400553   -1.021495
     35          6           0       -7.217560   -2.133716   -0.022768
     36          1           0       -6.937379   -2.914742    0.677746
     37          7           0       -1.961280   -0.395742   -4.771910
     38          1           0       -2.369758    0.435028   -5.181816
     39          6           0       -0.501077   -0.417023   -4.599827
     40          1           0       -0.210934   -1.470390   -4.569405
     41          6           0       -0.199967    0.249403   -3.239701
     42          6           0        0.205836    0.303739   -5.741960
     43          1           0       -0.212987   -0.040718   -6.693929
     44          1           0        0.016792    1.376563   -5.654496
     45          8           0        0.023492    1.463553   -3.151750
     46          6           0        1.717217    0.040454   -5.702825
     47          1           0        2.114163    0.212247   -4.694390
     48          1           0        1.950577   -0.993412   -5.971788
     49          6           0        2.546136    0.934756   -6.599550
     50          8           0        3.583465    0.611673   -7.127375
     51          8           0        2.015288    2.177546   -6.719318
     52          7           0       -0.277707   -0.573927   -2.176405
     53          1           0       -0.492508   -1.550408   -2.339727
     54          6           0       -0.067381   -0.115520   -0.798598
     55          1           0       -0.547406    0.866023   -0.710789
     56          6           0        1.454667    0.042835   -0.614649
     57          6           0       -0.680706   -1.077129    0.226769
     58          1           0       -0.139621   -2.028241    0.143759
     59          8           0        2.168118   -0.872691   -0.202902
     60          6           0       -0.467602   -0.527139    1.643623
     61          1           0       -0.961964    0.444580    1.766468
     62          1           0       -0.892153   -1.211896    2.384220
     63          1           0        0.593564   -0.408543    1.873337
     64          6           0       -2.174154   -1.312522   -0.042049
     65          1           0       -2.730021   -0.367024    0.014674
     66          1           0       -2.357748   -1.761769   -1.023683
     67          1           0       -2.588078   -1.982831    0.718979
     68          7           0        1.926434    1.245768   -1.005782
     69          1           0        1.259658    1.888681   -1.414432
     70          6           0        3.353625    1.516342   -1.174653
     71          1           0        3.834614    0.559295   -1.403977
     72          6           0        3.886345    2.063835    0.171894
     73          6           0        3.560364    2.481104   -2.355579
     74          1           0        3.159195    3.463182   -2.069508
     75          8           0        4.159690    3.260082    0.314473
     76          6           0        5.034385    2.619253   -2.705842
     77          1           0        5.591599    2.984552   -1.840041
     78          1           0        5.444180    1.651406   -3.012690
     79          1           0        5.156746    3.321861   -3.534061
     80          8           0        2.911718    1.996747   -3.529054
     81          1           0        1.948058    2.111803   -3.455238
     82          7           0        3.939816    1.112731    1.125714
     83          1           0        3.618814    0.192447    0.836028
     84          6           0        4.031934    1.323395    2.572042
     85          1           0        3.035969    1.597004    2.945565
     86          6           0        5.002754    2.450543    2.930124
     87          6           0        4.458695    0.002667    3.265276
     88          1           0        5.349597   -0.353096    2.731002
     89          8           0        6.126643    2.507451    2.367466
     90          6           0        4.834615    0.239075    4.736674
     91          1           0        4.055446    0.783132    5.282713
     92          1           0        5.757233    0.819700    4.824181
     93          1           0        4.996350   -0.721918    5.235908
     94          6           0        3.349458   -1.055187    3.161727
     95          1           0        2.456498   -0.720444    3.705165
     96          1           0        3.680985   -1.993171    3.619463
     97          1           0        3.053440   -1.284094    2.132020
     98          7           0        4.529769    3.238411    3.885642
     99          1           0        3.651365    2.995220    4.405428
    100          6           0        5.181172    4.205756    4.775178
    101          1           0        6.186633    3.846231    5.024308
    102          6           0        4.279479    4.216287    6.078127
    103          6           0        5.298111    5.615957    4.151240
    104          1           0        5.942541    6.217814    4.797203
    105          1           0        4.314406    6.099813    4.120637
    106          8           0        3.275213    3.440899    6.011641
    107          6           0        5.845237    5.381506    2.752507
    108          1           0        6.714878    4.732037    2.887813
    109          1           0        5.080089    4.771154    2.266777
    110          6           0        6.227797    6.434726    1.716981
    111          1           0        5.487407    7.238668    1.632248
    112          1           0        7.194554    6.906955    1.931554
    113          6           0        6.257295    5.697154    0.367112
    114          1           0        6.799711    6.232740   -0.416700
    115          1           0        5.244454    5.475978    0.027535
    116          7           0        6.907321    4.325626    0.493389
    117          1           0        6.861825    3.833009   -0.400914
    118          1           0        7.891505    4.401740    0.765121
    119          1           0        6.443673    3.679639    1.217417
    120          8           0        4.656732    4.990623    6.964199
    121          1           0        2.648471    2.688553   -7.257901
 ---------------------------------------------------------------------

 SCF Done:  E(RB3LYP) =  -2843.87137772     A.U. after    3 cycles

 Alpha  occ. eigenvalues --  -19.27044 -19.25983 -19.25378 -19.22945 -19.21608
 Alpha  occ. eigenvalues --  -19.20419 -19.19878 -19.18515 -19.15074 -19.06175
 Alpha  occ. eigenvalues --  -19.04682 -14.59880 -14.51325 -14.50708 -14.50150
 Alpha  occ. eigenvalues --  -14.49512 -14.47049 -14.44533 -14.41649 -14.36905
 Alpha  occ. eigenvalues --  -10.44259 -10.42242 -10.41178 -10.39756 -10.38466
 Alpha  occ. eigenvalues --  -10.37290 -10.37190 -10.35462 -10.34602 -10.34536
 Alpha  occ. eigenvalues --  -10.34102 -10.34021 -10.32639 -10.32407 -10.31973
 Alpha  occ. eigenvalues --  -10.31908 -10.31662 -10.31532 -10.31497 -10.31447
 Alpha  occ. eigenvalues --  -10.31179 -10.31109 -10.30382 -10.30304 -10.28596
 Alpha  occ. eigenvalues --  -10.28371 -10.27512 -10.27463 -10.27004 -10.25253
 Alpha  occ. eigenvalues --  -10.25129 -10.25001 -10.23834 -10.23749 -10.21864
 Alpha  occ. eigenvalues --  -10.21694 -10.21449 -10.19968 -10.19964  -1.19698
 Alpha  occ. eigenvalues --   -1.17347  -1.16715  -1.14653  -1.14193  -1.12307
 Alpha  occ. eigenvalues --   -1.10148  -1.09983  -1.09057  -1.07637  -1.07590
 Alpha  occ. eigenvalues --   -1.06429  -1.05687  -1.05389  -1.03337  -1.00970
 Alpha  occ. eigenvalues --   -0.99130  -0.98294  -0.96819  -0.94454  -0.93996
 Alpha  occ. eigenvalues --   -0.92665  -0.91000  -0.90267  -0.89589  -0.88527
 Alpha  occ. eigenvalues --   -0.86258  -0.86112  -0.85795  -0.84758  -0.84460
 Alpha  occ. eigenvalues --   -0.83065  -0.82004  -0.80877  -0.79956  -0.78965
 Alpha  occ. eigenvalues --   -0.77998  -0.77050  -0.75438  -0.74825  -0.74217
 Alpha  occ. eigenvalues --   -0.73662  -0.73271  -0.72858  -0.72632  -0.72019
 Alpha  occ. eigenvalues --   -0.71786  -0.71566  -0.69992  -0.69040  -0.68786
 Alpha  occ. eigenvalues --   -0.67549  -0.67431  -0.67261  -0.66672  -0.66337
 Alpha  occ. eigenvalues --   -0.65785  -0.65685  -0.64716  -0.63857  -0.63667
 Alpha  occ. eigenvalues --   -0.63209  -0.62367  -0.62037  -0.61110  -0.60921
 Alpha  occ. eigenvalues --   -0.60572  -0.60378  -0.59836  -0.59598  -0.59188
 Alpha  occ. eigenvalues --   -0.59106  -0.58789  -0.58316  -0.57464  -0.57244
 Alpha  occ. eigenvalues --   -0.57081  -0.56358  -0.56011  -0.55914  -0.55506
 Alpha  occ. eigenvalues --   -0.55007  -0.54841  -0.54614  -0.54251  -0.54128
 Alpha  occ. eigenvalues --   -0.53807  -0.53772  -0.53311  -0.53224  -0.53007
 Alpha  occ. eigenvalues --   -0.52641  -0.52450  -0.52325  -0.51458  -0.51297
 Alpha  occ. eigenvalues --   -0.51196  -0.50843  -0.50193  -0.49837  -0.49670
 Alpha  occ. eigenvalues --   -0.49504  -0.49032  -0.48874  -0.48844  -0.48569
 Alpha  occ. eigenvalues --   -0.48385  -0.47700  -0.47428  -0.47354  -0.47083
 Alpha  occ. eigenvalues --   -0.46903  -0.46719  -0.46568  -0.46384  -0.46345
 Alpha  occ. eigenvalues --   -0.45964  -0.45790  -0.45535  -0.45314  -0.45069
 Alpha  occ. eigenvalues --   -0.44829  -0.44310  -0.44142  -0.43588  -0.43212
 Alpha  occ. eigenvalues --   -0.42745  -0.42511  -0.42085  -0.41846  -0.41797
 Alpha  occ. eigenvalues --   -0.41636  -0.41473  -0.40842  -0.40605  -0.40225
 Alpha  occ. eigenvalues --   -0.40116  -0.39801  -0.39629  -0.39238  -0.38200
 Alpha  occ. eigenvalues --   -0.37876  -0.37761  -0.37607  -0.37042  -0.36767
 Alpha  occ. eigenvalues --   -0.36142  -0.36011  -0.35746  -0.35249  -0.35124
 Alpha  occ. eigenvalues --   -0.34764  -0.34654  -0.33578  -0.33456  -0.33185
 Alpha  occ. eigenvalues --   -0.32549  -0.31865  -0.30826  -0.29086  -0.28209
 Alpha  occ. eigenvalues --   -0.21257  -0.21031  -0.18944
 Alpha virt. eigenvalues --   -0.14124  -0.13519  -0.11850  -0.10512  -0.09729
 Alpha virt. eigenvalues --   -0.09145  -0.06956  -0.06165  -0.05252  -0.05053
 Alpha virt. eigenvalues --   -0.04929  -0.04374  -0.03960  -0.03917  -0.02843

 Mulliken charges:
               1
     1  N   -0.761403
     2  H    0.423032
     3  H    0.404860
     4  H    0.421653
     5  C   -0.103642
     6  H    0.205389
     7  C    0.667694
     8  C   -0.476632
     9  H    0.211751
    10  H    0.190143
    11  H    0.200193
    12  O   -0.534463
    13  N   -0.608331
    14  H    0.367826
    15  C   -0.054513
    16  H    0.196609
    17  C    0.646508
    18  C   -0.381207
    19  H    0.184173
    20  H    0.169766
    21  O   -0.549065
    22  C    0.082646
    23  C    0.039212
    24  H    0.180243
    25  C    0.056332
    26  C    0.324314
    27  C   -0.228424
    28  H    0.156219
    29  N   -0.681513
    30  H    0.351741
    31  C   -0.209650
    32  H    0.165182
    33  C   -0.176818
    34  H    0.163171
    35  C   -0.184452
    36  H    0.158730
    37  N   -0.606880
    38  H    0.350898
    39  C   -0.055082
    40  H    0.189249
    41  C    0.632348
    42  C   -0.298857
    43  H    0.160850
    44  H    0.193113
    45  O   -0.562399
    46  C   -0.389226
    47  H    0.212285
    48  H    0.180190
    49  C    0.599253
    50  O   -0.454453
    51  O   -0.569375
    52  N   -0.602910
    53  H    0.369034
    54  C   -0.036988
    55  H    0.166465
    56  C    0.632476
    57  C   -0.108369
    58  H    0.163928
    59  O   -0.539088
    60  C   -0.470343
    61  H    0.149205
    62  H    0.161812
    63  H    0.186771
    64  C   -0.480781
    65  H    0.148829
    66  H    0.144173
    67  H    0.158049
    68  N   -0.605724
    69  H    0.352540
    70  C   -0.075543
    71  H    0.182971
    72  C    0.650653
    73  C    0.114230
    74  H    0.143019
    75  O   -0.567247
    76  C   -0.465619
    77  H    0.128052
    78  H    0.170627
    79  H    0.170719
    80  O   -0.651758
    81  H    0.426319
    82  N   -0.642958
    83  H    0.376175
    84  C   -0.005697
    85  H    0.158783
    86  C    0.643519
    87  C   -0.098752
    88  H    0.145877
    89  O   -0.644902
    90  C   -0.478634
    91  H    0.189549
    92  H    0.169232
    93  H    0.144187
    94  C   -0.487432
    95  H    0.152046
    96  H    0.155944
    97  H    0.161865
    98  N   -0.596018
    99  H    0.372744
   100  C   -0.082187
   101  H    0.150012
   102  C    0.592763
   103  C   -0.256474
   104  H    0.164657
   105  H    0.142539
   106  O   -0.624869
   107  C   -0.313591
   108  H    0.137656
   109  H    0.175458
   110  C   -0.271427
   111  H    0.169545
   112  H    0.151630
   113  C   -0.193923
   114  H    0.173329
   115  H    0.227070
   116  N   -0.786960
   117  H    0.403046
   118  H    0.388379
   119  H    0.480573
   120  O   -0.573927
   121  H    0.416481
 Sum of Mulliken charges =   1.00000

 Dipole moment (field-independent basis, Debye):
    X=            -31.4602    Y=            -11.4463    Z=            -31.2836  Tot=             45.8195
 Quadrupole moment (field-independent basis, Debye-Ang):
   XX=            -14.4975   YY=           -283.2471   ZZ=           -417.9880
   XY=            115.0781   XZ=             39.9761   YZ=            -58.5136

 Normal termination of Gaussian 16 at Sun Jul 10 13:39:37 2022.
