 Gaussian 16, Revision C.01,
 Gaussian 16:  ES64L-G16RevC.01  3-Jul-2019

 ----------------------------------------------------------------------
 # B3LYP/6-31G* empiricaldispersion=gd3bj guess=read geom=check nosymm
 integral(ultrafinegrid)
 ----------------------------------------------------------------------

 ------------------------------------------------------
 Candidate Structure: Conf:123 Charge calc in gas phase
 ------------------------------------------------------
 Structure from the checkpoint file:  "conf-123.chk"
 Charge =  1 Multiplicity = 1

                          Input orientation:
 ---------------------------------------------------------------------
 Center     Atomic      Atomic             Coordinates (Angstroms)
 Number     Number       Type             X           Y           Z
 ---------------------------------------------------------------------
      1          7           0       -6.596941   -0.444629   -7.306995
      2          1           0       -6.841253    0.226965   -6.534619
      3          1           0       -7.441360   -0.760232   -7.790434
      4          1           0       -5.967056    0.079526   -7.949804
      5          6           0       -5.739516   -1.580246   -6.793099
      6          1           0       -6.156125   -1.896702   -5.834782
      7          6           0       -4.373960   -0.878113   -6.632687
      8          6           0       -5.698021   -2.717738   -7.806634
      9          1           0       -5.057431   -3.518446   -7.426637
     10          1           0       -6.694145   -3.139010   -7.979179
     11          1           0       -5.277854   -2.370803   -8.755795
     12          8           0       -4.078045   -0.034958   -7.483710
     13          7           0       -3.642060   -1.194417   -5.563613
     14          1           0       -3.893468   -1.939771   -4.918651
     15          6           0       -2.582976   -0.331878   -5.073342
     16          1           0       -2.043126    0.080946   -5.927490
     17          6           0       -1.706109   -1.207603   -4.174975
     18          6           0       -3.175758    0.820666   -4.175976
     19          1           0       -3.330898    0.417012   -3.171512
     20          1           0       -2.412957    1.598353   -4.071204
     21          8           0       -2.179185   -2.221634   -3.667291
     22          6           0       -4.456417    1.388916   -4.701525
     23          6           0       -5.707154    0.975407   -4.351089
     24          1           0       -6.009907    0.266662   -3.591901
     25          6           0       -4.619117    2.386273   -5.746064
     26          6           0       -6.003115    2.526459   -5.986406
     27          6           0       -3.714148    3.147845   -6.495489
     28          1           0       -2.644167    3.047027   -6.342281
     29          7           0       -6.685101    1.578435   -5.182195
     30          1           0       -7.579878    1.836323   -4.775028
     31          6           0       -5.596953    4.174121   -7.651482
     32          1           0       -5.957048    4.885937   -8.387440
     33          6           0       -6.515604    3.410694   -6.933087
     34          1           0       -7.584527    3.516881   -7.096674
     35          6           0       -4.213246    4.039145   -7.438575
     36          1           0       -3.526205    4.643432   -8.022227
     37          7           0       -0.453011   -0.756931   -3.935562
     38          1           0       -0.241300    0.186901   -4.235482
     39          6           0        0.243793   -1.196395   -2.728772
     40          1           0        0.364254   -2.282385   -2.780535
     41          6           0       -0.611666   -0.787753   -1.508382
     42          6           0        1.612752   -0.479272   -2.665093
     43          1           0        2.000072   -0.409967   -3.688320
     44          1           0        1.455222    0.544204   -2.308914
     45          8           0       -1.267705    0.249612   -1.538137
     46          6           0        2.659213   -1.158284   -1.774901
     47          1           0        2.193312   -1.673113   -0.928780
     48          1           0        3.243159   -1.903567   -2.322657
     49          6           0        3.598368   -0.174521   -1.099524
     50          8           0        3.363066    1.019303   -0.968002
     51          8           0        4.677521   -0.772259   -0.609605
     52          7           0       -0.536144   -1.590617   -0.411385
     53          1           0        0.160425   -2.325893   -0.436110
     54          6           0       -0.733870   -0.997991    0.919294
     55          1           0       -1.652446   -0.407567    0.877669
     56          6           0        0.495724   -0.103949    1.136849
     57          6           0       -0.834262   -2.076891    2.007295
     58          1           0        0.101837   -2.652224    1.968613
     59          8           0        1.619373   -0.590384    0.982665
     60          6           0       -0.929073   -1.420219    3.391147
     61          1           0       -1.831469   -0.800225    3.468303
     62          1           0       -0.985923   -2.184908    4.171928
     63          1           0       -0.063200   -0.786214    3.608523
     64          6           0       -2.016538   -3.016278    1.750519
     65          1           0       -2.965169   -2.468202    1.809543
     66          1           0       -1.959901   -3.480262    0.760898
     67          1           0       -2.043684   -3.812382    2.501798
     68          7           0        0.278635    1.193870    1.404689
     69          1           0       -0.630293    1.511614    1.718255
     70          6           0        1.349856    2.183479    1.437026
     71          1           0        1.823355    2.209633    0.451426
     72          6           0        2.391388    1.827692    2.508364
     73          6           0        0.713304    3.550538    1.774510
     74          1           0        1.536261    4.252208    1.980464
     75          8           0        2.125635    1.939017    3.711260
     76          6           0       -0.131848    4.097237    0.631874
     77          1           0        0.496344    4.315988   -0.237901
     78          1           0       -0.902276    3.381076    0.326329
     79          1           0       -0.625889    5.018847    0.952096
     80          8           0       -0.119346    3.406524    2.915671
     81          1           0        0.455391    2.991311    3.594739
     82          7           0        3.579709    1.437431    2.011894
     83          1           0        3.640109    1.297093    1.005214
     84          6           0        4.678968    0.937921    2.823054
     85          1           0        4.636005    1.456571    3.785755
     86          6           0        5.962080    1.286852    2.073972
     87          6           0        4.632830   -0.595699    3.068305
     88          1           0        4.609765   -1.072081    2.080462
     89          8           0        6.148840    0.915107    0.900368
     90          6           0        5.899755   -1.051428    3.806530
     91          1           0        6.003553   -0.537378    4.770528
     92          1           0        6.809745   -0.867138    3.225699
     93          1           0        5.851328   -2.125861    4.009773
     94          6           0        3.372895   -1.011154    3.833560
     95          1           0        3.297672   -0.487866    4.792605
     96          1           0        3.402623   -2.088780    4.031511
     97          1           0        2.474121   -0.801315    3.252994
     98          7           0        6.876343    2.000291    2.743695
     99          1           0        6.792008    2.140237    3.746795
    100          6           0        8.214398    2.228821    2.218356
    101          1           0        8.619984    1.257815    1.898351
    102          6           0        9.065320    2.690552    3.418718
    103          6           0        8.246075    3.179982    1.003786
    104          1           0        8.472922    4.197668    1.338228
    105          1           0        7.246948    3.213641    0.564898
    106          8           0       10.243621    3.246243    3.176188
    107          6           0        9.248023    2.704285   -0.065903
    108          1           0       10.078606    2.168806    0.413725
    109          1           0        8.738862    1.963520   -0.691755
    110          6           0        9.837361    3.834353   -0.925446
    111          1           0       10.030945    3.483374   -1.945692
    112          1           0        9.113288    4.655949   -1.019410
    113          6           0       11.159197    4.360353   -0.361178
    114          1           0       11.534496    5.188911   -0.979041
    115          1           0       11.906933    3.560220   -0.403384
    116          7           0       11.026645    4.743132    1.060620
    117          1           0       11.939590    4.990012    1.442083
    118          1           0       10.455904    5.585151    1.141478
    119          1           0       10.408484    3.620280    2.250925
    120          8           0        8.670796    2.499095    4.553007
    121          1           0        5.219120   -0.112387   -0.082492
 ---------------------------------------------------------------------

 SCF Done:  E(RB3LYP) =  -2843.94316413     A.U. after    2 cycles

 Alpha  occ. eigenvalues --  -19.25094 -19.22749 -19.21767 -19.21471 -19.19273
 Alpha  occ. eigenvalues --  -19.18762 -19.18760 -19.18247 -19.17610 -19.17335
 Alpha  occ. eigenvalues --  -19.16797 -14.58311 -14.49620 -14.48494 -14.45411
 Alpha  occ. eigenvalues --  -14.43326 -14.42230 -14.41993 -14.40587 -14.40561
 Alpha  occ. eigenvalues --  -10.42320 -10.39923 -10.38612 -10.37138 -10.36163
 Alpha  occ. eigenvalues --  -10.35998 -10.35059 -10.34592 -10.34509 -10.33615
 Alpha  occ. eigenvalues --  -10.32960 -10.32703 -10.32658 -10.31666 -10.29927
 Alpha  occ. eigenvalues --  -10.29805 -10.29518 -10.29257 -10.29126 -10.29099
 Alpha  occ. eigenvalues --  -10.29032 -10.28511 -10.28446 -10.28265 -10.28080
 Alpha  occ. eigenvalues --  -10.27911 -10.27666 -10.26751 -10.25759 -10.25746
 Alpha  occ. eigenvalues --  -10.24305 -10.24212 -10.23870 -10.23707 -10.23324
 Alpha  occ. eigenvalues --  -10.23125 -10.22698 -10.21754 -10.20576  -1.17913
 Alpha  occ. eigenvalues --   -1.14614  -1.13984  -1.13130  -1.12568  -1.11298
 Alpha  occ. eigenvalues --   -1.10203  -1.09844  -1.08438  -1.08430  -1.05929
 Alpha  occ. eigenvalues --   -1.05642  -1.05357  -1.05067  -1.02093  -0.99802
 Alpha  occ. eigenvalues --   -0.98597  -0.98388  -0.97531  -0.96312  -0.94255
 Alpha  occ. eigenvalues --   -0.92537  -0.91033  -0.88336  -0.86847  -0.86204
 Alpha  occ. eigenvalues --   -0.85936  -0.84977  -0.83712  -0.82697  -0.82654
 Alpha  occ. eigenvalues --   -0.81200  -0.80676  -0.79994  -0.78171  -0.77187
 Alpha  occ. eigenvalues --   -0.76643  -0.75301  -0.74311  -0.73480  -0.72910
 Alpha  occ. eigenvalues --   -0.72273  -0.72232  -0.71615  -0.71182  -0.70897
 Alpha  occ. eigenvalues --   -0.69550  -0.68645  -0.68563  -0.67069  -0.66878
 Alpha  occ. eigenvalues --   -0.66110  -0.65293  -0.65052  -0.64492  -0.64290
 Alpha  occ. eigenvalues --   -0.63972  -0.63738  -0.63455  -0.63410  -0.62846
 Alpha  occ. eigenvalues --   -0.62144  -0.62020  -0.60921  -0.60307  -0.59400
 Alpha  occ. eigenvalues --   -0.58806  -0.58411  -0.58009  -0.57554  -0.57058
 Alpha  occ. eigenvalues --   -0.56923  -0.56629  -0.56151  -0.55824  -0.55403
 Alpha  occ. eigenvalues --   -0.55372  -0.54968  -0.54540  -0.54445  -0.53953
 Alpha  occ. eigenvalues --   -0.53679  -0.53497  -0.53216  -0.52824  -0.52655
 Alpha  occ. eigenvalues --   -0.52230  -0.52084  -0.51847  -0.51669  -0.51176
 Alpha  occ. eigenvalues --   -0.51059  -0.50745  -0.50509  -0.50286  -0.49859
 Alpha  occ. eigenvalues --   -0.49697  -0.49594  -0.49403  -0.49226  -0.48810
 Alpha  occ. eigenvalues --   -0.48277  -0.48120  -0.48039  -0.47596  -0.47344
 Alpha  occ. eigenvalues --   -0.47169  -0.46907  -0.46687  -0.46398  -0.46174
 Alpha  occ. eigenvalues --   -0.45888  -0.45410  -0.45030  -0.44953  -0.44683
 Alpha  occ. eigenvalues --   -0.44303  -0.44175  -0.44059  -0.44014  -0.43449
 Alpha  occ. eigenvalues --   -0.43396  -0.43247  -0.43201  -0.43015  -0.42858
 Alpha  occ. eigenvalues --   -0.42534  -0.41845  -0.41719  -0.41564  -0.41326
 Alpha  occ. eigenvalues --   -0.41023  -0.40866  -0.39876  -0.39836  -0.39789
 Alpha  occ. eigenvalues --   -0.39356  -0.39207  -0.39104  -0.39070  -0.38790
 Alpha  occ. eigenvalues --   -0.38518  -0.37999  -0.37621  -0.37305  -0.37291
 Alpha  occ. eigenvalues --   -0.36148  -0.36013  -0.35309  -0.34626  -0.34383
 Alpha  occ. eigenvalues --   -0.33389  -0.33260  -0.33202  -0.33051  -0.32612
 Alpha  occ. eigenvalues --   -0.32325  -0.31841  -0.31743  -0.31492  -0.31277
 Alpha  occ. eigenvalues --   -0.30944  -0.29730  -0.28968
 Alpha virt. eigenvalues --   -0.12121  -0.11888  -0.09154  -0.08508  -0.08128
 Alpha virt. eigenvalues --   -0.05999  -0.04906  -0.04720  -0.04623  -0.03852
 Alpha virt. eigenvalues --   -0.03508  -0.02992  -0.02973  -0.02391  -0.01971

 Mulliken charges:
               1
     1  N   -0.765584
     2  H    0.441238
     3  H    0.399433
     4  H    0.423546
     5  C   -0.107886
     6  H    0.198046
     7  C    0.658283
     8  C   -0.469730
     9  H    0.212254
    10  H    0.182773
    11  H    0.200730
    12  O   -0.528692
    13  N   -0.598856
    14  H    0.361028
    15  C   -0.074414
    16  H    0.196405
    17  C    0.647196
    18  C   -0.373741
    19  H    0.205521
    20  H    0.180523
    21  O   -0.534023
    22  C    0.110795
    23  C   -0.077600
    24  H    0.168923
    25  C    0.145730
    26  C    0.215895
    27  C   -0.185703
    28  H    0.140433
    29  N   -0.723899
    30  H    0.356945
    31  C   -0.142427
    32  H    0.156193
    33  C   -0.189733
    34  H    0.142835
    35  C   -0.133298
    36  H    0.154531
    37  N   -0.601409
    38  H    0.342020
    39  C   -0.044698
    40  H    0.176771
    41  C    0.638668
    42  C   -0.319308
    43  H    0.160294
    44  H    0.195301
    45  O   -0.545233
    46  C   -0.371049
    47  H    0.198572
    48  H    0.177118
    49  C    0.625387
    50  O   -0.511332
    51  O   -0.600700
    52  N   -0.591443
    53  H    0.339147
    54  C   -0.038224
    55  H    0.163248
    56  C    0.635837
    57  C   -0.101495
    58  H    0.145853
    59  O   -0.565134
    60  C   -0.473382
    61  H    0.143876
    62  H    0.162015
    63  H    0.180704
    64  C   -0.446223
    65  H    0.143010
    66  H    0.153117
    67  H    0.157001
    68  N   -0.592743
    69  H    0.351066
    70  C   -0.081412
    71  H    0.192857
    72  C    0.657697
    73  C    0.100045
    74  H    0.139192
    75  O   -0.569585
    76  C   -0.453316
    77  H    0.146792
    78  H    0.150271
    79  H    0.169635
    80  O   -0.650857
    81  H    0.422792
    82  N   -0.638345
    83  H    0.395372
    84  C   -0.044243
    85  H    0.170910
    86  C    0.642364
    87  C   -0.075385
    88  H    0.147459
    89  O   -0.590390
    90  C   -0.467869
    91  H    0.152338
    92  H    0.152792
    93  H    0.156685
    94  C   -0.466432
    95  H    0.154983
    96  H    0.136703
    97  H    0.178633
    98  N   -0.609472
    99  H    0.367525
   100  C   -0.045715
   101  H    0.192426
   102  C    0.582906
   103  C   -0.288546
   104  H    0.138303
   105  H    0.180256
   106  O   -0.616886
   107  C   -0.276969
   108  H    0.142311
   109  H    0.165751
   110  C   -0.272736
   111  H    0.152297
   112  H    0.141627
   113  C   -0.143542
   114  H    0.144518
   115  H    0.161896
   116  N   -0.768218
   117  H    0.338452
   118  H    0.326344
   119  H    0.483699
   120  O   -0.471405
   121  H    0.465191
 Sum of Mulliken charges =   1.00000

 Dipole moment (field-independent basis, Debye):
    X=            -16.8060    Y=              1.6892    Z=            -29.8768  Tot=             34.3208
 Quadrupole moment (field-independent basis, Debye-Ang):
   XX=            -64.6900   YY=           -299.9944   ZZ=           -184.5664
   XY=             61.2939   XZ=            144.3068   YZ=             -9.0082

 Normal termination of Gaussian 16 at Sun Jul 10 13:38:44 2022.
