 Gaussian 16, Revision C.01,
 Gaussian 16:  ES64L-G16RevC.01  3-Jul-2019

 ----------------------------------------------------------------------
 # B3LYP/6-31G* empiricaldispersion=gd3bj guess=read geom=check nosymm
 integral(ultrafinegrid)
 ----------------------------------------------------------------------

 ------------------------------------------------------
 Candidate Structure: Conf:578 Charge calc in gas phase
 ------------------------------------------------------
 Structure from the checkpoint file:  "conf-578.chk"
 Charge =  1 Multiplicity = 1

                          Input orientation:
 ---------------------------------------------------------------------
 Center     Atomic      Atomic             Coordinates (Angstroms)
 Number     Number       Type             X           Y           Z
 ---------------------------------------------------------------------
      1          7           0       -6.133968   -3.099546   -9.059527
      2          1           0       -6.833620   -3.843007   -9.121391
      3          1           0       -5.824606   -2.861047  -10.005598
      4          1           0       -6.552684   -2.237353   -8.567563
      5          6           0       -4.984788   -3.421471   -8.124896
      6          1           0       -5.138539   -4.433427   -7.743077
      7          6           0       -5.182909   -2.376681   -6.990902
      8          6           0       -3.639837   -3.295453   -8.834527
      9          1           0       -2.829282   -3.501287   -8.130662
     10          1           0       -3.555688   -4.013219   -9.656422
     11          1           0       -3.493272   -2.280392   -9.219061
     12          8           0       -6.096760   -1.543644   -7.139157
     13          7           0       -4.351438   -2.447358   -5.970727
     14          1           0       -3.584851   -3.123936   -5.903018
     15          6           0       -4.331288   -1.509886   -4.852489
     16          1           0       -4.467744   -0.495104   -5.234297
     17          6           0       -2.930473   -1.686633   -4.245567
     18          6           0       -5.454247   -1.823050   -3.821525
     19          1           0       -6.396337   -1.866062   -4.381514
     20          1           0       -5.272713   -2.818865   -3.401891
     21          8           0       -2.277632   -2.706025   -4.510788
     22          6           0       -5.513169   -0.786536   -2.748369
     23          6           0       -5.162366   -0.926086   -1.426208
     24          1           0       -4.844174   -1.807867   -0.887153
     25          6           0       -5.823132    0.608504   -2.948598
     26          6           0       -5.633230    1.258175   -1.697992
     27          6           0       -6.230162    1.366371   -4.061307
     28          1           0       -6.408090    0.889083   -5.022317
     29          7           0       -5.266723    0.289100   -0.784918
     30          1           0       -4.894853    0.477972    0.133592
     31          6           0       -6.208125    3.359629   -2.659392
     32          1           0       -6.358127    4.431321   -2.571647
     33          6           0       -5.819678    2.633529   -1.540335
     34          1           0       -5.662868    3.117805   -0.581242
     35          6           0       -6.416288    2.733476   -3.905780
     36          1           0       -6.730271    3.333988   -4.754286
     37          7           0       -2.520914   -0.709877   -3.432809
     38          1           0       -3.128578    0.071783   -3.195505
     39          6           0       -1.314334   -0.805693   -2.625932
     40          1           0       -1.198458   -1.845125   -2.298080
     41          6           0       -1.556633    0.114809   -1.420143
     42          6           0       -0.069065   -0.391557   -3.439654
     43          1           0       -0.103084   -0.939819   -4.384816
     44          1           0       -0.141195    0.673290   -3.685668
     45          8           0       -2.357262    1.046517   -1.492180
     46          6           0        1.257377   -0.690533   -2.740686
     47          1           0        1.414001   -0.101514   -1.831497
     48          1           0        1.306318   -1.741657   -2.421802
     49          6           0        2.438553   -0.447570   -3.653006
     50          8           0        2.379491   -0.151930   -4.826253
     51          8           0        3.607182   -0.606672   -2.989964
     52          7           0       -0.841832   -0.183735   -0.313227
     53          1           0       -0.078936   -0.850000   -0.382565
     54          6           0       -0.674364    0.748105    0.795265
     55          1           0       -1.228735    1.658356    0.547365
     56          6           0        0.830890    1.025535    0.876682
     57          6           0       -1.228016    0.141638    2.111119
     58          1           0       -0.732855   -0.830958    2.236959
     59          8           0        1.636228    0.163522    0.507808
     60          6           0       -0.908145    1.000998    3.340409
     61          1           0       -1.301811    2.020077    3.222230
     62          1           0       -1.384941    0.570474    4.227192
     63          1           0        0.166941    1.060723    3.529624
     64          6           0       -2.737302   -0.092710    1.971527
     65          1           0       -3.263513    0.866631    1.872641
     66          1           0       -2.962420   -0.706286    1.092843
     67          1           0       -3.132462   -0.601619    2.856571
     68          7           0        1.201117    2.215963    1.373461
     69          1           0        0.521471    2.936041    1.581452
     70          6           0        2.588848    2.550355    1.637892
     71          1           0        3.103909    2.761523    0.691702
     72          6           0        3.270421    1.385370    2.384922
     73          6           0        2.627635    3.797056    2.534824
     74          1           0        2.284066    3.485649    3.531294
     75          8           0        2.758157    0.901425    3.390984
     76          6           0        4.028784    4.390705    2.620228
     77          1           0        4.747533    3.659486    3.003343
     78          1           0        4.361054    4.721877    1.630816
     79          1           0        4.038717    5.255118    3.293558
     80          8           0        1.692624    4.721402    1.964294
     81          1           0        1.631210    5.484853    2.558587
     82          7           0        4.457594    1.016714    1.870144
     83          1           0        4.865755    1.515460    1.087559
     84          6           0        5.319798    0.001171    2.438227
     85          1           0        5.141666   -0.030263    3.518534
     86          6           0        6.756337    0.458254    2.145964
     87          6           0        5.065086   -1.415471    1.845715
     88          1           0        5.862552   -2.055964    2.248757
     89          8           0        6.995213    1.292852    1.269902
     90          6           0        3.716207   -1.981696    2.303487
     91          1           0        2.888565   -1.400637    1.889328
     92          1           0        3.623943   -1.970370    3.394413
     93          1           0        3.614593   -3.018046    1.959938
     94          6           0        5.170478   -1.411957    0.315479
     95          1           0        4.364636   -0.815916   -0.125284
     96          1           0        5.077113   -2.432727   -0.070392
     97          1           0        6.127106   -1.005619   -0.030087
     98          7           0        7.717347   -0.148790    2.871038
     99          1           0        7.492395   -0.805364    3.609964
    100          6           0        9.133061    0.101002    2.669557
    101          1           0        9.335613    0.168152    1.598578
    102          6           0        9.908982   -1.059958    3.263365
    103          6           0        9.581754    1.430135    3.356845
    104          1           0        9.008477    1.523835    4.287085
    105          1           0        9.253360    2.240958    2.700497
    106          8           0       11.093654   -1.209596    2.688479
    107          6           0       11.087768    1.548885    3.669995
    108          1           0       11.664525    1.084215    2.865364
    109          1           0       11.360440    2.610076    3.670677
    110          6           0       11.482252    0.936268    5.041916
    111          1           0       11.504902    1.740015    5.786605
    112          1           0       10.704621    0.244437    5.386114
    113          6           0       12.832819    0.198768    5.093593
    114          1           0       13.281268    0.318682    6.089375
    115          1           0       13.533116    0.633217    4.371897
    116          7           0       12.689264   -1.242264    4.761453
    117          1           0       13.600993   -1.697106    4.755801
    118          1           0       12.132535   -1.704980    5.480463
    119          1           0       11.775138   -1.466546    3.420190
    120          8           0        9.506511   -1.684985    4.233867
    121          1           0        4.319825   -0.441133   -3.635527
 ---------------------------------------------------------------------

 SCF Done:  E(RB3LYP) =  -2843.92518598     A.U. after    2 cycles

 Alpha  occ. eigenvalues --  -19.27029 -19.24728 -19.21305 -19.20892 -19.20142
 Alpha  occ. eigenvalues --  -19.19247 -19.19203 -19.18264 -19.17228 -19.16147
 Alpha  occ. eigenvalues --  -19.15850 -14.59903 -14.49142 -14.44151 -14.44022
 Alpha  occ. eigenvalues --  -14.43019 -14.42382 -14.40423 -14.40237 -14.39724
 Alpha  occ. eigenvalues --  -10.43489 -10.41277 -10.37758 -10.37468 -10.36204
 Alpha  occ. eigenvalues --  -10.35084 -10.35031 -10.33831 -10.33487 -10.33362
 Alpha  occ. eigenvalues --  -10.33151 -10.31052 -10.30278 -10.29668 -10.28989
 Alpha  occ. eigenvalues --  -10.28657 -10.28347 -10.27886 -10.27360 -10.27327
 Alpha  occ. eigenvalues --  -10.26819 -10.25895 -10.25887 -10.25828 -10.25107
 Alpha  occ. eigenvalues --  -10.24714 -10.24674 -10.24646 -10.24186 -10.24160
 Alpha  occ. eigenvalues --  -10.23979 -10.23398 -10.23335 -10.23033 -10.23024
 Alpha  occ. eigenvalues --  -10.22632 -10.22495 -10.20504 -10.20058  -1.19418
 Alpha  occ. eigenvalues --   -1.15664  -1.13825  -1.12843  -1.12519  -1.11324
 Alpha  occ. eigenvalues --   -1.10314  -1.08661  -1.08315  -1.07412  -1.06725
 Alpha  occ. eigenvalues --   -1.05940  -1.04113  -1.04019  -1.01097  -0.99871
 Alpha  occ. eigenvalues --   -0.98804  -0.97238  -0.96904  -0.95228  -0.93519
 Alpha  occ. eigenvalues --   -0.90084  -0.89079  -0.87679  -0.86270  -0.85221
 Alpha  occ. eigenvalues --   -0.84284  -0.84209  -0.83187  -0.81523  -0.80694
 Alpha  occ. eigenvalues --   -0.79721  -0.79512  -0.78662  -0.78191  -0.76373
 Alpha  occ. eigenvalues --   -0.75801  -0.74868  -0.74376  -0.74257  -0.73273
 Alpha  occ. eigenvalues --   -0.72754  -0.72163  -0.71464  -0.70099  -0.68313
 Alpha  occ. eigenvalues --   -0.68016  -0.67611  -0.67200  -0.66347  -0.65909
 Alpha  occ. eigenvalues --   -0.65444  -0.65112  -0.64566  -0.64528  -0.63718
 Alpha  occ. eigenvalues --   -0.63678  -0.63355  -0.63281  -0.62772  -0.61465
 Alpha  occ. eigenvalues --   -0.61198  -0.60448  -0.59864  -0.59267  -0.59184
 Alpha  occ. eigenvalues --   -0.58431  -0.57403  -0.56891  -0.56207  -0.55944
 Alpha  occ. eigenvalues --   -0.55678  -0.55566  -0.54957  -0.54711  -0.54559
 Alpha  occ. eigenvalues --   -0.54200  -0.53953  -0.53740  -0.53366  -0.53224
 Alpha  occ. eigenvalues --   -0.52911  -0.52440  -0.52255  -0.52147  -0.51890
 Alpha  occ. eigenvalues --   -0.51730  -0.51404  -0.51318  -0.50958  -0.50753
 Alpha  occ. eigenvalues --   -0.50516  -0.49815  -0.49599  -0.49567  -0.49192
 Alpha  occ. eigenvalues --   -0.49027  -0.48889  -0.48586  -0.48044  -0.47995
 Alpha  occ. eigenvalues --   -0.47792  -0.47535  -0.47207  -0.46976  -0.46588
 Alpha  occ. eigenvalues --   -0.46376  -0.45928  -0.45809  -0.45495  -0.45435
 Alpha  occ. eigenvalues --   -0.45339  -0.44929  -0.44738  -0.44589  -0.44477
 Alpha  occ. eigenvalues --   -0.44328  -0.44018  -0.43867  -0.43628  -0.43524
 Alpha  occ. eigenvalues --   -0.43193  -0.42298  -0.42035  -0.41746  -0.41523
 Alpha  occ. eigenvalues --   -0.41380  -0.41238  -0.41143  -0.40943  -0.40862
 Alpha  occ. eigenvalues --   -0.40473  -0.40200  -0.39837  -0.39697  -0.39271
 Alpha  occ. eigenvalues --   -0.39184  -0.39020  -0.38809  -0.38206  -0.37871
 Alpha  occ. eigenvalues --   -0.37682  -0.37239  -0.37046  -0.36822  -0.36655
 Alpha  occ. eigenvalues --   -0.35369  -0.34412  -0.33767  -0.33641  -0.33591
 Alpha  occ. eigenvalues --   -0.33387  -0.32966  -0.32681  -0.32258  -0.31945
 Alpha  occ. eigenvalues --   -0.31560  -0.31201  -0.30484  -0.29743  -0.29435
 Alpha  occ. eigenvalues --   -0.28773  -0.28309  -0.26609
 Alpha virt. eigenvalues --   -0.12241  -0.11165  -0.07435  -0.06740  -0.06264
 Alpha virt. eigenvalues --   -0.05132  -0.04496  -0.04289  -0.03992  -0.03440
 Alpha virt. eigenvalues --   -0.03285  -0.02650  -0.01525  -0.01344  -0.00832

 Mulliken charges:
               1
     1  N   -0.760105
     2  H    0.416520
     3  H    0.414008
     4  H    0.438474
     5  C   -0.104852
     6  H    0.226013
     7  C    0.655202
     8  C   -0.484015
     9  H    0.222881
    10  H    0.195326
    11  H    0.196639
    12  O   -0.547065
    13  N   -0.606827
    14  H    0.374639
    15  C   -0.066882
    16  H    0.201446
    17  C    0.627941
    18  C   -0.349180
    19  H    0.174398
    20  H    0.158088
    21  O   -0.562827
    22  C    0.037129
    23  C    0.002879
    24  H    0.157120
    25  C    0.062978
    26  C    0.329421
    27  C   -0.226146
    28  H    0.129061
    29  N   -0.675271
    30  H    0.345645
    31  C   -0.150087
    32  H    0.137613
    33  C   -0.149388
    34  H    0.136017
    35  C   -0.137523
    36  H    0.129783
    37  N   -0.616649
    38  H    0.387465
    39  C   -0.056132
    40  H    0.172664
    41  C    0.608079
    42  C   -0.254310
    43  H    0.184160
    44  H    0.168319
    45  O   -0.535298
    46  C   -0.401425
    47  H    0.215696
    48  H    0.178927
    49  C    0.581892
    50  O   -0.462154
    51  O   -0.558741
    52  N   -0.600997
    53  H    0.356791
    54  C   -0.084928
    55  H    0.175908
    56  C    0.654220
    57  C   -0.063261
    58  H    0.147931
    59  O   -0.548882
    60  C   -0.488179
    61  H    0.128301
    62  H    0.154940
    63  H    0.206610
    64  C   -0.461397
    65  H    0.140304
    66  H    0.145799
    67  H    0.161127
    68  N   -0.612743
    69  H    0.356218
    70  C   -0.008392
    71  H    0.158181
    72  C    0.645144
    73  C    0.102337
    74  H    0.157935
    75  O   -0.546983
    76  C   -0.473816
    77  H    0.172092
    78  H    0.166345
    79  H    0.150520
    80  O   -0.644823
    81  H    0.405334
    82  N   -0.597880
    83  H    0.351881
    84  C   -0.062064
    85  H    0.170008
    86  C    0.630096
    87  C   -0.068286
    88  H    0.128238
    89  O   -0.555373
    90  C   -0.461594
    91  H    0.187589
    92  H    0.146018
    93  H    0.130822
    94  C   -0.475667
    95  H    0.174619
    96  H    0.141284
    97  H    0.152326
    98  N   -0.620955
    99  H    0.349609
   100  C    0.000943
   101  H    0.185680
   102  C    0.571525
   103  C   -0.282260
   104  H    0.145383
   105  H    0.172781
   106  O   -0.602295
   107  C   -0.285063
   108  H    0.169550
   109  H    0.143646
   110  C   -0.292140
   111  H    0.149086
   112  H    0.163373
   113  C   -0.141408
   114  H    0.145963
   115  H    0.162761
   116  N   -0.777686
   117  H    0.331511
   118  H    0.341070
   119  H    0.456579
   120  O   -0.507937
   121  H    0.415088
 Sum of Mulliken charges =   1.00000

 Dipole moment (field-independent basis, Debye):
    X=            -11.1255    Y=             -9.2273    Z=            -23.2601  Tot=             27.3852
 Quadrupole moment (field-independent basis, Debye-Ang):
   XX=            -94.2693   YY=           -277.7818   ZZ=            -33.8696
   XY=             77.0847   XZ=            238.9673   YZ=            128.4446

 Normal termination of Gaussian 16 at Sun Jul 10 13:37:52 2022.
