 Gaussian 16, Revision C.01,
 Gaussian 16:  ES64L-G16RevC.01  3-Jul-2019

 ----------------------------------------------------------------------
 # B3LYP/6-31G* empiricaldispersion=gd3bj guess=read geom=check nosymm
 integral(ultrafinegrid)
 ----------------------------------------------------------------------

 ------------------------------------------------------
 Candidate Structure: Conf:962 Charge calc in gas phase
 ------------------------------------------------------
 Structure from the checkpoint file:  "conf-962.chk"
 Charge =  1 Multiplicity = 1

                          Input orientation:
 ---------------------------------------------------------------------
 Center     Atomic      Atomic             Coordinates (Angstroms)
 Number     Number       Type             X           Y           Z
 ---------------------------------------------------------------------
      1          7           0       -6.539952   -1.369657   -7.157584
      2          1           0       -7.445306   -1.710592   -6.812117
      3          1           0       -6.582791   -1.306239   -8.180854
      4          1           0       -6.396830   -0.430610   -6.750080
      5          6           0       -5.397148   -2.232357   -6.677441
      6          1           0       -5.576261   -3.259861   -7.005682
      7          6           0       -5.439490   -2.091871   -5.151814
      8          6           0       -4.071481   -1.707536   -7.225257
      9          1           0       -3.260523   -2.355822   -6.884331
     10          1           0       -4.063922   -1.683926   -8.320093
     11          1           0       -3.878614   -0.700686   -6.840714
     12          8           0       -5.680564   -0.965297   -4.709294
     13          7           0       -5.172208   -3.185579   -4.438271
     14          1           0       -4.870303   -4.023168   -4.924220
     15          6           0       -4.894130   -3.146361   -2.993959
     16          1           0       -5.295919   -2.197420   -2.628711
     17          6           0       -3.363975   -3.116581   -2.781352
     18          6           0       -5.587938   -4.297115   -2.277216
     19          1           0       -5.321786   -5.242086   -2.771313
     20          1           0       -5.162627   -4.366927   -1.269963
     21          8           0       -2.770061   -4.013601   -2.205863
     22          6           0       -7.078897   -4.131898   -2.217687
     23          6           0       -7.844663   -3.061175   -2.617975
     24          1           0       -7.551825   -2.125826   -3.076011
     25          6           0       -7.991357   -5.110385   -1.678170
     26          6           0       -9.300816   -4.571211   -1.781991
     27          6           0       -7.819387   -6.388070   -1.119122
     28          1           0       -6.828431   -6.823772   -1.025690
     29          7           0       -9.180437   -3.322374   -2.362267
     30          1           0       -9.943413   -2.686151   -2.531133
     31          6           0      -10.230825   -6.527225   -0.793976
     32          1           0      -11.086019   -7.095689   -0.441413
     33          6           0      -10.431620   -5.266695   -1.342886
     34          1           0      -11.426844   -4.839379   -1.425979
     35          6           0       -8.939204   -7.083113   -0.683263
     36          1           0       -8.823494   -8.070580   -0.247155
     37          7           0       -2.764750   -2.029910   -3.352571
     38          1           0       -3.342959   -1.228349   -3.586227
     39          6           0       -1.357755   -1.722928   -3.124004
     40          1           0       -0.877506   -2.631278   -2.767457
     41          6           0       -1.293681   -0.603832   -2.079204
     42          6           0       -0.687667   -1.256578   -4.438018
     43          1           0       -0.492403   -2.143043   -5.050199
     44          1           0       -1.399625   -0.622114   -4.979554
     45          8           0       -1.974806    0.411885   -2.226984
     46          6           0        0.597430   -0.447386   -4.231956
     47          1           0        1.063004   -0.200431   -5.193167
     48          1           0        0.367553    0.509050   -3.749574
     49          6           0        1.619240   -1.157533   -3.369494
     50          8           0        1.513581   -2.295012   -2.955376
     51          8           0        2.660750   -0.358829   -3.075152
     52          7           0       -0.427098   -0.810999   -1.062719
     53          1           0        0.167484   -1.631869   -1.079756
     54          6           0       -0.099942    0.219041   -0.092730
     55          1           0       -0.604138    1.127371   -0.435074
     56          6           0        1.412003    0.448859   -0.143051
     57          6           0       -0.613325   -0.108744    1.331040
     58          1           0       -0.287778    0.724719    1.969254
     59          8           0        2.207757   -0.489734   -0.267028
     60          6           0       -2.147741   -0.152967    1.335766
     61          1           0       -2.505259   -1.065191    0.844334
     62          1           0       -2.526722   -0.155068    2.362739
     63          1           0       -2.580042    0.701691    0.804821
     64          6           0       -0.024003   -1.413483    1.880573
     65          1           0       -0.395177   -2.271650    1.307919
     66          1           0        1.067387   -1.425423    1.830282
     67          1           0       -0.321092   -1.556012    2.924085
     68          7           0        1.806255    1.730923   -0.019453
     69          1           0        1.132602    2.488146    0.008476
     70          6           0        3.192663    2.145301   -0.190085
     71          1           0        3.708882    1.334355   -0.712802
     72          6           0        3.854926    2.347870    1.181172
     73          6           0        3.241255    3.432954   -1.023827
     74          1           0        4.282681    3.779697   -1.034127
     75          8           0        4.217390    3.470553    1.563665
     76          6           0        2.751213    3.220991   -2.448332
     77          1           0        3.343391    2.450416   -2.952240
     78          1           0        1.702837    2.904195   -2.454457
     79          1           0        2.827262    4.155458   -3.010733
     80          8           0        2.405508    4.407831   -0.403882
     81          1           0        2.861920    4.620893    0.433370
     82          7           0        3.963825    1.230903    1.920724
     83          1           0        3.683540    0.347627    1.506627
     84          6           0        4.556267    1.229955    3.261970
     85          1           0        4.278201    2.183868    3.722175
     86          6           0        6.091465    1.164394    3.122571
     87          6           0        4.012236    0.083101    4.122227
     88          1           0        4.312733   -0.855799    3.638791
     89          8           0        6.702462    0.101373    3.156120
     90          6           0        4.636824    0.137865    5.522858
     91          1           0        4.398604    1.092129    6.009662
     92          1           0        5.723407    0.039351    5.483290
     93          1           0        4.234381   -0.666579    6.147900
     94          6           0        2.481619    0.147364    4.212778
     95          1           0        2.166602    1.039012    4.769339
     96          1           0        2.091012   -0.730626    4.738206
     97          1           0        2.007754    0.187303    3.227129
     98          7           0        6.681867    2.367142    2.934952
     99          1           0        6.092061    3.171988    2.759588
    100          6           0        8.127388    2.501331    2.972078
    101          1           0        8.576593    2.033929    2.090064
    102          6           0        8.734283    1.797384    4.231300
    103          6           0        8.482607    4.006194    3.053601
    104          1           0        7.773366    4.473303    3.746485
    105          1           0        8.341523    4.474988    2.070600
    106          8           0        9.841409    1.182203    3.978836
    107          6           0        9.891855    4.258938    3.605736
    108          1           0       10.079047    5.335883    3.705340
    109          1           0        9.872691    3.859573    4.625047
    110          6           0       11.028608    3.610364    2.801820
    111          1           0       10.714042    2.632119    2.433042
    112          1           0       11.287745    4.218953    1.927513
    113          6           0       12.274090    3.371994    3.653414
    114          1           0       12.678893    4.299331    4.070681
    115          1           0       13.065890    2.901044    3.066156
    116          7           0       11.928625    2.439086    4.794992
    117          1           0       12.706000    1.822555    5.036503
    118          1           0       11.671881    2.955116    5.638047
    119          1           0       11.031911    1.813365    4.533314
    120          8           0        8.207753    1.995624    5.327592
    121          1           0        3.174240   -0.813191   -2.376563
 ---------------------------------------------------------------------

 SCF Done:  E(RB3LYP) =  -2843.87393475     A.U. after    1 cycles

 Alpha  occ. eigenvalues --  -19.27567 -19.25782 -19.21084 -19.20573 -19.19043
 Alpha  occ. eigenvalues --  -19.18903 -19.18724 -19.17585 -19.12499 -19.10314
 Alpha  occ. eigenvalues --  -19.09142 -14.64567 -14.51654 -14.47973 -14.45149
 Alpha  occ. eigenvalues --  -14.45034 -14.43262 -14.43222 -14.41255 -14.36796
 Alpha  occ. eigenvalues --  -10.44844 -10.43423 -10.38913 -10.38252 -10.35839
 Alpha  occ. eigenvalues --  -10.35816 -10.35423 -10.34390 -10.34201 -10.30793
 Alpha  occ. eigenvalues --  -10.30423 -10.29651 -10.29601 -10.29551 -10.29202
 Alpha  occ. eigenvalues --  -10.28850 -10.28583 -10.28301 -10.27977 -10.27693
 Alpha  occ. eigenvalues --  -10.27664 -10.26060 -10.25930 -10.25659 -10.25225
 Alpha  occ. eigenvalues --  -10.24995 -10.24860 -10.24633 -10.24144 -10.23521
 Alpha  occ. eigenvalues --  -10.23187 -10.22967 -10.22793 -10.22721 -10.22454
 Alpha  occ. eigenvalues --  -10.22159 -10.21914 -10.20874 -10.18843  -1.21004
 Alpha  occ. eigenvalues --   -1.17542  -1.16972  -1.13108  -1.11142  -1.10427
 Alpha  occ. eigenvalues --   -1.09205  -1.08043  -1.07947  -1.06543  -1.04888
 Alpha  occ. eigenvalues --   -1.04672  -1.03689  -1.02232  -1.01420  -0.99827
 Alpha  occ. eigenvalues --   -0.99613  -0.97360  -0.95876  -0.94395  -0.93262
 Alpha  occ. eigenvalues --   -0.90582  -0.89882  -0.88514  -0.86665  -0.85384
 Alpha  occ. eigenvalues --   -0.85061  -0.84176  -0.82965  -0.82809  -0.81303
 Alpha  occ. eigenvalues --   -0.79961  -0.79719  -0.78787  -0.78355  -0.77862
 Alpha  occ. eigenvalues --   -0.76586  -0.76478  -0.75771  -0.74545  -0.74199
 Alpha  occ. eigenvalues --   -0.73838  -0.72394  -0.71891  -0.70751  -0.69663
 Alpha  occ. eigenvalues --   -0.68872  -0.67731  -0.67328  -0.66767  -0.66168
 Alpha  occ. eigenvalues --   -0.65862  -0.65825  -0.65168  -0.65001  -0.64063
 Alpha  occ. eigenvalues --   -0.63800  -0.63580  -0.63437  -0.62415  -0.62362
 Alpha  occ. eigenvalues --   -0.61127  -0.60899  -0.60375  -0.60203  -0.59873
 Alpha  occ. eigenvalues --   -0.59164  -0.58544  -0.57882  -0.57315  -0.56629
 Alpha  occ. eigenvalues --   -0.56193  -0.55775  -0.55699  -0.55592  -0.55148
 Alpha  occ. eigenvalues --   -0.55112  -0.54909  -0.54151  -0.53955  -0.53869
 Alpha  occ. eigenvalues --   -0.53819  -0.53572  -0.52845  -0.52575  -0.52114
 Alpha  occ. eigenvalues --   -0.51797  -0.51728  -0.51015  -0.50640  -0.50301
 Alpha  occ. eigenvalues --   -0.50087  -0.50001  -0.49899  -0.49417  -0.49185
 Alpha  occ. eigenvalues --   -0.49015  -0.48900  -0.48563  -0.48507  -0.47972
 Alpha  occ. eigenvalues --   -0.47470  -0.47346  -0.46942  -0.46739  -0.46237
 Alpha  occ. eigenvalues --   -0.46173  -0.45963  -0.45655  -0.45380  -0.45111
 Alpha  occ. eigenvalues --   -0.45058  -0.44683  -0.44353  -0.43976  -0.43752
 Alpha  occ. eigenvalues --   -0.43717  -0.43593  -0.43230  -0.42961  -0.42786
 Alpha  occ. eigenvalues --   -0.42568  -0.42235  -0.41937  -0.41915  -0.41808
 Alpha  occ. eigenvalues --   -0.41417  -0.41217  -0.40729  -0.40601  -0.40158
 Alpha  occ. eigenvalues --   -0.39877  -0.39734  -0.39694  -0.39463  -0.39253
 Alpha  occ. eigenvalues --   -0.38757  -0.38594  -0.38275  -0.38243  -0.37526
 Alpha  occ. eigenvalues --   -0.37335  -0.36734  -0.35960  -0.35656  -0.35565
 Alpha  occ. eigenvalues --   -0.34946  -0.34661  -0.34367  -0.34136  -0.33933
 Alpha  occ. eigenvalues --   -0.33714  -0.32333  -0.32012  -0.31756  -0.31574
 Alpha  occ. eigenvalues --   -0.29820  -0.28822  -0.27260  -0.27223  -0.26074
 Alpha  occ. eigenvalues --   -0.25800  -0.24456  -0.22937
 Alpha virt. eigenvalues --   -0.15269  -0.13261  -0.08703  -0.08325  -0.07658
 Alpha virt. eigenvalues --   -0.07263  -0.06259  -0.05964  -0.05516  -0.04726
 Alpha virt. eigenvalues --   -0.03830  -0.03662  -0.03231  -0.02802  -0.01935

 Mulliken charges:
               1
     1  N   -0.716336
     2  H    0.431104
     3  H    0.423789
     4  H    0.432125
     5  C   -0.141525
     6  H    0.215893
     7  C    0.654688
     8  C   -0.470772
     9  H    0.224933
    10  H    0.191094
    11  H    0.207962
    12  O   -0.541744
    13  N   -0.562566
    14  H    0.354734
    15  C   -0.127862
    16  H    0.216163
    17  C    0.622397
    18  C   -0.341759
    19  H    0.155671
    20  H    0.202795
    21  O   -0.484787
    22  C    0.067061
    23  C   -0.026299
    24  H    0.142589
    25  C    0.074165
    26  C    0.318017
    27  C   -0.209552
    28  H    0.133551
    29  N   -0.707478
    30  H    0.328760
    31  C   -0.148208
    32  H    0.140781
    33  C   -0.162189
    34  H    0.132366
    35  C   -0.138620
    36  H    0.138313
    37  N   -0.627011
    38  H    0.345737
    39  C   -0.060865
    40  H    0.214450
    41  C    0.612791
    42  C   -0.259303
    43  H    0.160557
    44  H    0.129973
    45  O   -0.554247
    46  C   -0.385277
    47  H    0.188713
    48  H    0.204400
    49  C    0.605170
    50  O   -0.475090
    51  O   -0.568209
    52  N   -0.599062
    53  H    0.373597
    54  C   -0.074585
    55  H    0.176037
    56  C    0.643097
    57  C   -0.078979
    58  H    0.144115
    59  O   -0.578231
    60  C   -0.450748
    61  H    0.146933
    62  H    0.157083
    63  H    0.155630
    64  C   -0.466081
    65  H    0.147009
    66  H    0.173124
    67  H    0.159256
    68  N   -0.590314
    69  H    0.353759
    70  C   -0.087718
    71  H    0.178962
    72  C    0.646067
    73  C    0.115853
    74  H    0.149628
    75  O   -0.564606
    76  C   -0.452796
    77  H    0.156243
    78  H    0.141526
    79  H    0.166492
    80  O   -0.650427
    81  H    0.418697
    82  N   -0.609796
    83  H    0.356492
    84  C   -0.047778
    85  H    0.164171
    86  C    0.645329
    87  C   -0.098210
    88  H    0.148995
    89  O   -0.529705
    90  C   -0.463710
    91  H    0.138224
    92  H    0.209435
    93  H    0.138228
    94  C   -0.459453
    95  H    0.142863
    96  H    0.149652
    97  H    0.135378
    98  N   -0.635237
    99  H    0.347940
   100  C    0.033692
   101  H    0.143181
   102  C    0.590044
   103  C   -0.304212
   104  H    0.157588
   105  H    0.136738
   106  O   -0.648904
   107  C   -0.294094
   108  H    0.136318
   109  H    0.151037
   110  C   -0.288997
   111  H    0.204788
   112  H    0.150634
   113  C   -0.172412
   114  H    0.177742
   115  H    0.185298
   116  N   -0.767684
   117  H    0.382192
   118  H    0.388819
   119  H    0.447332
   120  O   -0.548744
   121  H    0.436223
 Sum of Mulliken charges =   1.00000

 Dipole moment (field-independent basis, Debye):
    X=            -17.4031    Y=             -2.1446    Z=            -29.9803  Tot=             34.7316
 Quadrupole moment (field-independent basis, Debye-Ang):
   XX=             50.6802   YY=           -321.4123   ZZ=           -105.2722
   XY=            129.0415   XZ=            234.6698   YZ=             73.2527

 Normal termination of Gaussian 16 at Sun Jul 10 13:37:17 2022.
