 Gaussian 16, Revision C.01,
 Gaussian 16:  ES64L-G16RevC.01  3-Jul-2019

 ----------------------------------------------------------------------
 # B3LYP/6-31G* empiricaldispersion=gd3bj guess=read geom=check nosymm
 integral(ultrafinegrid)
 ----------------------------------------------------------------------

 ------------------------------------------------------
 Candidate Structure: Conf:448 Charge calc in gas phase
 ------------------------------------------------------
 Structure from the checkpoint file:  "conf-448.chk"
 Charge =  1 Multiplicity = 1

                          Input orientation:
 ---------------------------------------------------------------------
 Center     Atomic      Atomic             Coordinates (Angstroms)
 Number     Number       Type             X           Y           Z
 ---------------------------------------------------------------------
      1          7           0       -3.643715   -3.234859   -7.018510
      2          1           0       -3.338824   -2.252429   -7.107710
      3          1           0       -3.516711   -3.750197   -7.891898
      4          1           0       -3.030809   -3.650454   -6.254243
      5          6           0       -5.082899   -3.194487   -6.564918
      6          1           0       -5.681370   -2.906669   -7.435745
      7          6           0       -5.069886   -2.045978   -5.531263
      8          6           0       -5.505356   -4.552128   -6.016107
      9          1           0       -6.578401   -4.556983   -5.803346
     10          1           0       -5.318958   -5.344108   -6.748776
     11          1           0       -4.963165   -4.771040   -5.092422
     12          8           0       -4.145959   -1.225644   -5.585524
     13          7           0       -6.025673   -2.034925   -4.595524
     14          1           0       -6.718485   -2.773764   -4.588148
     15          6           0       -5.744896   -1.384226   -3.315490
     16          1           0       -5.643859   -0.308901   -3.483751
     17          6           0       -4.424098   -1.995006   -2.804561
     18          6           0       -6.874490   -1.671522   -2.286927
     19          1           0       -6.668835   -2.641594   -1.819827
     20          1           0       -6.798762   -0.919469   -1.495746
     21          8           0       -4.179959   -3.187657   -3.019503
     22          6           0       -8.244184   -1.699312   -2.889196
     23          6           0       -9.136399   -0.666759   -3.047613
     24          1           0       -9.071337    0.360531   -2.716822
     25          6           0       -8.839059   -2.855374   -3.514249
     26          6           0      -10.094209   -2.448521   -4.046015
     27          6           0       -8.424581   -4.190611   -3.680453
     28          1           0       -7.488399   -4.538022   -3.247847
     29          7           0      -10.244749   -1.110758   -3.741597
     30          1           0      -11.062611   -0.555587   -3.941969
     31          6           0      -10.487809   -4.640474   -4.898403
     32          1           0      -11.115234   -5.350096   -5.428490
     33          6           0      -10.928572   -3.331453   -4.736859
     34          1           0      -11.886841   -3.010116   -5.134134
     35          6           0       -9.250613   -5.068280   -4.375080
     36          1           0       -8.952083   -6.105206   -4.497532
     37          7           0       -3.590440   -1.186213   -2.136662
     38          1           0       -3.822658   -0.228108   -1.887045
     39          6           0       -2.359328   -1.682276   -1.548015
     40          1           0       -2.520530   -2.717271   -1.236019
     41          6           0       -2.065451   -0.780129   -0.339022
     42          6           0       -1.164195   -1.618427   -2.529874
     43          1           0       -0.901283   -0.564949   -2.679683
     44          1           0       -0.300912   -2.099499   -2.059457
     45          8           0       -2.604603    0.322495   -0.240824
     46          6           0       -1.419667   -2.222240   -3.916354
     47          1           0       -2.235440   -1.703066   -4.425336
     48          1           0       -0.524259   -2.067952   -4.535355
     49          6           0       -1.713760   -3.698297   -3.986913
     50          8           0       -2.188211   -4.271092   -4.968012
     51          8           0       -1.318031   -4.385612   -2.918097
     52          7           0       -1.174954   -1.283218    0.534500
     53          1           0       -0.681565   -2.147475    0.330425
     54          6           0       -0.556142   -0.507053    1.601528
     55          1           0       -0.747071    0.551302    1.398917
     56          6           0        0.941640   -0.830925    1.504764
     57          6           0       -1.134861   -0.874222    2.995444
     58          1           0       -0.889191   -1.931320    3.169197
     59          8           0        1.306421   -1.938491    1.107818
     60          6           0       -0.505348   -0.032703    4.113513
     61          1           0       -0.676833    1.038085    3.943497
     62          1           0       -0.964865   -0.286595    5.073999
     63          1           0        0.572156   -0.183693    4.214170
     64          6           0       -2.659995   -0.717645    2.997484
     65          1           0       -2.947414    0.316385    2.776611
     66          1           0       -3.133462   -1.363944    2.253240
     67          1           0       -3.063246   -0.981932    3.980654
     68          7           0        1.792670    0.161467    1.857170
     69          1           0        1.440997    0.944732    2.407694
     70          6           0        3.201524   -0.096623    2.123144
     71          1           0        3.336202   -1.168372    2.304200
     72          6           0        3.544392    0.716536    3.384621
     73          6           0        4.094946    0.339215    0.935954
     74          1           0        5.139903    0.171332    1.219186
     75          8           0        2.737831    1.525555    3.848418
     76          6           0        3.787949   -0.433323   -0.343809
     77          1           0        3.899809   -1.511805   -0.197238
     78          1           0        2.757101   -0.249028   -0.665996
     79          1           0        4.464527   -0.103364   -1.137487
     80          8           0        3.994582    1.743671    0.742019
     81          1           0        3.063806    1.931073    0.534265
     82          7           0        4.753448    0.462243    3.915143
     83          1           0        5.426044   -0.119819    3.424304
     84          6           0        5.363214    1.281795    4.952790
     85          1           0        4.818886    2.230861    4.992096
     86          6           0        6.812773    1.488212    4.487428
     87          6           0        5.298645    0.599193    6.345950
     88          1           0        5.895859   -0.320532    6.273861
     89          8           0        7.381038    0.614404    3.827361
     90          6           0        5.901160    1.490419    7.439735
     91          1           0        5.367316    2.447977    7.501951
     92          1           0        6.960074    1.703170    7.270747
     93          1           0        5.810405    1.002249    8.415380
     94          6           0        3.854449    0.219802    6.694187
     95          1           0        3.211663    1.106453    6.721442
     96          1           0        3.818703   -0.261546    7.677465
     97          1           0        3.434071   -0.475049    5.962039
     98          7           0        7.399963    2.642534    4.853732
     99          1           0        6.898041    3.351065    5.376718
    100          6           0        8.786768    2.953439    4.555413
    101          1           0        9.386802    2.047604    4.662475
    102          6           0        9.260105    3.999893    5.547286
    103          6           0        8.944620    3.503082    3.102023
    104          1           0        8.053857    4.103898    2.883006
    105          1           0        8.908502    2.634022    2.438927
    106          8           0       10.573434    3.962917    5.716799
    107          6           0       10.209206    4.346445    2.837846
    108          1           0       11.050816    3.925400    3.394953
    109          1           0       10.468636    4.260436    1.776819
    110          6           0       10.030403    5.850587    3.182625
    111          1           0        9.767091    6.387466    2.264180
    112          1           0        9.173917    5.987131    3.853116
    113          6           0       11.246886    6.552173    3.814337
    114          1           0       11.271722    7.604137    3.498238
    115          1           0       12.177279    6.090495    3.466154
    116          7           0       11.232069    6.458268    5.296966
    117          1           0       12.069884    6.886558    5.687832
    118          1           0       10.434939    6.978055    5.664950
    119          1           0       10.913515    4.933964    5.803366
    120          8           0        8.504744    4.835084    6.023331
    121          1           0       -1.547849   -5.323526   -3.064405
 ---------------------------------------------------------------------

 SCF Done:  E(RB3LYP) =  -2843.94770167     A.U. after    1 cycles

 Alpha  occ. eigenvalues --  -19.30572 -19.25676 -19.24658 -19.21220 -19.20102
 Alpha  occ. eigenvalues --  -19.19759 -19.19653 -19.18848 -19.17377 -19.17203
 Alpha  occ. eigenvalues --  -19.16216 -14.56223 -14.47365 -14.46382 -14.45458
 Alpha  occ. eigenvalues --  -14.43586 -14.42377 -14.41023 -14.40626 -14.39683
 Alpha  occ. eigenvalues --  -10.43798 -10.41523 -10.38547 -10.38321 -10.36878
 Alpha  occ. eigenvalues --  -10.35640 -10.35003 -10.34363 -10.33794 -10.33316
 Alpha  occ. eigenvalues --  -10.32170 -10.30656 -10.30522 -10.30278 -10.29968
 Alpha  occ. eigenvalues --  -10.29779 -10.29600 -10.29256 -10.28879 -10.28877
 Alpha  occ. eigenvalues --  -10.27783 -10.27352 -10.27192 -10.27130 -10.27000
 Alpha  occ. eigenvalues --  -10.26924 -10.26798 -10.26559 -10.26506 -10.25784
 Alpha  occ. eigenvalues --  -10.23916 -10.23001 -10.22994 -10.22976 -10.22956
 Alpha  occ. eigenvalues --  -10.22804 -10.22461 -10.21616 -10.21197  -1.21963
 Alpha  occ. eigenvalues --   -1.17147  -1.13387  -1.12662  -1.12495  -1.11787
 Alpha  occ. eigenvalues --   -1.10758  -1.10696  -1.09382  -1.08107  -1.07255
 Alpha  occ. eigenvalues --   -1.06270  -1.04437  -1.03999  -1.01942  -1.00381
 Alpha  occ. eigenvalues --   -0.98940  -0.97895  -0.97161  -0.95192  -0.92314
 Alpha  occ. eigenvalues --   -0.91402  -0.90008  -0.89002  -0.87178  -0.85576
 Alpha  occ. eigenvalues --   -0.85379  -0.84120  -0.82948  -0.82781  -0.81869
 Alpha  occ. eigenvalues --   -0.80362  -0.79812  -0.78726  -0.78461  -0.77135
 Alpha  occ. eigenvalues --   -0.76132  -0.75088  -0.74200  -0.73906  -0.73094
 Alpha  occ. eigenvalues --   -0.72351  -0.71716  -0.71387  -0.70668  -0.70196
 Alpha  occ. eigenvalues --   -0.68704  -0.68365  -0.67513  -0.67331  -0.67229
 Alpha  occ. eigenvalues --   -0.66389  -0.65618  -0.65367  -0.64582  -0.64254
 Alpha  occ. eigenvalues --   -0.63776  -0.63413  -0.63205  -0.62777  -0.62289
 Alpha  occ. eigenvalues --   -0.61947  -0.61477  -0.60990  -0.60259  -0.59421
 Alpha  occ. eigenvalues --   -0.59254  -0.58683  -0.58001  -0.57374  -0.56824
 Alpha  occ. eigenvalues --   -0.56246  -0.56001  -0.55910  -0.55533  -0.55393
 Alpha  occ. eigenvalues --   -0.55114  -0.54931  -0.54134  -0.53723  -0.53148
 Alpha  occ. eigenvalues --   -0.52841  -0.52584  -0.52408  -0.52166  -0.51952
 Alpha  occ. eigenvalues --   -0.51716  -0.51475  -0.51343  -0.51004  -0.50926
 Alpha  occ. eigenvalues --   -0.50864  -0.50857  -0.50543  -0.50044  -0.49980
 Alpha  occ. eigenvalues --   -0.49969  -0.49881  -0.49497  -0.49276  -0.49227
 Alpha  occ. eigenvalues --   -0.48773  -0.48341  -0.48035  -0.47941  -0.47576
 Alpha  occ. eigenvalues --   -0.47371  -0.47222  -0.46836  -0.46280  -0.46057
 Alpha  occ. eigenvalues --   -0.45918  -0.45811  -0.45613  -0.45588  -0.45134
 Alpha  occ. eigenvalues --   -0.44858  -0.44639  -0.44293  -0.43885  -0.43793
 Alpha  occ. eigenvalues --   -0.43670  -0.43567  -0.43384  -0.42928  -0.42596
 Alpha  occ. eigenvalues --   -0.42377  -0.42113  -0.41861  -0.41839  -0.41651
 Alpha  occ. eigenvalues --   -0.41549  -0.40888  -0.40353  -0.40237  -0.39658
 Alpha  occ. eigenvalues --   -0.39554  -0.39169  -0.38864  -0.38741  -0.38047
 Alpha  occ. eigenvalues --   -0.37988  -0.37942  -0.37901  -0.37610  -0.37358
 Alpha  occ. eigenvalues --   -0.37140  -0.35928  -0.35615  -0.35105  -0.34196
 Alpha  occ. eigenvalues --   -0.33737  -0.33613  -0.33182  -0.32439  -0.31937
 Alpha  occ. eigenvalues --   -0.31902  -0.31640  -0.31078  -0.30675  -0.30578
 Alpha  occ. eigenvalues --   -0.29692  -0.29212  -0.28757
 Alpha virt. eigenvalues --   -0.11600  -0.10043  -0.09740  -0.07344  -0.06659
 Alpha virt. eigenvalues --   -0.06100  -0.05828  -0.04661  -0.03407  -0.03083
 Alpha virt. eigenvalues --   -0.02583  -0.02016  -0.01866  -0.01590  -0.00662

 Mulliken charges:
               1
     1  N   -0.767795
     2  H    0.410472
     3  H    0.396762
     4  H    0.453634
     5  C   -0.121917
     6  H    0.218882
     7  C    0.664891
     8  C   -0.498800
     9  H    0.200718
    10  H    0.174007
    11  H    0.222742
    12  O   -0.541303
    13  N   -0.602413
    14  H    0.372311
    15  C   -0.021078
    16  H    0.181555
    17  C    0.625486
    18  C   -0.412767
    19  H    0.185701
    20  H    0.180150
    21  O   -0.567958
    22  C    0.073533
    23  C    0.011582
    24  H    0.169949
    25  C    0.052451
    26  C    0.322923
    27  C   -0.255862
    28  H    0.145654
    29  N   -0.687985
    30  H    0.343812
    31  C   -0.152659
    32  H    0.146781
    33  C   -0.155284
    34  H    0.146709
    35  C   -0.142372
    36  H    0.138608
    37  N   -0.602829
    38  H    0.361631
    39  C   -0.065444
    40  H    0.193725
    41  C    0.620136
    42  C   -0.269115
    43  H    0.168524
    44  H    0.179953
    45  O   -0.539707
    46  C   -0.411879
    47  H    0.219237
    48  H    0.193956
    49  C    0.679258
    50  O   -0.544621
    51  O   -0.537252
    52  N   -0.607124
    53  H    0.355717
    54  C   -0.060223
    55  H    0.176227
    56  C    0.614468
    57  C   -0.073145
    58  H    0.140304
    59  O   -0.545021
    60  C   -0.472894
    61  H    0.151464
    62  H    0.159586
    63  H    0.166753
    64  C   -0.444436
    65  H    0.159344
    66  H    0.143262
    67  H    0.152735
    68  N   -0.625951
    69  H    0.367540
    70  C   -0.096090
    71  H    0.183530
    72  C    0.649475
    73  C    0.132398
    74  H    0.156237
    75  O   -0.550754
    76  C   -0.452413
    77  H    0.159979
    78  H    0.136278
    79  H    0.161443
    80  O   -0.617448
    81  H    0.390799
    82  N   -0.611561
    83  H    0.356021
    84  C   -0.053656
    85  H    0.171964
    86  C    0.625422
    87  C   -0.069847
    88  H    0.140492
    89  O   -0.553375
    90  C   -0.466216
    91  H    0.144894
    92  H    0.160093
    93  H    0.156506
    94  C   -0.444517
    95  H    0.158987
    96  H    0.146325
    97  H    0.145996
    98  N   -0.612771
    99  H    0.351541
   100  C   -0.005467
   101  H    0.189066
   102  C    0.572871
   103  C   -0.281675
   104  H    0.149604
   105  H    0.172446
   106  O   -0.601079
   107  C   -0.285167
   108  H    0.169978
   109  H    0.143331
   110  C   -0.292023
   111  H    0.148529
   112  H    0.163469
   113  C   -0.141230
   114  H    0.145302
   115  H    0.162838
   116  N   -0.777726
   117  H    0.331887
   118  H    0.341143
   119  H    0.456989
   120  O   -0.507869
   121  H    0.429751
 Sum of Mulliken charges =   1.00000

 Dipole moment (field-independent basis, Debye):
    X=            -14.1763    Y=             -6.8040    Z=            -20.0280  Tot=             25.4633
 Quadrupole moment (field-independent basis, Debye-Ang):
   XX=            -90.2847   YY=           -256.7733   ZZ=           -175.9422
   XY=            116.4517   XZ=            148.9513   YZ=             96.5037

 Normal termination of Gaussian 16 at Sun Jul 10 13:37:13 2022.
