 Gaussian 16, Revision C.01,
 Gaussian 16:  ES64L-G16RevC.01  3-Jul-2019

 ----------------------------------------------------------------------
 # B3LYP/6-31G* empiricaldispersion=gd3bj guess=read geom=check nosymm
 integral(ultrafinegrid)
 ----------------------------------------------------------------------

 -----------------------------------------------------
 Candidate Structure: Conf:34 Charge calc in gas phase
 -----------------------------------------------------
 Structure from the checkpoint file:  "conf-34.chk"
 Charge =  1 Multiplicity = 1

                          Input orientation:
 ---------------------------------------------------------------------
 Center     Atomic      Atomic             Coordinates (Angstroms)
 Number     Number       Type             X           Y           Z
 ---------------------------------------------------------------------
      1          7           0       -4.881965    0.973963   -8.450416
      2          1           0       -5.335189    1.629034   -7.784616
      3          1           0       -5.024686    1.269735   -9.418541
      4          1           0       -3.848635    1.029154   -8.226016
      5          6           0       -5.483744   -0.378155   -8.155473
      6          1           0       -6.422271   -0.430979   -8.716742
      7          6           0       -5.797234   -0.302187   -6.639607
      8          6           0       -4.535484   -1.503315   -8.561256
      9          1           0       -5.063113   -2.461029   -8.543379
     10          1           0       -4.172960   -1.360256   -9.583808
     11          1           0       -3.686056   -1.573682   -7.876603
     12          8           0       -5.776322    0.809117   -6.103327
     13          7           0       -6.047936   -1.455357   -5.990858
     14          1           0       -5.788321   -2.309062   -6.471898
     15          6           0       -5.764822   -1.506558   -4.545224
     16          1           0       -6.154310   -0.588731   -4.107700
     17          6           0       -4.230482   -1.545278   -4.435928
     18          6           0       -6.395981   -2.732496   -3.866561
     19          1           0       -7.486814   -2.658802   -3.955233
     20          1           0       -6.079624   -3.638912   -4.396817
     21          8           0       -3.584271   -2.237049   -5.231078
     22          6           0       -5.943094   -2.790747   -2.438843
     23          6           0       -5.112017   -3.730241   -1.878842
     24          1           0       -4.710584   -4.637521   -2.308509
     25          6           0       -6.152674   -1.771650   -1.437112
     26          6           0       -5.418708   -2.164794   -0.284278
     27          6           0       -6.870807   -0.562201   -1.403754
     28          1           0       -7.464145   -0.242311   -2.256672
     29          7           0       -4.796257   -3.361192   -0.586619
     30          1           0       -4.244748   -3.907048    0.056892
     31          6           0       -6.110150   -0.207622    0.883135
     32          1           0       -6.108965    0.413921    1.773002
     33          6           0       -5.397522   -1.399819    0.884268
     34          1           0       -4.843734   -1.723268    1.760171
     35          6           0       -6.838357    0.208585   -0.249046
     36          1           0       -7.390293    1.142625   -0.211111
     37          7           0       -3.674914   -0.726180   -3.526434
     38          1           0       -4.227198   -0.290593   -2.789822
     39          6           0       -2.235838   -0.605765   -3.377493
     40          1           0       -1.783646   -1.561004   -3.661981
     41          6           0       -1.976179   -0.288741   -1.898642
     42          6           0       -1.661674    0.522145   -4.276053
     43          1           0       -1.947031    1.493195   -3.855951
     44          1           0       -0.568583    0.469567   -4.263868
     45          8           0       -2.852407    0.232622   -1.213511
     46          6           0       -2.200915    0.396879   -5.704059
     47          1           0       -2.024098   -0.617553   -6.083022
     48          1           0       -3.285740    0.526127   -5.692969
     49          6           0       -1.688602    1.339483   -6.751948
     50          8           0       -2.258414    1.525043   -7.828278
     51          8           0       -0.540663    1.943516   -6.460898
     52          7           0       -0.742341   -0.601568   -1.451240
     53          1           0       -0.031756   -0.970864   -2.072836
     54          6           0       -0.270488   -0.254262   -0.118523
     55          1           0       -0.922039    0.538109    0.262354
     56          6           0        1.164228    0.242859   -0.296091
     57          6           0       -0.321880   -1.464900    0.855010
     58          1           0        0.369546   -2.219905    0.455957
     59          8           0        1.898309   -0.300814   -1.138456
     60          6           0        0.140597   -1.069302    2.263335
     61          1           0       -0.486503   -0.266346    2.671278
     62          1           0        0.059864   -1.925654    2.940149
     63          1           0        1.179346   -0.728312    2.281670
     64          6           0       -1.733648   -2.061132    0.895631
     65          1           0       -2.464517   -1.315691    1.224508
     66          1           0       -2.049837   -2.420428   -0.087537
     67          1           0       -1.759970   -2.905176    1.594452
     68          7           0        1.550668    1.237787    0.510752
     69          1           0        0.885513    1.721759    1.110622
     70          6           0        2.905244    1.763259    0.621715
     71          1           0        3.608019    0.936610    0.779274
     72          6           0        2.865978    2.676523    1.855572
     73          6           0        3.357086    2.496229   -0.686023
     74          1           0        2.453272    2.979609   -1.091128
     75          8           0        1.815576    3.228090    2.183206
     76          6           0        4.420272    3.568786   -0.476227
     77          1           0        4.055186    4.397952    0.135560
     78          1           0        5.306991    3.146716    0.007797
     79          1           0        4.709056    3.954052   -1.459366
     80          8           0        3.900337    1.565158   -1.600626
     81          1           0        3.287533    0.798736   -1.628501
     82          7           0        4.036615    2.801907    2.508373
     83          1           0        4.873386    2.378283    2.125765
     84          6           0        4.315939    3.847364    3.485740
     85          1           0        3.463310    4.530535    3.490299
     86          6           0        5.577589    4.576141    3.009257
     87          6           0        4.502849    3.255960    4.908038
     88          1           0        5.237400    2.443288    4.812350
     89          8           0        6.480668    3.869459    2.461265
     90          6           0        5.052621    4.292083    5.899024
     91          1           0        4.471925    5.221016    5.897819
     92          1           0        6.088449    4.562481    5.671951
     93          1           0        5.033243    3.879804    6.913172
     94          6           0        3.175899    2.663910    5.395558
     95          1           0        2.426619    3.452727    5.528206
     96          1           0        3.314157    2.163805    6.359963
     97          1           0        2.772368    1.933830    4.686850
     98          7           0        5.575356    5.874203    3.251674
     99          1           0        4.787243    6.310529    3.807863
    100          6           0        6.639980    6.879880    3.411435
    101          1           0        7.491058    6.411627    3.922019
    102          6           0        6.001958    7.975762    4.365557
    103          6           0        7.140897    7.494451    2.092915
    104          1           0        7.998579    8.128095    2.332773
    105          1           0        6.370562    8.133426    1.646626
    106          8           0        6.735198    8.941275    4.598184
    107          6           0        7.473862    6.308431    1.204204
    108          1           0        8.021361    5.623312    1.858171
    109          1           0        6.512702    5.824541    0.997744
    110          6           0        8.232365    6.345120   -0.118336
    111          1           0        7.844555    7.096591   -0.815163
    112          1           0        9.298476    6.557793    0.026039
    113          6           0        8.030585    4.966400   -0.767084
    114          1           0        8.761402    4.730000   -1.544196
    115          1           0        7.025963    4.880747   -1.186735
    116          7           0        8.111260    3.848494    0.269796
    117          1           0        7.931197    2.940807   -0.167670
    118          1           0        9.044445    3.807011    0.691043
    119          1           0        7.420151    3.961913    1.088785
    120          8           0        4.818916    7.700893    4.731198
    121          1           0       -0.291659    2.508397   -7.218964
 ---------------------------------------------------------------------

 SCF Done:  E(RB3LYP) =  -2843.87432318     A.U. after    3 cycles

 Alpha  occ. eigenvalues --  -19.32637 -19.27684 -19.26639 -19.21649 -19.21039
 Alpha  occ. eigenvalues --  -19.20521 -19.19671 -19.18857 -19.18802 -19.08012
 Alpha  occ. eigenvalues --  -19.06482 -14.57742 -14.54772 -14.49140 -14.45646
 Alpha  occ. eigenvalues --  -14.45372 -14.44938 -14.44640 -14.42737 -14.39332
 Alpha  occ. eigenvalues --  -10.45556 -10.43400 -10.40366 -10.38672 -10.37816
 Alpha  occ. eigenvalues --  -10.37722 -10.36042 -10.34995 -10.34559 -10.33831
 Alpha  occ. eigenvalues --  -10.33225 -10.32918 -10.31548 -10.31526 -10.31126
 Alpha  occ. eigenvalues --  -10.31101 -10.30040 -10.29639 -10.29043 -10.28969
 Alpha  occ. eigenvalues --  -10.28286 -10.27990 -10.27388 -10.26110 -10.25738
 Alpha  occ. eigenvalues --  -10.25691 -10.25641 -10.25636 -10.25607 -10.25029
 Alpha  occ. eigenvalues --  -10.24809 -10.24711 -10.24681 -10.24674 -10.24062
 Alpha  occ. eigenvalues --  -10.23970 -10.22210 -10.21428 -10.20500  -1.23926
 Alpha  occ. eigenvalues --   -1.18946  -1.14626  -1.13869  -1.13077  -1.12375
 Alpha  occ. eigenvalues --   -1.12246  -1.10896  -1.09628  -1.08416  -1.07730
 Alpha  occ. eigenvalues --   -1.05828  -1.05209  -1.02436  -1.01531  -1.01128
 Alpha  occ. eigenvalues --   -1.01109  -0.99434  -0.96259  -0.92891  -0.92260
 Alpha  occ. eigenvalues --   -0.91393  -0.90861  -0.89401  -0.88839  -0.88723
 Alpha  occ. eigenvalues --   -0.86184  -0.85202  -0.84211  -0.83773  -0.82582
 Alpha  occ. eigenvalues --   -0.80921  -0.80774  -0.80392  -0.79138  -0.78404
 Alpha  occ. eigenvalues --   -0.77045  -0.76314  -0.75801  -0.75055  -0.74679
 Alpha  occ. eigenvalues --   -0.73129  -0.72587  -0.72083  -0.71659  -0.70658
 Alpha  occ. eigenvalues --   -0.69845  -0.69318  -0.69277  -0.68506  -0.68446
 Alpha  occ. eigenvalues --   -0.67916  -0.67546  -0.66405  -0.66347  -0.66265
 Alpha  occ. eigenvalues --   -0.65460  -0.65032  -0.64682  -0.63667  -0.63609
 Alpha  occ. eigenvalues --   -0.63156  -0.61875  -0.61327  -0.61161  -0.60771
 Alpha  occ. eigenvalues --   -0.60450  -0.60346  -0.59600  -0.59245  -0.59027
 Alpha  occ. eigenvalues --   -0.58706  -0.58036  -0.57809  -0.57474  -0.56767
 Alpha  occ. eigenvalues --   -0.56648  -0.56015  -0.55626  -0.55465  -0.54802
 Alpha  occ. eigenvalues --   -0.54304  -0.53982  -0.53792  -0.53608  -0.53449
 Alpha  occ. eigenvalues --   -0.53306  -0.52725  -0.52675  -0.52312  -0.51884
 Alpha  occ. eigenvalues --   -0.51818  -0.51773  -0.51229  -0.50966  -0.50594
 Alpha  occ. eigenvalues --   -0.50431  -0.50180  -0.50043  -0.49886  -0.49737
 Alpha  occ. eigenvalues --   -0.49225  -0.49105  -0.48830  -0.48443  -0.48310
 Alpha  occ. eigenvalues --   -0.48158  -0.47620  -0.47349  -0.47209  -0.46866
 Alpha  occ. eigenvalues --   -0.46790  -0.46711  -0.46217  -0.46106  -0.46022
 Alpha  occ. eigenvalues --   -0.45889  -0.45452  -0.45356  -0.45223  -0.44929
 Alpha  occ. eigenvalues --   -0.44574  -0.44358  -0.43907  -0.43644  -0.43316
 Alpha  occ. eigenvalues --   -0.42881  -0.42260  -0.42193  -0.41994  -0.41648
 Alpha  occ. eigenvalues --   -0.41564  -0.41412  -0.40972  -0.40835  -0.40779
 Alpha  occ. eigenvalues --   -0.40429  -0.40127  -0.39730  -0.39485  -0.39187
 Alpha  occ. eigenvalues --   -0.38417  -0.38005  -0.37673  -0.37106  -0.36832
 Alpha  occ. eigenvalues --   -0.36302  -0.35638  -0.35300  -0.35191  -0.34608
 Alpha  occ. eigenvalues --   -0.34366  -0.34107  -0.33842  -0.33504  -0.33278
 Alpha  occ. eigenvalues --   -0.31837  -0.31412  -0.30907  -0.29233  -0.27660
 Alpha  occ. eigenvalues --   -0.23144  -0.22793  -0.20748
 Alpha virt. eigenvalues --   -0.13193  -0.12160  -0.08534  -0.08444  -0.07926
 Alpha virt. eigenvalues --   -0.07406  -0.07151  -0.06141  -0.04882  -0.04596
 Alpha virt. eigenvalues --   -0.04009  -0.03854  -0.03767  -0.02531  -0.01489

 Mulliken charges:
               1
     1  N   -0.774102
     2  H    0.418472
     3  H    0.402805
     4  H    0.447784
     5  C   -0.115122
     6  H    0.226635
     7  C    0.650628
     8  C   -0.493069
     9  H    0.197967
    10  H    0.188121
    11  H    0.216744
    12  O   -0.525150
    13  N   -0.574347
    14  H    0.353958
    15  C   -0.080105
    16  H    0.200602
    17  C    0.626759
    18  C   -0.357114
    19  H    0.176962
    20  H    0.156229
    21  O   -0.570443
    22  C    0.039802
    23  C    0.009858
    24  H    0.162890
    25  C    0.065357
    26  C    0.327673
    27  C   -0.231264
    28  H    0.126296
    29  N   -0.689854
    30  H    0.339413
    31  C   -0.144221
    32  H    0.142269
    33  C   -0.150052
    34  H    0.138415
    35  C   -0.130598
    36  H    0.136999
    37  N   -0.601487
    38  H    0.382652
    39  C   -0.064265
    40  H    0.184077
    41  C    0.628125
    42  C   -0.265150
    43  H    0.176628
    44  H    0.175434
    45  O   -0.525650
    46  C   -0.412298
    47  H    0.225207
    48  H    0.191393
    49  C    0.625192
    50  O   -0.524121
    51  O   -0.523746
    52  N   -0.616200
    53  H    0.350608
    54  C   -0.048715
    55  H    0.183489
    56  C    0.630971
    57  C   -0.074617
    58  H    0.143453
    59  O   -0.578570
    60  C   -0.464412
    61  H    0.154660
    62  H    0.162009
    63  H    0.157376
    64  C   -0.464434
    65  H    0.172620
    66  H    0.145756
    67  H    0.144323
    68  N   -0.617000
    69  H    0.369172
    70  C   -0.067965
    71  H    0.169772
    72  C    0.598623
    73  C    0.171809
    74  H    0.130455
    75  O   -0.535215
    76  C   -0.478843
    77  H    0.179815
    78  H    0.112728
    79  H    0.162681
    80  O   -0.668390
    81  H    0.429815
    82  N   -0.593995
    83  H    0.336668
    84  C   -0.069476
    85  H    0.195335
    86  C    0.629452
    87  C   -0.066747
    88  H    0.124773
    89  O   -0.653340
    90  C   -0.475902
    91  H    0.193313
    92  H    0.154213
    93  H    0.149833
    94  C   -0.446891
    95  H    0.162191
    96  H    0.149778
    97  H    0.140212
    98  N   -0.596310
    99  H    0.387531
   100  C   -0.094344
   101  H    0.151393
   102  C    0.603485
   103  C   -0.257295
   104  H    0.175626
   105  H    0.152256
   106  O   -0.567361
   107  C   -0.293840
   108  H    0.131339
   109  H    0.148176
   110  C   -0.273328
   111  H    0.180199
   112  H    0.164401
   113  C   -0.196005
   114  H    0.192473
   115  H    0.212160
   116  N   -0.784891
   117  H    0.400052
   118  H    0.400765
   119  H    0.470174
   120  O   -0.614565
   121  H    0.433528
 Sum of Mulliken charges =   1.00000

 Dipole moment (field-independent basis, Debye):
    X=             -7.9698    Y=            -10.6063    Z=            -38.8175  Tot=             41.0221
 Quadrupole moment (field-independent basis, Debye-Ang):
   XX=           -142.3084   YY=           -453.5610   ZZ=           -139.9722
   XY=             -7.6548   XZ=             77.6222   YZ=           -118.6937

 Normal termination of Gaussian 16 at Sun Jul 10 13:39:23 2022.
