 Gaussian 16, Revision C.01,
 Gaussian 16:  ES64L-G16RevC.01  3-Jul-2019

 ----------------------------------------------------------------------
 # B3LYP/6-31G* empiricaldispersion=gd3bj guess=read geom=check nosymm
 integral(ultrafinegrid)
 ----------------------------------------------------------------------

 ------------------------------------------------------
 Candidate Structure: Conf:304 Charge calc in gas phase
 ------------------------------------------------------
 Structure from the checkpoint file:  "conf-304.chk"
 Charge =  1 Multiplicity = 1

                          Input orientation:
 ---------------------------------------------------------------------
 Center     Atomic      Atomic             Coordinates (Angstroms)
 Number     Number       Type             X           Y           Z
 ---------------------------------------------------------------------
      1          7           0       -7.108606   -6.513762   -2.081453
      2          1           0       -7.734981   -6.660534   -1.285503
      3          1           0       -7.015215   -7.397891   -2.589533
      4          1           0       -7.508680   -5.752715   -2.719844
      5          6           0       -5.772696   -5.907410   -1.697267
      6          1           0       -5.743649   -5.828891   -0.607941
      7          6           0       -5.850323   -4.495974   -2.343140
      8          6           0       -4.613360   -6.750086   -2.222219
      9          1           0       -3.663463   -6.280086   -1.954808
     10          1           0       -4.620939   -7.752238   -1.782567
     11          1           0       -4.648843   -6.829577   -3.313977
     12          8           0       -6.838087   -4.243464   -3.052475
     13          7           0       -4.841344   -3.675628   -2.100721
     14          1           0       -4.042638   -3.925890   -1.516244
     15          6           0       -4.736148   -2.323486   -2.641841
     16          1           0       -5.039565   -2.336996   -3.691183
     17          6           0       -3.249527   -1.964998   -2.512698
     18          6           0       -5.642955   -1.328280   -1.853677
     19          1           0       -6.679202   -1.644957   -2.019932
     20          1           0       -5.425155   -1.444401   -0.786304
     21          8           0       -2.550670   -2.559883   -1.679978
     22          6           0       -5.398539    0.081420   -2.281339
     23          6           0       -4.758593    1.051203   -1.548232
     24          1           0       -4.425088    1.023864   -0.520559
     25          6           0       -5.545843    0.606762   -3.619468
     26          6           0       -4.956812    1.904623   -3.618059
     27          6           0       -6.070156    0.095702   -4.822120
     28          1           0       -6.553700   -0.877940   -4.848018
     29          7           0       -4.532406    2.162872   -2.329675
     30          1           0       -3.851695    2.869590   -2.089879
     31          6           0       -5.381007    2.142910   -5.951420
     32          1           0       -5.325862    2.720071   -6.869105
     33          6           0       -4.867438    2.681209   -4.777227
     34          1           0       -4.414340    3.667714   -4.759659
     35          6           0       -5.980235    0.866623   -5.974159
     36          1           0       -6.383108    0.486604   -6.907843
     37          7           0       -2.791576   -1.001875   -3.332571
     38          1           0       -3.473651   -0.454625   -3.851634
     39          6           0       -1.464211   -0.416949   -3.139241
     40          1           0       -0.789219   -1.248018   -2.914167
     41          6           0       -1.487234    0.553418   -1.937023
     42          6           0       -0.989449    0.326405   -4.385735
     43          1           0       -1.070195   -0.322345   -5.262068
     44          1           0       -1.635030    1.197259   -4.538867
     45          8           0       -1.672884    1.762764   -2.084502
     46          6           0        0.466784    0.783887   -4.184401
     47          1           0        0.582088    1.286241   -3.223271
     48          1           0        1.135072   -0.086717   -4.201419
     49          6           0        0.950213    1.757532   -5.228154
     50          8           0        1.465815    2.835410   -4.988083
     51          8           0        0.766586    1.312172   -6.481778
     52          7           0       -1.276790   -0.022334   -0.735875
     53          1           0       -1.112546   -1.021042   -0.694102
     54          6           0       -1.044008    0.786071    0.461111
     55          1           0       -1.698672    1.659679    0.391442
     56          6           0        0.429690    1.224562    0.389093
     57          6           0       -1.352799    0.000368    1.740861
     58          1           0       -0.643790   -0.836484    1.782278
     59          8           0        1.327610    0.458721    0.746642
     60          6           0       -1.116374    0.886447    2.969998
     61          1           0       -1.781202    1.759251    2.958385
     62          1           0       -1.317606    0.326466    3.888427
     63          1           0       -0.083053    1.241510    3.018350
     64          6           0       -2.785335   -0.547965    1.718148
     65          1           0       -3.514621    0.272256    1.680167
     66          1           0       -2.962777   -1.202321    0.857628
     67          1           0       -2.985785   -1.121662    2.628936
     68          7           0        0.645117    2.451854   -0.142986
     69          1           0       -0.096761    2.857165   -0.710675
     70          6           0        1.995153    2.894900   -0.490632
     71          1           0        2.534808    2.049083   -0.937196
     72          6           0        2.768418    3.342910    0.773834
     73          6           0        1.910304    4.059710   -1.502281
     74          1           0        1.667000    4.956476   -0.923464
     75          8           0        2.899519    4.549893    1.067628
     76          6           0        3.247800    4.242962   -2.215381
     77          1           0        4.078363    4.281912   -1.502304
     78          1           0        3.439383    3.398067   -2.886634
     79          1           0        3.240608    5.154363   -2.822738
     80          8           0        0.830765    3.876181   -2.403507
     81          1           0        1.156521    3.519977   -3.254460
     82          7           0        3.260669    2.353689    1.507988
     83          1           0        3.008999    1.411777    1.220689
     84          6           0        4.157802    2.520091    2.649222
     85          1           0        3.654084    3.119182    3.416112
     86          6           0        5.440613    3.251863    2.202864
     87          6           0        4.470539    1.110502    3.213669
     88          1           0        4.734348    0.488465    2.344998
     89          8           0        5.913889    3.058760    1.074988
     90          6           0        5.671378    1.105368    4.167887
     91          1           0        5.580938    1.835360    4.978033
     92          1           0        6.600435    1.336830    3.638813
     93          1           0        5.780430    0.108513    4.608678
     94          6           0        3.222665    0.517594    3.884146
     95          1           0        2.938553    1.117145    4.757542
     96          1           0        3.426782   -0.500602    4.232432
     97          1           0        2.364918    0.470313    3.203615
     98          7           0        5.933437    4.078294    3.139631
     99          1           0        5.587516    3.990624    4.122652
    100          6           0        7.347824    4.424033    3.311036
    101          1           0        7.962889    3.698402    2.767689
    102          6           0        7.606566    4.254983    4.881622
    103          6           0        7.781203    5.844288    2.913560
    104          1           0        8.747328    5.960205    3.412793
    105          1           0        7.107260    6.572910    3.388821
    106          8           0        8.773829    4.445018    5.243330
    107          6           0        7.946999    6.169072    1.411807
    108          1           0        8.836278    6.793829    1.269801
    109          1           0        8.121144    5.243020    0.849589
    110          6           0        6.760286    6.920926    0.776157
    111          1           0        6.602703    7.871735    1.305846
    112          1           0        6.989385    7.163166   -0.271956
    113          6           0        5.526878    6.053565    0.863191
    114          1           0        5.258595    5.831826    1.895130
    115          1           0        5.674305    5.090895    0.371631
    116          7           0        4.277824    6.653828    0.252198
    117          1           0        3.521282    5.932094    0.402097
    118          1           0        4.015440    7.528798    0.714188
    119          1           0        4.389731    6.844053   -0.746768
    120          8           0        6.565047    3.974964    5.549621
    121          1           0        1.110892    1.997896   -7.086405
 ---------------------------------------------------------------------

 SCF Done:  E(RB3LYP) =  -2843.87487547     A.U. after    3 cycles

 Alpha  occ. eigenvalues --  -19.29323 -19.29238 -19.24881 -19.24105 -19.21869
 Alpha  occ. eigenvalues --  -19.21131 -19.20273 -19.19604 -19.13383 -19.05562
 Alpha  occ. eigenvalues --  -19.04260 -14.62063 -14.52187 -14.51851 -14.48224
 Alpha  occ. eigenvalues --  -14.46375 -14.46048 -14.44012 -14.41867 -14.35104
 Alpha  occ. eigenvalues --  -10.45885 -10.43430 -10.42111 -10.41526 -10.38748
 Alpha  occ. eigenvalues --  -10.36986 -10.36607 -10.35996 -10.35869 -10.34269
 Alpha  occ. eigenvalues --  -10.31873 -10.31535 -10.31103 -10.31036 -10.30849
 Alpha  occ. eigenvalues --  -10.30571 -10.30061 -10.29701 -10.29589 -10.28792
 Alpha  occ. eigenvalues --  -10.27829 -10.27768 -10.27721 -10.27703 -10.27561
 Alpha  occ. eigenvalues --  -10.27053 -10.26858 -10.26641 -10.26182 -10.25817
 Alpha  occ. eigenvalues --  -10.24750 -10.24563 -10.23214 -10.23081 -10.21387
 Alpha  occ. eigenvalues --  -10.21061 -10.20548 -10.18768 -10.18525  -1.21688
 Alpha  occ. eigenvalues --   -1.20439  -1.16743  -1.15887  -1.13897  -1.12105
 Alpha  occ. eigenvalues --   -1.11345  -1.10691  -1.08853  -1.08575  -1.06772
 Alpha  occ. eigenvalues --   -1.06745  -1.04878  -1.04701  -1.02528  -1.00337
 Alpha  occ. eigenvalues --   -0.98607  -0.98447  -0.95767  -0.92948  -0.92466
 Alpha  occ. eigenvalues --   -0.92077  -0.90620  -0.89572  -0.89184  -0.87042
 Alpha  occ. eigenvalues --   -0.85851  -0.85046  -0.84107  -0.83801  -0.83404
 Alpha  occ. eigenvalues --   -0.82296  -0.81300  -0.80550  -0.78323  -0.77967
 Alpha  occ. eigenvalues --   -0.77622  -0.76556  -0.76294  -0.75033  -0.74942
 Alpha  occ. eigenvalues --   -0.74275  -0.73098  -0.72407  -0.71437  -0.71020
 Alpha  occ. eigenvalues --   -0.71008  -0.70005  -0.69228  -0.68945  -0.68435
 Alpha  occ. eigenvalues --   -0.67916  -0.67644  -0.66704  -0.66324  -0.66223
 Alpha  occ. eigenvalues --   -0.65918  -0.65526  -0.65173  -0.63206  -0.62737
 Alpha  occ. eigenvalues --   -0.62485  -0.61880  -0.61290  -0.61006  -0.60590
 Alpha  occ. eigenvalues --   -0.60540  -0.59865  -0.59504  -0.59259  -0.58233
 Alpha  occ. eigenvalues --   -0.58203  -0.57877  -0.57273  -0.57146  -0.56965
 Alpha  occ. eigenvalues --   -0.56599  -0.56510  -0.56222  -0.56118  -0.55877
 Alpha  occ. eigenvalues --   -0.55216  -0.54950  -0.54158  -0.53982  -0.53900
 Alpha  occ. eigenvalues --   -0.53334  -0.53041  -0.52813  -0.52592  -0.52249
 Alpha  occ. eigenvalues --   -0.51891  -0.51788  -0.51604  -0.51394  -0.50956
 Alpha  occ. eigenvalues --   -0.50751  -0.50404  -0.50022  -0.49498  -0.49144
 Alpha  occ. eigenvalues --   -0.49100  -0.48652  -0.48574  -0.48264  -0.48005
 Alpha  occ. eigenvalues --   -0.47429  -0.47210  -0.47117  -0.46769  -0.46728
 Alpha  occ. eigenvalues --   -0.46328  -0.46244  -0.45967  -0.45693  -0.45453
 Alpha  occ. eigenvalues --   -0.45301  -0.45022  -0.44558  -0.44514  -0.44226
 Alpha  occ. eigenvalues --   -0.44095  -0.43865  -0.43230  -0.42635  -0.42426
 Alpha  occ. eigenvalues --   -0.42147  -0.41957  -0.41879  -0.41589  -0.41569
 Alpha  occ. eigenvalues --   -0.41485  -0.41214  -0.40767  -0.40370  -0.39918
 Alpha  occ. eigenvalues --   -0.39567  -0.39304  -0.38865  -0.38589  -0.37313
 Alpha  occ. eigenvalues --   -0.37129  -0.37016  -0.36715  -0.36318  -0.36262
 Alpha  occ. eigenvalues --   -0.36061  -0.35747  -0.35133  -0.34893  -0.34583
 Alpha  occ. eigenvalues --   -0.34176  -0.33939  -0.33340  -0.32529  -0.32077
 Alpha  occ. eigenvalues --   -0.32044  -0.31251  -0.29439  -0.27511  -0.26657
 Alpha  occ. eigenvalues --   -0.20535  -0.20474  -0.18351
 Alpha virt. eigenvalues --   -0.14541  -0.13109  -0.11067  -0.10116  -0.09097
 Alpha virt. eigenvalues --   -0.08538  -0.08204  -0.06909  -0.06501  -0.06338
 Alpha virt. eigenvalues --   -0.05620  -0.04751  -0.03726  -0.03607  -0.02994

 Mulliken charges:
               1
     1  N   -0.757768
     2  H    0.421044
     3  H    0.418008
     4  H    0.439225
     5  C   -0.106726
     6  H    0.228540
     7  C    0.656363
     8  C   -0.483586
     9  H    0.218462
    10  H    0.201606
    11  H    0.198350
    12  O   -0.539714
    13  N   -0.609444
    14  H    0.373638
    15  C   -0.061464
    16  H    0.199937
    17  C    0.634482
    18  C   -0.349643
    19  H    0.182554
    20  H    0.162617
    21  O   -0.566636
    22  C    0.042392
    23  C    0.005373
    24  H    0.168923
    25  C    0.020396
    26  C    0.306583
    27  C   -0.227243
    28  H    0.133293
    29  N   -0.651655
    30  H    0.357257
    31  C   -0.151847
    32  H    0.147861
    33  C   -0.161988
    34  H    0.150933
    35  C   -0.136004
    36  H    0.141451
    37  N   -0.604481
    38  H    0.375250
    39  C   -0.055392
    40  H    0.178951
    41  C    0.637110
    42  C   -0.291531
    43  H    0.176140
    44  H    0.184928
    45  O   -0.555287
    46  C   -0.371737
    47  H    0.192755
    48  H    0.188806
    49  C    0.598306
    50  O   -0.478077
    51  O   -0.544538
    52  N   -0.604120
    53  H    0.363785
    54  C   -0.030082
    55  H    0.159184
    56  C    0.624434
    57  C   -0.104231
    58  H    0.159973
    59  O   -0.543508
    60  C   -0.467045
    61  H    0.144851
    62  H    0.162628
    63  H    0.183558
    64  C   -0.467181
    65  H    0.145057
    66  H    0.140879
    67  H    0.159980
    68  N   -0.615071
    69  H    0.382960
    70  C   -0.075367
    71  H    0.166391
    72  C    0.668472
    73  C    0.134280
    74  H    0.140248
    75  O   -0.607570
    76  C   -0.515192
    77  H    0.169737
    78  H    0.170538
    79  H    0.157897
    80  O   -0.685907
    81  H    0.446980
    82  N   -0.602978
    83  H    0.383131
    84  C   -0.013012
    85  H    0.164172
    86  C    0.601295
    87  C   -0.112251
    88  H    0.134103
    89  O   -0.585910
    90  C   -0.480247
    91  H    0.206610
    92  H    0.168648
    93  H    0.137263
    94  C   -0.468912
    95  H    0.153217
    96  H    0.149637
    97  H    0.149288
    98  N   -0.613535
    99  H    0.361358
   100  C   -0.073702
   101  H    0.146653
   102  C    0.587280
   103  C   -0.285835
   104  H    0.192076
   105  H    0.118704
   106  O   -0.569663
   107  C   -0.265274
   108  H    0.144952
   109  H    0.159472
   110  C   -0.278331
   111  H    0.140635
   112  H    0.128374
   113  C   -0.226374
   114  H    0.235697
   115  H    0.239779
   116  N   -0.768610
   117  H    0.452423
   118  H    0.391056
   119  H    0.384543
   120  O   -0.616640
   121  H    0.427576
 Sum of Mulliken charges =   1.00000

 Dipole moment (field-independent basis, Debye):
    X=            -38.7365    Y=            -20.2497    Z=            -26.6603  Tot=             51.1990
 Quadrupole moment (field-independent basis, Debye-Ang):
   XX=           -311.2948   YY=           -107.8781   ZZ=           -367.0957
   XY=            142.1057   XZ=            -71.0337   YZ=            -23.2750

 Normal termination of Gaussian 16 at Sun Jul 10 13:38:48 2022.
