 Gaussian 16, Revision C.01,
 Gaussian 16:  ES64L-G16RevC.01  3-Jul-2019

 ----------------------------------------------------------------------
 # B3LYP/6-31G* empiricaldispersion=gd3bj guess=read geom=check nosymm
 integral(ultrafinegrid)
 ----------------------------------------------------------------------

 ------------------------------------------------------
 Candidate Structure: Conf:102 Charge calc in gas phase
 ------------------------------------------------------
 Structure from the checkpoint file:  "conf-102.chk"
 Charge =  1 Multiplicity = 1

                          Input orientation:
 ---------------------------------------------------------------------
 Center     Atomic      Atomic             Coordinates (Angstroms)
 Number     Number       Type             X           Y           Z
 ---------------------------------------------------------------------
      1          7           0       -6.532484   -4.891292   -7.929246
      2          1           0       -7.392040   -5.413665   -7.743299
      3          1           0       -6.130415   -5.224732   -8.809559
      4          1           0       -6.746352   -3.838245   -7.984390
      5          6           0       -5.543953   -4.917894   -6.780189
      6          1           0       -5.958016   -5.558319   -5.997988
      7          6           0       -5.533895   -3.433008   -6.321245
      8          6           0       -4.175543   -5.415113   -7.237921
      9          1           0       -3.474382   -5.394077   -6.399648
     10          1           0       -4.228544   -6.446584   -7.599883
     11          1           0       -3.767573   -4.771823   -8.024947
     12          8           0       -6.200051   -2.624724   -6.993961
     13          7           0       -4.799007   -3.146421   -5.264310
     14          1           0       -4.225542   -3.833102   -4.766754
     15          6           0       -4.586278   -1.795881   -4.751670
     16          1           0       -4.466158   -1.112867   -5.596042
     17          6           0       -3.278378   -1.904141   -3.952088
     18          6           0       -5.778291   -1.315442   -3.878059
     19          1           0       -6.689244   -1.478490   -4.466987
     20          1           0       -5.841407   -1.951565   -2.988149
     21          8           0       -2.879121   -3.021244   -3.594978
     22          6           0       -5.626250    0.122833   -3.508496
     23          6           0       -5.368974    0.648119   -2.264648
     24          1           0       -5.284114    0.148440   -1.309654
     25          6           0       -5.596155    1.226972   -4.438124
     26          6           0       -5.308497    2.395510   -3.680462
     27          6           0       -5.775555    1.336533   -5.828765
     28          1           0       -6.025783    0.463142   -6.426753
     29          7           0       -5.218251    2.013974   -2.355996
     30          1           0       -4.812161    2.579810   -1.626195
     31          6           0       -5.340118    3.728162   -5.654400
     32          1           0       -5.239415    4.689327   -6.149134
     33          6           0       -5.174482    3.651690   -4.276773
     34          1           0       -4.947343    4.534616   -3.686985
     35          6           0       -5.642967    2.584962   -6.422395
     36          1           0       -5.777806    2.687895   -7.494979
     37          7           0       -2.642914   -0.752659   -3.703252
     38          1           0       -3.086348    0.141138   -3.908685
     39          6           0       -1.472378   -0.661362   -2.842295
     40          1           0       -1.498948   -1.499923   -2.139161
     41          6           0       -1.579961    0.681163   -2.102793
     42          6           0       -0.154080   -0.695835   -3.642423
     43          1           0       -0.148101    0.159828   -4.328163
     44          1           0        0.683269   -0.558742   -2.950873
     45          8           0       -2.217648    1.615191   -2.590100
     46          6           0        0.027738   -2.002338   -4.424320
     47          1           0        0.050662   -2.849399   -3.727304
     48          1           0       -0.802901   -2.173506   -5.109744
     49          6           0        1.290638   -2.042976   -5.255162
     50          8           0        1.355529   -2.411000   -6.406676
     51          8           0        2.374990   -1.633609   -4.553127
     52          7           0       -0.910221    0.739306   -0.936245
     53          1           0       -0.313163   -0.028061   -0.639910
     54          6           0       -0.655771    1.974524   -0.205979
     55          1           0       -0.830924    2.813217   -0.887964
     56          6           0        0.813700    1.891310    0.220958
     57          6           0       -1.583465    2.113178    1.032543
     58          1           0       -1.404342    1.223949    1.651744
     59          8           0        1.318805    0.795951    0.479046
     60          6           0       -1.253755    3.357969    1.866722
     61          1           0       -1.320588    4.267857    1.253818
     62          1           0       -1.980596    3.461409    2.679296
     63          1           0       -0.256794    3.305070    2.310951
     64          6           0       -3.053868    2.120395    0.598723
     65          1           0       -3.262319    3.006675   -0.014839
     66          1           0       -3.307175    1.230498    0.015486
     67          1           0       -3.707473    2.154955    1.476547
     68          7           0        1.478412    3.055170    0.322429
     69          1           0        1.072970    3.922495   -0.002298
     70          6           0        2.813257    3.131207    0.881845
     71          1           0        3.529892    2.656305    0.199500
     72          6           0        2.839753    2.448385    2.264232
     73          6           0        3.180703    4.613660    1.071543
     74          1           0        2.577347    4.989001    1.910772
     75          8           0        1.956978    2.663152    3.090038
     76          6           0        4.664964    4.804710    1.363377
     77          1           0        4.971714    4.259110    2.260969
     78          1           0        5.264863    4.451968    0.517884
     79          1           0        4.888377    5.865502    1.523654
     80          8           0        2.791628    5.274124   -0.138181
     81          1           0        2.938355    6.224692   -0.015716
     82          7           0        3.924929    1.681636    2.494811
     83          1           0        4.659992    1.593237    1.803145
     84          6           0        4.236499    1.105265    3.791206
     85          1           0        3.640793    1.639792    4.537978
     86          6           0        5.734774    1.349795    3.999777
     87          6           0        3.889563   -0.407714    3.853950
     88          1           0        4.506639   -0.901604    3.090037
     89          8           0        6.512906    1.341777    3.043522
     90          6           0        4.231097   -1.010471    5.223045
     91          1           0        3.685147   -0.497051    6.025506
     92          1           0        5.298552   -0.957956    5.455372
     93          1           0        3.936487   -2.064409    5.252549
     94          6           0        2.411313   -0.632280    3.513953
     95          1           0        1.765887   -0.121038    4.237537
     96          1           0        2.180929   -1.703206    3.550220
     97          1           0        2.159798   -0.260299    2.518308
     98          7           0        6.132424    1.563524    5.272504
     99          1           0        5.486007    1.484296    6.049802
    100          6           0        7.534188    1.655709    5.635827
    101          1           0        8.098958    0.950243    5.012282
    102          6           0        7.631077    1.231078    7.103133
    103          6           0        8.089693    3.076515    5.377627
    104          1           0        7.505402    3.792240    5.968816
    105          1           0        7.884113    3.281177    4.321452
    106          8           0        8.865052    0.958081    7.570331
    107          6           0        9.586994    3.243432    5.651171
    108          1           0        9.782517    3.221904    6.731272
    109          1           0       10.155049    2.416496    5.202230
    110          6           0       10.151543    4.549527    5.084631
    111          1           0        9.951023    4.592529    4.003890
    112          1           0        9.631787    5.408143    5.530054
    113          6           0       11.656127    4.697762    5.326856
    114          1           0       11.850962    4.666477    6.406351
    115          1           0       11.978832    5.693540    4.976579
    116          7           0       12.389767    3.583636    4.713115
    117          1           0       13.372813    3.630239    4.974232
    118          1           0        9.530574    1.083063    6.872146
    119          1           0       12.363943    3.678710    3.698204
    120          8           0        6.664354    1.146214    7.823963
    121          1           0        3.138016   -1.706303   -5.157345
 ---------------------------------------------------------------------

 SCF Done:  E(RB3LYP) =  -2843.90551493     A.U. after    1 cycles

 Alpha  occ. eigenvalues --  -19.27256 -19.25688 -19.24899 -19.21640 -19.21463
 Alpha  occ. eigenvalues --  -19.19900 -19.19286 -19.19076 -19.18224 -19.16994
 Alpha  occ. eigenvalues --  -19.16500 -14.60121 -14.49412 -14.44802 -14.43983
 Alpha  occ. eigenvalues --  -14.43191 -14.42390 -14.41407 -14.41040 -14.35507
 Alpha  occ. eigenvalues --  -10.43727 -10.41472 -10.38384 -10.38197 -10.37353
 Alpha  occ. eigenvalues --  -10.36372 -10.35084 -10.33990 -10.33976 -10.33929
 Alpha  occ. eigenvalues --  -10.33810 -10.31525 -10.30804 -10.29787 -10.29478
 Alpha  occ. eigenvalues --  -10.29392 -10.28731 -10.28561 -10.28004 -10.27946
 Alpha  occ. eigenvalues --  -10.27070 -10.26716 -10.25708 -10.25247 -10.24988
 Alpha  occ. eigenvalues --  -10.24871 -10.24823 -10.24814 -10.24341 -10.24146
 Alpha  occ. eigenvalues --  -10.24129 -10.23975 -10.23950 -10.23908 -10.23225
 Alpha  occ. eigenvalues --  -10.22830 -10.22345 -10.21829 -10.20527  -1.19642
 Alpha  occ. eigenvalues --   -1.16503  -1.15575  -1.14094  -1.13368  -1.11373
 Alpha  occ. eigenvalues --   -1.10402  -1.09218  -1.08973  -1.08154  -1.07456
 Alpha  occ. eigenvalues --   -1.07414  -1.06222  -1.04176  -1.01612  -0.99935
 Alpha  occ. eigenvalues --   -0.98887  -0.98229  -0.97687  -0.93725  -0.92251
 Alpha  occ. eigenvalues --   -0.90280  -0.89391  -0.87906  -0.86736  -0.85992
 Alpha  occ. eigenvalues --   -0.84898  -0.84474  -0.83768  -0.81870  -0.81167
 Alpha  occ. eigenvalues --   -0.80395  -0.79651  -0.78845  -0.78473  -0.76778
 Alpha  occ. eigenvalues --   -0.75978  -0.74969  -0.74446  -0.74136  -0.73367
 Alpha  occ. eigenvalues --   -0.72972  -0.72274  -0.72178  -0.70271  -0.68422
 Alpha  occ. eigenvalues --   -0.68297  -0.67971  -0.67314  -0.67030  -0.66908
 Alpha  occ. eigenvalues --   -0.66258  -0.65909  -0.65573  -0.65383  -0.64090
 Alpha  occ. eigenvalues --   -0.63925  -0.63474  -0.63444  -0.63027  -0.62960
 Alpha  occ. eigenvalues --   -0.62087  -0.61483  -0.60529  -0.59952  -0.59454
 Alpha  occ. eigenvalues --   -0.59088  -0.58310  -0.57636  -0.56959  -0.55997
 Alpha  occ. eigenvalues --   -0.55829  -0.55068  -0.54858  -0.54768  -0.54710
 Alpha  occ. eigenvalues --   -0.54367  -0.54225  -0.54176  -0.53530  -0.53443
 Alpha  occ. eigenvalues --   -0.53408  -0.53032  -0.52886  -0.52418  -0.52278
 Alpha  occ. eigenvalues --   -0.51818  -0.51664  -0.51627  -0.51510  -0.51236
 Alpha  occ. eigenvalues --   -0.51078  -0.50438  -0.49876  -0.49523  -0.49431
 Alpha  occ. eigenvalues --   -0.49310  -0.49200  -0.49029  -0.48544  -0.48445
 Alpha  occ. eigenvalues --   -0.48064  -0.47812  -0.47382  -0.47165  -0.46987
 Alpha  occ. eigenvalues --   -0.46926  -0.46631  -0.46354  -0.45917  -0.45856
 Alpha  occ. eigenvalues --   -0.45496  -0.45109  -0.44897  -0.44750  -0.44542
 Alpha  occ. eigenvalues --   -0.44370  -0.44254  -0.44022  -0.43985  -0.43711
 Alpha  occ. eigenvalues --   -0.43499  -0.43196  -0.43095  -0.42730  -0.42572
 Alpha  occ. eigenvalues --   -0.42266  -0.41940  -0.41850  -0.41571  -0.41547
 Alpha  occ. eigenvalues --   -0.40637  -0.40372  -0.39922  -0.39653  -0.39456
 Alpha  occ. eigenvalues --   -0.39365  -0.39136  -0.39055  -0.38924  -0.38247
 Alpha  occ. eigenvalues --   -0.38119  -0.37907  -0.37829  -0.37675  -0.37295
 Alpha  occ. eigenvalues --   -0.36434  -0.35987  -0.35039  -0.34056  -0.33965
 Alpha  occ. eigenvalues --   -0.33603  -0.33388  -0.32966  -0.32552  -0.32366
 Alpha  occ. eigenvalues --   -0.31722  -0.31397  -0.30871  -0.30125  -0.29622
 Alpha  occ. eigenvalues --   -0.28443  -0.27733  -0.26787
 Alpha virt. eigenvalues --   -0.12452  -0.11346  -0.07697  -0.07181  -0.06461
 Alpha virt. eigenvalues --   -0.05891  -0.04650  -0.04630  -0.04625  -0.03925
 Alpha virt. eigenvalues --   -0.03603  -0.03414  -0.02235  -0.01632  -0.01070

 Mulliken charges:
               1
     1  N   -0.759610
     2  H    0.417104
     3  H    0.414825
     4  H    0.438523
     5  C   -0.105505
     6  H    0.226167
     7  C    0.655188
     8  C   -0.484363
     9  H    0.222026
    10  H    0.196005
    11  H    0.198717
    12  O   -0.545117
    13  N   -0.607057
    14  H    0.374507
    15  C   -0.067626
    16  H    0.203039
    17  C    0.626533
    18  C   -0.348746
    19  H    0.174172
    20  H    0.159616
    21  O   -0.562363
    22  C    0.032255
    23  C    0.005343
    24  H    0.158618
    25  C    0.065108
    26  C    0.321426
    27  C   -0.227400
    28  H    0.130438
    29  N   -0.669093
    30  H    0.349462
    31  C   -0.150544
    32  H    0.137956
    33  C   -0.152000
    34  H    0.137705
    35  C   -0.138432
    36  H    0.129783
    37  N   -0.607063
    38  H    0.386029
    39  C   -0.071457
    40  H    0.180338
    41  C    0.622620
    42  C   -0.271566
    43  H    0.167429
    44  H    0.182087
    45  O   -0.545089
    46  C   -0.338840
    47  H    0.188067
    48  H    0.168647
    49  C    0.568348
    50  O   -0.460167
    51  O   -0.557878
    52  N   -0.607881
    53  H    0.356575
    54  C   -0.062905
    55  H    0.167235
    56  C    0.645064
    57  C   -0.064197
    58  H    0.149702
    59  O   -0.549516
    60  C   -0.491913
    61  H    0.125759
    62  H    0.152922
    63  H    0.212384
    64  C   -0.460579
    65  H    0.139593
    66  H    0.147332
    67  H    0.157249
    68  N   -0.612951
    69  H    0.353786
    70  C   -0.010915
    71  H    0.159254
    72  C    0.639288
    73  C    0.102535
    74  H    0.155875
    75  O   -0.536939
    76  C   -0.476174
    77  H    0.170485
    78  H    0.165921
    79  H    0.150719
    80  O   -0.641662
    81  H    0.405143
    82  N   -0.600246
    83  H    0.348810
    84  C   -0.056483
    85  H    0.173491
    86  C    0.622848
    87  C   -0.067489
    88  H    0.136381
    89  O   -0.554012
    90  C   -0.465058
    91  H    0.147854
    92  H    0.151903
    93  H    0.155663
    94  C   -0.471789
    95  H    0.150495
    96  H    0.135334
    97  H    0.194516
    98  N   -0.613267
    99  H    0.360927
   100  C   -0.080882
   101  H    0.181153
   102  C    0.609295
   103  C   -0.253346
   104  H    0.151184
   105  H    0.174021
   106  O   -0.559065
   107  C   -0.303711
   108  H    0.147380
   109  H    0.159599
   110  C   -0.259760
   111  H    0.132593
   112  H    0.139546
   113  C   -0.142914
   114  H    0.144484
   115  H    0.124802
   116  N   -0.719243
   117  H    0.305510
   118  H    0.428493
   119  H    0.296352
   120  O   -0.451252
   121  H    0.416533
 Sum of Mulliken charges =   1.00000

 Dipole moment (field-independent basis, Debye):
    X=            -13.9401    Y=            -10.5514    Z=            -24.4924  Tot=             30.0922
 Quadrupole moment (field-independent basis, Debye-Ang):
   XX=           -112.0123   YY=           -196.0517   ZZ=           -171.3461
   XY=            163.5257   XZ=            182.4111   YZ=            154.6954

 Normal termination of Gaussian 16 at Sun Jul 10 13:37:34 2022.
