 Gaussian 16, Revision C.01,
 Gaussian 16:  ES64L-G16RevC.01  3-Jul-2019

 ----------------------------------------------------------------------
 # B3LYP/6-31G* empiricaldispersion=gd3bj guess=read geom=check nosymm
 integral(ultrafinegrid)
 ----------------------------------------------------------------------

 ------------------------------------------------------
 Candidate Structure: Conf:684 Charge calc in gas phase
 ------------------------------------------------------
 Structure from the checkpoint file:  "conf-684.chk"
 Charge =  1 Multiplicity = 1

                          Input orientation:
 ---------------------------------------------------------------------
 Center     Atomic      Atomic             Coordinates (Angstroms)
 Number     Number       Type             X           Y           Z
 ---------------------------------------------------------------------
      1          7           0       -4.214765    1.931032   -1.540315
      2          1           0       -4.212071    1.049868   -1.003987
      3          1           0       -4.538830    2.712876   -0.967240
      4          1           0       -3.200976    2.061920   -1.841792
      5          6           0       -5.058010    1.708249   -2.770251
      6          1           0       -6.095579    1.614061   -2.432360
      7          6           0       -4.560960    0.330499   -3.260820
      8          6           0       -4.896094    2.873759   -3.737144
      9          1           0       -5.523272    2.724102   -4.620306
     10          1           0       -5.217641    3.812642   -3.274737
     11          1           0       -3.853145    2.973432   -4.050083
     12          8           0       -4.082954   -0.441047   -2.428621
     13          7           0       -4.591443    0.078583   -4.578903
     14          1           0       -5.171835    0.611797   -5.219933
     15          6           0       -3.965849   -1.134795   -5.107356
     16          1           0       -4.422944   -2.014549   -4.649831
     17          6           0       -2.476491   -1.168816   -4.715706
     18          6           0       -4.143896   -1.163349   -6.644924
     19          1           0       -3.464211   -0.431276   -7.096457
     20          1           0       -3.817158   -2.151836   -6.985374
     21          8           0       -1.903193   -2.208809   -4.451454
     22          6           0       -5.553367   -0.872726   -7.056385
     23          6           0       -5.990533    0.231723   -7.754902
     24          1           0       -5.418968    1.035517   -8.199627
     25          6           0       -6.725817   -1.656593   -6.746524
     26          6           0       -7.842407   -0.971563   -7.297676
     27          6           0       -6.935799   -2.867989   -6.065446
     28          1           0       -6.100591   -3.423016   -5.647572
     29          7           0       -7.363375    0.180043   -7.896849
     30          1           0       -7.912096    0.812990   -8.458358
     31          6           0       -9.323013   -2.659764   -6.507445
     32          1           0      -10.322460   -3.071403   -6.406493
     33          6           0       -9.147292   -1.460602   -7.186644
     34          1           0       -9.990255   -0.928869   -7.618138
     35          6           0       -8.229881   -3.356913   -5.952769
     36          1           0       -8.406597   -4.294808   -5.435567
     37          7           0       -1.861035    0.060270   -4.765246
     38          1           0       -2.468722    0.865509   -4.834713
     39          6           0       -0.614470    0.316231   -4.064991
     40          1           0       -0.142015   -0.656696   -3.906687
     41          6           0       -0.978580    0.971309   -2.720472
     42          6           0        0.299093    1.238996   -4.910488
     43          1           0        0.080214    1.019781   -5.959548
     44          1           0        0.031276    2.285236   -4.727730
     45          8           0       -1.821567    1.899915   -2.712214
     46          6           0        1.807339    1.041466   -4.678987
     47          1           0        2.107694    0.025317   -4.946394
     48          1           0        2.351857    1.743488   -5.318468
     49          6           0        2.181772    1.326901   -3.241623
     50          8           0        2.047037    2.415649   -2.711402
     51          8           0        2.591715    0.223010   -2.600076
     52          7           0       -0.378294    0.506967   -1.622305
     53          1           0        0.344582   -0.197982   -1.734820
     54          6           0       -0.387790    1.172064   -0.315178
     55          1           0       -1.019462    2.059055   -0.409850
     56          6           0        1.062834    1.557462   -0.020840
     57          6           0       -0.907746    0.249815    0.810495
     58          1           0       -0.274512   -0.646095    0.785733
     59          8           0        1.936733    0.675887   -0.062778
     60          6           0       -0.742512    0.922771    2.180326
     61          1           0       -1.320354    1.855953    2.227343
     62          1           0       -1.121137    0.262219    2.966594
     63          1           0        0.299622    1.162124    2.411202
     64          6           0       -2.360136   -0.166435    0.566845
     65          1           0       -3.026439    0.697271    0.720450
     66          1           0       -2.518376   -0.573156   -0.436405
     67          1           0       -2.666297   -0.928050    1.290331
     68          7           0        1.300653    2.824918    0.305675
     69          1           0        0.597754    3.545091    0.186221
     70          6           0        2.637358    3.309225    0.595044
     71          1           0        3.234983    3.262173   -0.325429
     72          6           0        3.262454    2.443907    1.704266
     73          6           0        2.502718    4.772831    1.071098
     74          1           0        2.042034    4.750074    2.063389
     75          8           0        2.618284    2.149529    2.708553
     76          6           0        3.845816    5.485821    1.124132
     77          1           0        4.540402    4.967370    1.791874
     78          1           0        4.306045    5.522913    0.127899
     79          1           0        3.712653    6.509826    1.482805
     80          8           0        1.555231    5.464867    0.249824
     81          1           0        1.974376    5.621817   -0.613510
     82          7           0        4.547658    2.107744    1.495287
     83          1           0        5.035568    2.338415    0.635229
     84          6           0        5.293258    1.226353    2.375535
     85          1           0        5.160037    1.565712    3.408799
     86          6           0        6.758387    1.373158    1.944498
     87          6           0        4.776962   -0.240471    2.270142
     88          1           0        3.696272   -0.154958    2.427254
     89          8           0        7.045119    1.800257    0.822763
     90          6           0        5.018032   -0.832970    0.878490
     91          1           0        6.087290   -0.953645    0.670687
     92          1           0        4.588971   -0.197034    0.098919
     93          1           0        4.547906   -1.819072    0.802480
     94          6           0        5.342996   -1.138194    3.375809
     95          1           0        6.412602   -1.332157    3.243675
     96          1           0        4.833620   -2.107532    3.368279
     97          1           0        5.194181   -0.697096    4.369294
     98          7           0        7.679127    0.978114    2.844024
     99          1           0        7.413659    0.632658    3.759162
    100          6           0        9.100349    0.923394    2.553229
    101          1           0        9.246133    0.631911    1.510883
    102          6           0        9.731765   -0.088796    3.488542
    103          6           0        9.770107    2.308141    2.802672
    104          1           0        9.460187    2.638600    3.802203
    105          1           0        9.303220    2.993255    2.088870
    106          8           0       10.887686   -0.549062    3.027203
    107          6           0       11.312620    2.354245    2.670096
    108          1           0       11.675070    1.441093    2.192826
    109          1           0       11.581450    3.176432    1.997305
    110          6           0       12.076255    2.603584    3.988069
    111          1           0       13.147322    2.696450    3.756482
    112          1           0       11.773563    3.584464    4.378660
    113          6           0       11.915965    1.617527    5.153907
    114          1           0       10.860327    1.458476    5.390718
    115          1           0       12.377302    2.074812    6.040493
    116          7           0       12.504902    0.277496    4.896918
    117          1           0       12.500955   -0.263463    5.760617
    118          1           0       11.570307   -0.507242    3.801065
    119          1           0       13.480998    0.372557    4.616073
    120          8           0        9.263139   -0.324565    4.591861
    121          1           0        2.663998    0.432012   -1.631321
 ---------------------------------------------------------------------

 SCF Done:  E(RB3LYP) =  -2843.95293086     A.U. after    1 cycles

 Alpha  occ. eigenvalues --  -19.26076 -19.25065 -19.24637 -19.23171 -19.21277
 Alpha  occ. eigenvalues --  -19.20957 -19.20619 -19.20480 -19.17910 -19.17292
 Alpha  occ. eigenvalues --  -19.17132 -14.56906 -14.48743 -14.47994 -14.46274
 Alpha  occ. eigenvalues --  -14.45085 -14.44993 -14.41595 -14.41298 -14.40352
 Alpha  occ. eigenvalues --  -10.42319 -10.40939 -10.39559 -10.39497 -10.38012
 Alpha  occ. eigenvalues --  -10.37898 -10.35628 -10.34810 -10.34186 -10.33473
 Alpha  occ. eigenvalues --  -10.33384 -10.33329 -10.32609 -10.31831 -10.30839
 Alpha  occ. eigenvalues --  -10.30453 -10.29792 -10.29265 -10.28853 -10.28541
 Alpha  occ. eigenvalues --  -10.28430 -10.28136 -10.27974 -10.27248 -10.27076
 Alpha  occ. eigenvalues --  -10.26814 -10.26336 -10.26303 -10.26083 -10.25736
 Alpha  occ. eigenvalues --  -10.25299 -10.24954 -10.24734 -10.24190 -10.24088
 Alpha  occ. eigenvalues --  -10.23889 -10.23048 -10.22186 -10.21782  -1.17827
 Alpha  occ. eigenvalues --   -1.17469  -1.15706  -1.13045  -1.13028  -1.12739
 Alpha  occ. eigenvalues --   -1.11584  -1.10497  -1.09567  -1.08733  -1.08504
 Alpha  occ. eigenvalues --   -1.06175  -1.05480  -1.04646  -1.04250  -1.01945
 Alpha  occ. eigenvalues --   -1.01418  -0.98445  -0.97910  -0.95791  -0.92435
 Alpha  occ. eigenvalues --   -0.91420  -0.90562  -0.89501  -0.88879  -0.86595
 Alpha  occ. eigenvalues --   -0.85301  -0.85158  -0.84411  -0.82921  -0.81141
 Alpha  occ. eigenvalues --   -0.80782  -0.80620  -0.80304  -0.79578  -0.78303
 Alpha  occ. eigenvalues --   -0.76894  -0.76203  -0.75500  -0.74331  -0.73708
 Alpha  occ. eigenvalues --   -0.73065  -0.72389  -0.72241  -0.70609  -0.69980
 Alpha  occ. eigenvalues --   -0.69804  -0.69198  -0.68739  -0.68206  -0.67946
 Alpha  occ. eigenvalues --   -0.67241  -0.66859  -0.66417  -0.65713  -0.65555
 Alpha  occ. eigenvalues --   -0.65152  -0.64566  -0.63566  -0.63482  -0.62056
 Alpha  occ. eigenvalues --   -0.61915  -0.61448  -0.60902  -0.60781  -0.59757
 Alpha  occ. eigenvalues --   -0.59537  -0.59038  -0.58422  -0.57924  -0.57424
 Alpha  occ. eigenvalues --   -0.57215  -0.56760  -0.56442  -0.56384  -0.55896
 Alpha  occ. eigenvalues --   -0.55408  -0.55078  -0.54828  -0.54687  -0.54453
 Alpha  occ. eigenvalues --   -0.53612  -0.53568  -0.53220  -0.53109  -0.52715
 Alpha  occ. eigenvalues --   -0.52520  -0.52224  -0.52027  -0.51780  -0.51644
 Alpha  occ. eigenvalues --   -0.51366  -0.51210  -0.51102  -0.50874  -0.50555
 Alpha  occ. eigenvalues --   -0.50492  -0.50198  -0.49994  -0.49773  -0.49721
 Alpha  occ. eigenvalues --   -0.49581  -0.49371  -0.49172  -0.48788  -0.48698
 Alpha  occ. eigenvalues --   -0.48131  -0.47995  -0.47887  -0.47451  -0.47069
 Alpha  occ. eigenvalues --   -0.46869  -0.46673  -0.46233  -0.45986  -0.45692
 Alpha  occ. eigenvalues --   -0.45556  -0.45283  -0.45113  -0.44856  -0.44504
 Alpha  occ. eigenvalues --   -0.44307  -0.44284  -0.44041  -0.43595  -0.43409
 Alpha  occ. eigenvalues --   -0.43067  -0.42833  -0.42763  -0.42382  -0.42207
 Alpha  occ. eigenvalues --   -0.41822  -0.41675  -0.41058  -0.40942  -0.40502
 Alpha  occ. eigenvalues --   -0.40336  -0.39385  -0.39299  -0.39247  -0.39053
 Alpha  occ. eigenvalues --   -0.38796  -0.38641  -0.38422  -0.38271  -0.38218
 Alpha  occ. eigenvalues --   -0.37971  -0.37901  -0.36328  -0.35400  -0.34990
 Alpha  occ. eigenvalues --   -0.34832  -0.34624  -0.34353  -0.34142  -0.33735
 Alpha  occ. eigenvalues --   -0.32503  -0.31914  -0.31767  -0.30978  -0.30530
 Alpha  occ. eigenvalues --   -0.30074  -0.29933  -0.28574
 Alpha virt. eigenvalues --   -0.12185  -0.10364  -0.09087  -0.07843  -0.07410
 Alpha virt. eigenvalues --   -0.06868  -0.06486  -0.05104  -0.04429  -0.04155
 Alpha virt. eigenvalues --   -0.03958  -0.02668  -0.02482  -0.02150  -0.01647

 Mulliken charges:
               1
     1  N   -0.776086
     2  H    0.423658
     3  H    0.395806
     4  H    0.454159
     5  C   -0.119009
     6  H    0.224152
     7  C    0.660359
     8  C   -0.484458
     9  H    0.189621
    10  H    0.184619
    11  H    0.206433
    12  O   -0.516704
    13  N   -0.645749
    14  H    0.348753
    15  C   -0.023421
    16  H    0.206530
    17  C    0.612560
    18  C   -0.389705
    19  H    0.158434
    20  H    0.199705
    21  O   -0.490772
    22  C    0.030342
    23  C   -0.022816
    24  H    0.160745
    25  C    0.093293
    26  C    0.307454
    27  C   -0.212890
    28  H    0.138926
    29  N   -0.683997
    30  H    0.340480
    31  C   -0.147956
    32  H    0.145813
    33  C   -0.160706
    34  H    0.140206
    35  C   -0.138748
    36  H    0.142778
    37  N   -0.598990
    38  H    0.330585
    39  C   -0.059084
    40  H    0.201987
    41  C    0.651935
    42  C   -0.295656
    43  H    0.176371
    44  H    0.175374
    45  O   -0.621946
    46  C   -0.340464
    47  H    0.185883
    48  H    0.189602
    49  C    0.565854
    50  O   -0.490971
    51  O   -0.594005
    52  N   -0.575815
    53  H    0.370618
    54  C   -0.060401
    55  H    0.139197
    56  C    0.688335
    57  C   -0.075948
    58  H    0.166833
    59  O   -0.600566
    60  C   -0.487578
    61  H    0.127118
    62  H    0.162996
    63  H    0.221831
    64  C   -0.484280
    65  H    0.094338
    66  H    0.189392
    67  H    0.180262
    68  N   -0.591226
    69  H    0.352609
    70  C   -0.045510
    71  H    0.164247
    72  C    0.652392
    73  C    0.097852
    74  H    0.178913
    75  O   -0.545886
    76  C   -0.478048
    77  H    0.177135
    78  H    0.146766
    79  H    0.178170
    80  O   -0.630569
    81  H    0.400681
    82  N   -0.619282
    83  H    0.354454
    84  C   -0.046107
    85  H    0.167723
    86  C    0.629110
    87  C   -0.076894
    88  H    0.170735
    89  O   -0.557480
    90  C   -0.457853
    91  H    0.154719
    92  H    0.148575
    93  H    0.146913
    94  C   -0.471422
    95  H    0.157552
    96  H    0.155480
    97  H    0.146922
    98  N   -0.618779
    99  H    0.354873
   100  C   -0.023937
   101  H    0.188396
   102  C    0.586990
   103  C   -0.281922
   104  H    0.143658
   105  H    0.173572
   106  O   -0.604544
   107  C   -0.279473
   108  H    0.175449
   109  H    0.145374
   110  C   -0.276839
   111  H    0.137153
   112  H    0.149298
   113  C   -0.156669
   114  H    0.180263
   115  H    0.146484
   116  N   -0.774371
   117  H    0.339748
   118  H    0.456804
   119  H    0.327932
   120  O   -0.500535
   121  H    0.465790
 Sum of Mulliken charges =   1.00000

 Dipole moment (field-independent basis, Debye):
    X=             -8.9567    Y=             12.5055    Z=            -10.9731  Tot=             18.8949
 Quadrupole moment (field-independent basis, Debye-Ang):
   XX=            -71.9778   YY=           -318.8520   ZZ=           -231.6817
   XY=             -5.4091   XZ=            146.2760   YZ=            -24.3785

 Normal termination of Gaussian 16 at Sun Jul 10 13:37:22 2022.
