 Gaussian 16, Revision C.01,
 Gaussian 16:  ES64L-G16RevC.01  3-Jul-2019

 ----------------------------------------------------------------------
 # B3LYP/6-31G* empiricaldispersion=gd3bj guess=read geom=check nosymm
 integral(ultrafinegrid)
 ----------------------------------------------------------------------

 ------------------------------------------------------
 Candidate Structure: Conf:472 Charge calc in gas phase
 ------------------------------------------------------
 Structure from the checkpoint file:  "conf-472.chk"
 Charge =  1 Multiplicity = 1

                          Input orientation:
 ---------------------------------------------------------------------
 Center     Atomic      Atomic             Coordinates (Angstroms)
 Number     Number       Type             X           Y           Z
 ---------------------------------------------------------------------
      1          7           0       -5.248070   -0.626451   -7.131666
      2          1           0       -5.725279   -0.680166   -8.034837
      3          1           0       -4.235125   -0.850107   -7.244265
      4          1           0       -5.291324    0.331657   -6.733248
      5          6           0       -5.860954   -1.521153   -6.075991
      6          1           0       -6.944734   -1.384911   -6.154589
      7          6           0       -5.390600   -0.859561   -4.760082
      8          6           0       -5.479661   -2.978674   -6.293639
      9          1           0       -6.022705   -3.621128   -5.593044
     10          1           0       -5.752783   -3.307262   -7.301550
     11          1           0       -4.407179   -3.131743   -6.143670
     12          8           0       -5.110337    0.350610   -4.793373
     13          7           0       -5.319750   -1.636422   -3.685455
     14          1           0       -5.644783   -2.596931   -3.739227
     15          6           0       -4.922391   -1.135646   -2.357742
     16          1           0       -5.334172   -0.126209   -2.266430
     17          6           0       -3.377767   -1.089944   -2.331656
     18          6           0       -5.473218   -2.050226   -1.244294
     19          1           0       -4.792817   -2.901571   -1.144935
     20          1           0       -5.405553   -1.494929   -0.303617
     21          8           0       -2.715405   -2.014224   -1.862989
     22          6           0       -6.870919   -2.517926   -1.509938
     23          6           0       -8.055561   -1.933472   -1.131799
     24          1           0       -8.230453   -1.072927   -0.500888
     25          6           0       -7.219348   -3.648066   -2.336968
     26          6           0       -8.639127   -3.679221   -2.434684
     27          6           0       -6.465938   -4.628267   -3.012840
     28          1           0       -5.383691   -4.672847   -2.901362
     29          7           0       -9.116658   -2.621946   -1.687393
     30          1           0      -10.089579   -2.438616   -1.493050
     31          6           0       -8.540482   -5.587279   -3.863437
     32          1           0       -9.034511   -6.352971   -4.453077
     33          6           0       -9.310346   -4.643896   -3.190866
     34          1           0      -10.394543   -4.661536   -3.250480
     35          6           0       -7.133553   -5.584137   -3.774010
     36          1           0       -6.566955   -6.360168   -4.279977
     37          7           0       -2.830982   -0.002822   -2.920399
     38          1           0       -3.445921    0.730770   -3.250150
     39          6           0       -1.383441    0.133788   -3.109565
     40          1           0       -0.997625   -0.878407   -3.256852
     41          6           0       -0.741680    0.723625   -1.835234
     42          6           0       -1.061563    1.001716   -4.326537
     43          1           0       -1.280918    2.047248   -4.091929
     44          1           0        0.016951    0.946907   -4.496297
     45          8           0       -0.322343    1.880170   -1.794169
     46          6           0       -1.810927    0.600946   -5.601608
     47          1           0       -2.891161    0.736918   -5.497341
     48          1           0       -1.497810    1.249679   -6.431077
     49          6           0       -1.538151   -0.814414   -6.034474
     50          8           0       -0.629754   -1.526090   -5.704049
     51          8           0       -2.483724   -1.277977   -6.954428
     52          7           0       -0.719214   -0.127799   -0.787633
     53          1           0       -1.075435   -1.069974   -0.916647
     54          6           0       -0.231432    0.288804    0.527035
     55          1           0       -0.471765    1.353157    0.622831
     56          6           0        1.299307    0.119651    0.525304
     57          6           0       -0.893391   -0.490539    1.671547
     58          1           0       -0.503219   -1.515031    1.636702
     59          8           0        1.847115   -0.916293    0.915519
     60          6           0       -0.486207    0.135664    3.011998
     61          1           0       -0.883555    1.154445    3.102304
     62          1           0       -0.882903   -0.452644    3.845197
     63          1           0        0.599749    0.179682    3.127358
     64          6           0       -2.421151   -0.522092    1.531149
     65          1           0       -2.829850    0.494846    1.470737
     66          1           0       -2.745618   -1.075907    0.644818
     67          1           0       -2.865167   -1.007596    2.406407
     68          7           0        1.978557    1.168505    0.016543
     69          1           0        1.477823    1.976848   -0.340536
     70          6           0        3.419111    1.127927   -0.203268
     71          1           0        3.689030    0.112537   -0.513771
     72          6           0        4.144530    1.444732    1.119911
     73          6           0        3.798560    2.140007   -1.298121
     74          1           0        4.898087    2.142769   -1.361658
     75          8           0        4.648204    2.567545    1.333102
     76          6           0        3.218618    1.781750   -2.659436
     77          1           0        3.559335    0.790817   -2.978644
     78          1           0        2.124962    1.792512   -2.627931
     79          1           0        3.545084    2.519981   -3.397356
     80          8           0        3.313586    3.428113   -0.946157
     81          1           0        3.726162    3.618176   -0.081008
     82          7           0        4.150879    0.444688    2.003139
     83          1           0        3.634436   -0.392669    1.741017
     84          6           0        4.706487    0.539019    3.349212
     85          1           0        4.158524    1.307399    3.907643
     86          6           0        6.186846    0.935180    3.301406
     87          6           0        4.541814   -0.823907    4.069319
     88          1           0        4.947120   -1.582184    3.384302
     89          8           0        6.948111    0.475188    2.441289
     90          6           0        5.350138   -0.876451    5.374043
     91          1           0        5.152800   -0.020299    6.027791
     92          1           0        6.426741   -0.890815    5.176113
     93          1           0        5.106625   -1.793517    5.919910
     94          6           0        3.058956   -1.125567    4.326043
     95          1           0        2.623506   -0.368214    4.989458
     96          1           0        2.955454   -2.097567    4.819506
     97          1           0        2.467240   -1.161128    3.405508
     98          7           0        6.545124    1.851021    4.239889
     99          1           0        5.849542    2.061094    5.005882
    100          6           0        7.813079    1.832267    5.008875
    101          1           0        8.248084    0.827911    4.950476
    102          6           0        7.357020    2.100045    6.514021
    103          6           0        8.861413    2.857455    4.574023
    104          1           0        9.552911    2.936017    5.416261
    105          1           0        8.377446    3.842692    4.499916
    106          8           0        8.279622    2.190572    7.329322
    107          6           0        9.613317    2.487991    3.272486
    108          1           0       10.638548    2.182997    3.507998
    109          1           0        9.146501    1.601284    2.826780
    110          6           0        9.700350    3.598225    2.209057
    111          1           0       10.349781    4.411225    2.553454
    112          1           0       10.168018    3.188062    1.305147
    113          6           0        8.354255    4.233210    1.828672
    114          1           0        8.387112    4.672249    0.828885
    115          1           0        8.058303    5.013670    2.532554
    116          7           0        7.252680    3.218485    1.853986
    117          1           0        6.395649    3.451830    1.337782
    118          1           0        7.535417    2.278420    1.540739
    119          1           0        6.928160    3.025587    2.833896
    120          8           0        6.098750    2.190758    6.659302
    121          1           0       -2.154140   -2.151964   -7.243680
 ---------------------------------------------------------------------

 SCF Done:  E(RB3LYP) =  -2843.89699534     A.U. after    1 cycles

 Alpha  occ. eigenvalues --  -19.34696 -19.28603 -19.27905 -19.23770 -19.20795
 Alpha  occ. eigenvalues --  -19.19898 -19.19808 -19.19233 -19.16785 -19.07540
 Alpha  occ. eigenvalues --  -19.06134 -14.61152 -14.51873 -14.49134 -14.48340
 Alpha  occ. eigenvalues --  -14.48097 -14.44596 -14.43302 -14.42473 -14.37753
 Alpha  occ. eigenvalues --  -10.45766 -10.45544 -10.42726 -10.40765 -10.37738
 Alpha  occ. eigenvalues --  -10.36480 -10.36138 -10.36024 -10.34934 -10.33792
 Alpha  occ. eigenvalues --  -10.33102 -10.32740 -10.32451 -10.32380 -10.31050
 Alpha  occ. eigenvalues --  -10.30658 -10.30591 -10.30441 -10.30161 -10.30089
 Alpha  occ. eigenvalues --  -10.29405 -10.29256 -10.29173 -10.28872 -10.28729
 Alpha  occ. eigenvalues --  -10.28623 -10.28071 -10.26368 -10.25176 -10.25110
 Alpha  occ. eigenvalues --  -10.24736 -10.24127 -10.23835 -10.23629 -10.22864
 Alpha  occ. eigenvalues --  -10.22392 -10.21649 -10.20673 -10.19839  -1.24264
 Alpha  occ. eigenvalues --   -1.20927  -1.15997  -1.15651  -1.15208  -1.12648
 Alpha  occ. eigenvalues --   -1.11561  -1.10594  -1.08617  -1.08135  -1.08128
 Alpha  occ. eigenvalues --   -1.07522  -1.04721  -1.04436  -1.01214  -1.00516
 Alpha  occ. eigenvalues --   -0.99955  -0.98851  -0.95212  -0.94731  -0.94375
 Alpha  occ. eigenvalues --   -0.92415  -0.91580  -0.91527  -0.88474  -0.87678
 Alpha  occ. eigenvalues --   -0.85778  -0.85282  -0.85158  -0.84049  -0.83924
 Alpha  occ. eigenvalues --   -0.83249  -0.82049  -0.79899  -0.79697  -0.78551
 Alpha  occ. eigenvalues --   -0.77939  -0.76696  -0.76014  -0.75437  -0.75243
 Alpha  occ. eigenvalues --   -0.74683  -0.73519  -0.73161  -0.72611  -0.71996
 Alpha  occ. eigenvalues --   -0.70889  -0.70581  -0.69444  -0.68608  -0.68297
 Alpha  occ. eigenvalues --   -0.67946  -0.66318  -0.66237  -0.65982  -0.65350
 Alpha  occ. eigenvalues --   -0.65172  -0.64951  -0.63917  -0.63502  -0.63460
 Alpha  occ. eigenvalues --   -0.62908  -0.62845  -0.62296  -0.61965  -0.61916
 Alpha  occ. eigenvalues --   -0.61724  -0.61367  -0.60112  -0.59564  -0.59070
 Alpha  occ. eigenvalues --   -0.59008  -0.58778  -0.58521  -0.58099  -0.57405
 Alpha  occ. eigenvalues --   -0.57268  -0.56670  -0.56340  -0.56210  -0.55629
 Alpha  occ. eigenvalues --   -0.55112  -0.55081  -0.54634  -0.54437  -0.54153
 Alpha  occ. eigenvalues --   -0.54010  -0.53800  -0.53556  -0.53252  -0.52741
 Alpha  occ. eigenvalues --   -0.52512  -0.51856  -0.51663  -0.51581  -0.51274
 Alpha  occ. eigenvalues --   -0.51174  -0.50636  -0.50538  -0.50201  -0.49984
 Alpha  occ. eigenvalues --   -0.49621  -0.49212  -0.48809  -0.48614  -0.48183
 Alpha  occ. eigenvalues --   -0.48124  -0.47514  -0.47376  -0.47139  -0.47108
 Alpha  occ. eigenvalues --   -0.46890  -0.46555  -0.46262  -0.46030  -0.45779
 Alpha  occ. eigenvalues --   -0.45514  -0.45361  -0.45278  -0.44953  -0.44674
 Alpha  occ. eigenvalues --   -0.44518  -0.44013  -0.43931  -0.43762  -0.43493
 Alpha  occ. eigenvalues --   -0.43064  -0.42945  -0.42759  -0.42436  -0.42107
 Alpha  occ. eigenvalues --   -0.41578  -0.41216  -0.41132  -0.41007  -0.40628
 Alpha  occ. eigenvalues --   -0.40522  -0.39898  -0.39548  -0.38658  -0.38292
 Alpha  occ. eigenvalues --   -0.38094  -0.38037  -0.37717  -0.37313  -0.37110
 Alpha  occ. eigenvalues --   -0.36565  -0.36124  -0.36046  -0.35760  -0.35136
 Alpha  occ. eigenvalues --   -0.34524  -0.33943  -0.33281  -0.33065  -0.32814
 Alpha  occ. eigenvalues --   -0.31989  -0.31358  -0.30839  -0.30756  -0.29531
 Alpha  occ. eigenvalues --   -0.22547  -0.22406  -0.20248
 Alpha virt. eigenvalues --   -0.15074  -0.12832  -0.12023  -0.10964  -0.10164
 Alpha virt. eigenvalues --   -0.08412  -0.07452  -0.07326  -0.06169  -0.05650
 Alpha virt. eigenvalues --   -0.04679  -0.04616  -0.04366  -0.04008  -0.02396

 Mulliken charges:
               1
     1  N   -0.767691
     2  H    0.410667
     3  H    0.445510
     4  H    0.424209
     5  C   -0.124055
     6  H    0.238640
     7  C    0.661925
     8  C   -0.499692
     9  H    0.224305
    10  H    0.188873
    11  H    0.183374
    12  O   -0.557008
    13  N   -0.608552
    14  H    0.379566
    15  C   -0.058623
    16  H    0.189268
    17  C    0.643176
    18  C   -0.409107
    19  H    0.207397
    20  H    0.188759
    21  O   -0.528466
    22  C    0.064070
    23  C    0.009317
    24  H    0.174648
    25  C    0.053629
    26  C    0.319430
    27  C   -0.271937
    28  H    0.152776
    29  N   -0.686421
    30  H    0.347369
    31  C   -0.156019
    32  H    0.152670
    33  C   -0.157026
    34  H    0.152270
    35  C   -0.143646
    36  H    0.146247
    37  N   -0.609344
    38  H    0.360572
    39  C   -0.081605
    40  H    0.207936
    41  C    0.641977
    42  C   -0.294709
    43  H    0.191626
    44  H    0.196808
    45  O   -0.532066
    46  C   -0.398461
    47  H    0.173705
    48  H    0.210040
    49  C    0.616371
    50  O   -0.411625
    51  O   -0.638387
    52  N   -0.622872
    53  H    0.375748
    54  C   -0.034117
    55  H    0.170457
    56  C    0.633882
    57  C   -0.102932
    58  H    0.164042
    59  O   -0.549163
    60  C   -0.465709
    61  H    0.145508
    62  H    0.161360
    63  H    0.172701
    64  C   -0.468602
    65  H    0.139945
    66  H    0.141758
    67  H    0.159670
    68  N   -0.601845
    69  H    0.376237
    70  C   -0.081249
    71  H    0.180317
    72  C    0.661242
    73  C    0.114709
    74  H    0.124335
    75  O   -0.613564
    76  C   -0.470506
    77  H    0.142763
    78  H    0.169171
    79  H    0.165514
    80  O   -0.644266
    81  H    0.412489
    82  N   -0.617349
    83  H    0.385629
    84  C   -0.000487
    85  H    0.171909
    86  C    0.588481
    87  C   -0.115285
    88  H    0.146426
    89  O   -0.566577
    90  C   -0.488629
    91  H    0.204831
    92  H    0.162783
    93  H    0.148199
    94  C   -0.479599
    95  H    0.155329
    96  H    0.157007
    97  H    0.163497
    98  N   -0.675346
    99  H    0.376765
   100  C   -0.073088
   101  H    0.157900
   102  C    0.598777
   103  C   -0.297195
   104  H    0.202004
   105  H    0.117984
   106  O   -0.559836
   107  C   -0.308058
   108  H    0.163498
   109  H    0.163063
   110  C   -0.291708
   111  H    0.172491
   112  H    0.152770
   113  C   -0.168403
   114  H    0.183071
   115  H    0.200147
   116  N   -0.786430
   117  H    0.412393
   118  H    0.412807
   119  H    0.434448
   120  O   -0.615700
   121  H    0.431773
 Sum of Mulliken charges =   1.00000

 Dipole moment (field-independent basis, Debye):
    X=            -33.0810    Y=             -5.7570    Z=            -41.5796  Tot=             53.4449
 Quadrupole moment (field-independent basis, Debye-Ang):
   XX=           -137.5784   YY=           -320.1230   ZZ=           -257.2667
   XY=             70.9785   XZ=             57.0527   YZ=             13.0834

 Normal termination of Gaussian 16 at Sun Jul 10 13:37:22 2022.
