 Gaussian 16, Revision C.01,
 Gaussian 16:  ES64L-G16RevC.01  3-Jul-2019

 ----------------------------------------------------------------------
 # B3LYP/6-31G* empiricaldispersion=gd3 guess=read geom=check nosymm in
 tegral(ultrafinegrid)
 ----------------------------------------------------------------------

 ------------------------------------------------------
 Candidate Structure: Conf:197 Charge calc in gas phase
 ------------------------------------------------------
 Structure from the checkpoint file:  "conf-197.chk"
 Charge =  1 Multiplicity = 1

                          Input orientation:
 ---------------------------------------------------------------------
 Center     Atomic      Atomic             Coordinates (Angstroms)
 Number     Number       Type             X           Y           Z
 ---------------------------------------------------------------------
      1          7           0       -2.396588    0.246755    4.086537
      2          1           0       -2.811659   -0.691538    4.040752
      3          1           0       -1.358315    0.160000    3.816519
      4          1           0       -2.435999    0.627824    5.036817
      5          6           0       -3.120368    1.147769    3.121569
      6          1           0       -4.111112    1.341194    3.548062
      7          6           0       -3.287703    0.304039    1.839422
      8          6           0       -2.341954    2.471789    2.986806
      9          1           0       -2.903145    3.133563    2.317492
     10          1           0       -1.373872    2.266876    2.517047
     11          8           0       -3.183448   -0.924883    1.921786
     12          6           0       -2.161285    3.145061    4.333960
     13          6           0       -0.990416    2.945147    5.080570
     14          1           0       -0.184717    2.341606    4.669762
     15          6           0       -3.192853    3.926373    4.872983
     16          1           0       -4.100559    4.096777    4.297030
     17          6           0       -0.858172    3.522654    6.346133
     18          1           0        0.054976    3.369396    6.913945
     19          6           0       -3.057148    4.503766    6.135321
     20          1           0       -3.858436    5.116214    6.538060
     21          6           0       -1.888922    4.301394    6.874751
     22          1           0       -1.781501    4.754145    7.855889
     23          7           0       -3.545961    0.962308    0.694050
     24          1           0       -3.502193    1.973720    0.683886
     25          6           0       -3.468754    0.307017   -0.634831
     26          1           0       -3.849947   -0.708009   -0.506514
     27          6           0       -1.953352    0.295664   -0.926093
     28          6           0       -4.271257    1.076964   -1.678847
     29          1           0       -3.781233    2.043930   -1.847736
     30          1           0       -4.178315    0.527121   -2.624519
     31          8           0       -1.392082    1.229148   -1.490045
     32          6           0       -5.761390    1.276303   -1.343001
     33          1           0       -5.827530    1.868024   -0.416920
     34          6           0       -6.436369    2.080259   -2.463359
     35          1           0       -6.415552    1.523076   -3.408214
     36          1           0       -7.484472    2.285320   -2.220934
     37          1           0       -5.933336    3.039798   -2.629846
     38          6           0       -6.490439   -0.054222   -1.105780
     39          1           0       -6.400968   -0.709162   -1.981929
     40          1           0       -6.098726   -0.596406   -0.236879
     41          1           0       -7.557583    0.116350   -0.928724
     42          7           0       -1.265794   -0.725661   -0.334133
     43          1           0       -1.824991   -1.416395    0.151645
     44          6           0        0.056720   -0.463782    0.245480
     45          1           0        0.105906    0.622053    0.416522
     46          6           0        1.266331   -0.753570   -0.670728
     47          6           0        0.194124   -1.219158    1.590717
     48          1           0       -0.792509   -1.467294    1.983309
     49          1           0        0.761731   -2.140608    1.438533
     50          8           0        2.303474   -1.237292   -0.201557
     51          6           0        0.877650   -0.336623    2.617856
     52          7           0        2.194271   -0.190900    2.473114
     53          1           0        2.703348    0.428429    3.090297
     54          1           0        2.649786   -0.612154    1.661321
     55          8           0        0.224823    0.253042    3.510707
     56          7           0        1.131411   -0.375249   -1.951257
     57          1           0        0.335770    0.211789   -2.191867
     58          6           0        2.280687   -0.376612   -2.851929
     59          1           0        2.734180   -1.371238   -2.839517
     60          6           0        3.377335    0.582989   -2.391245
     61          6           0        1.804879   -0.026192   -4.275558
     62          1           0        1.371475    0.981381   -4.279740
     63          1           0        0.987108   -0.708772   -4.527165
     64          8           0        4.544929    0.461264   -2.675198
     65          6           0        2.901450   -0.128594   -5.339695
     66          1           0        3.725123    0.554398   -5.101716
     67          1           0        3.325248   -1.141380   -5.335783
     68          6           0        2.394565    0.202264   -6.748747
     69          1           0        1.947646    1.202385   -6.763039
     70          1           0        3.248012    0.205531   -7.435095
     71          7           0        1.419906   -0.766404   -7.262878
     72          1           0        1.711447   -1.230597   -8.113167
     73          7           0       -0.676847   -1.340799   -8.058785
     74          1           0       -1.676911   -1.301437   -7.908007
     75          1           0       -0.344588   -2.299287   -8.078583
     76          7           0       -0.389639    0.509857   -6.545846
     77          1           0       -1.408038    0.553820   -6.594947
     78          6           0        0.062376   -0.474496   -7.239627
     79          8           0        2.890349    1.635360   -1.684459
     80          1           0        3.657408    2.211052   -1.503227
 ---------------------------------------------------------------------

 SCF Done:  E(RB3LYP) =  -1866.70724361     A.U. after    3 cycles

 Alpha  occ. eigenvalues --  -19.26985 -19.26806 -19.25542 -19.23988 -19.21854
 Alpha  occ. eigenvalues --  -19.20726 -14.56993 -14.50990 -14.47562 -14.47302
 Alpha  occ. eigenvalues --  -14.44797 -14.40430 -14.39956 -14.33796 -10.44231
 Alpha  occ. eigenvalues --  -10.42087 -10.40565 -10.40152 -10.38820 -10.38601
 Alpha  occ. eigenvalues --  -10.35643 -10.35584 -10.33733 -10.33541 -10.31417
 Alpha  occ. eigenvalues --  -10.31273 -10.31106 -10.29849 -10.29556 -10.29311
 Alpha  occ. eigenvalues --  -10.29289 -10.29075 -10.28759 -10.28477 -10.26745
 Alpha  occ. eigenvalues --  -10.26129 -10.25508 -10.25250 -10.23877  -1.19163
 Alpha  occ. eigenvalues --   -1.17508  -1.16271  -1.15840  -1.13337  -1.12028
 Alpha  occ. eigenvalues --   -1.08469  -1.07093  -1.04404  -1.02894  -1.02863
 Alpha  occ. eigenvalues --   -1.01507  -0.96803  -0.93994  -0.93110  -0.90999
 Alpha  occ. eigenvalues --   -0.89940  -0.89518  -0.86721  -0.86609  -0.84944
 Alpha  occ. eigenvalues --   -0.84567  -0.81300  -0.79201  -0.78740  -0.76934
 Alpha  occ. eigenvalues --   -0.75333  -0.73686  -0.73505  -0.72700  -0.72206
 Alpha  occ. eigenvalues --   -0.71360  -0.70352  -0.69283  -0.69144  -0.68804
 Alpha  occ. eigenvalues --   -0.67461  -0.66664  -0.65717  -0.65410  -0.64184
 Alpha  occ. eigenvalues --   -0.63329  -0.63039  -0.62702  -0.61970  -0.61788
 Alpha  occ. eigenvalues --   -0.60923  -0.59485  -0.59145  -0.58978  -0.57833
 Alpha  occ. eigenvalues --   -0.57343  -0.56990  -0.56859  -0.55999  -0.55658
 Alpha  occ. eigenvalues --   -0.55315  -0.54716  -0.54405  -0.53954  -0.53457
 Alpha  occ. eigenvalues --   -0.53138  -0.52817  -0.52460  -0.52108  -0.52075
 Alpha  occ. eigenvalues --   -0.51771  -0.51519  -0.51128  -0.50769  -0.50564
 Alpha  occ. eigenvalues --   -0.50305  -0.49627  -0.49263  -0.48205  -0.48058
 Alpha  occ. eigenvalues --   -0.47746  -0.47085  -0.46737  -0.46639  -0.46526
 Alpha  occ. eigenvalues --   -0.46132  -0.45547  -0.45030  -0.44682  -0.44502
 Alpha  occ. eigenvalues --   -0.42908  -0.42147  -0.41978  -0.41786  -0.41262
 Alpha  occ. eigenvalues --   -0.41259  -0.40953  -0.40484  -0.39936  -0.39493
 Alpha  occ. eigenvalues --   -0.39388  -0.38828  -0.38366  -0.37323  -0.36354
 Alpha  occ. eigenvalues --   -0.35605  -0.35352  -0.34608  -0.33019  -0.32369
 Alpha  occ. eigenvalues --   -0.30522  -0.28002
 Alpha virt. eigenvalues --   -0.14150  -0.11292  -0.10943  -0.10738  -0.09621
 Alpha virt. eigenvalues --   -0.08307  -0.07019  -0.05815  -0.05177  -0.02224
 Alpha virt. eigenvalues --   -0.02130  -0.01338  -0.01056  -0.00639  -0.00221

 Mulliken charges:
               1
     1  N   -0.769642
     2  H    0.409664
     3  H    0.453353
     4  H    0.405519
     5  C   -0.117314
     6  H    0.224823
     7  C    0.661909
     8  C   -0.390086
     9  H    0.178938
    10  H    0.193173
    11  O   -0.547322
    12  C    0.125839
    13  C   -0.223408
    14  H    0.172079
    15  C   -0.183009
    16  H    0.137048
    17  C   -0.128921
    18  H    0.159685
    19  C   -0.125519
    20  H    0.162307
    21  C   -0.123163
    22  H    0.163830
    23  N   -0.599021
    24  H    0.359755
    25  C   -0.077998
    26  H    0.196140
    27  C    0.601771
    28  C   -0.287809
    29  H    0.170336
    30  H    0.166254
    31  O   -0.507531
    32  C   -0.076408
    33  H    0.114383
    34  C   -0.445138
    35  H    0.153936
    36  H    0.159452
    37  H    0.151288
    38  C   -0.456203
    39  H    0.153275
    40  H    0.140700
    41  H    0.164596
    42  N   -0.590359
    43  H    0.362580
    44  C   -0.083104
    45  H    0.198714
    46  C    0.664497
    47  C   -0.405748
    48  H    0.174652
    49  H    0.220105
    50  O   -0.552361
    51  C    0.593123
    52  N   -0.714863
    53  H    0.360528
    54  H    0.408270
    55  O   -0.571525
    56  N   -0.620602
    57  H    0.381376
    58  C   -0.018952
    59  H    0.196503
    60  C    0.598100
    61  C   -0.297956
    62  H    0.171022
    63  H    0.172839
    64  O   -0.451592
    65  C   -0.258251
    66  H    0.159148
    67  H    0.141401
    68  C   -0.142142
    69  H    0.182361
    70  H    0.145344
    71  N   -0.596560
    72  H    0.325519
    73  N   -0.755422
    74  H    0.322329
    75  H    0.324882
    76  N   -0.655884
    77  H    0.264170
    78  C    0.590168
    79  O   -0.578948
    80  H    0.415080
 Sum of Mulliken charges =   1.00000

 Dipole moment (field-independent basis, Debye):
    X=            -11.7539    Y=              2.8766    Z=              9.2364  Tot=             15.2230
 Quadrupole moment (field-independent basis, Debye-Ang):
   XX=           -175.3480   YY=           -206.2230   ZZ=           -120.4142
   XY=            -10.5835   XZ=            -19.3082   YZ=             43.4552

 Normal termination of Gaussian 16 at Fri Jun 17 23:19:59 2022.
