 Gaussian 16, Revision C.01,
 Gaussian 16:  ES64L-G16RevC.01  3-Jul-2019

 ----------------------------------------------------------------------
 # B3LYP/6-31G* empiricaldispersion=gd3 guess=read geom=check nosymm in
 tegral(ultrafinegrid)
 ----------------------------------------------------------------------

 ------------------------------------------------------
 Candidate Structure: Conf:304 Charge calc in gas phase
 ------------------------------------------------------
 Structure from the checkpoint file:  "conf-304.chk"
 Charge =  1 Multiplicity = 1

                          Input orientation:
 ---------------------------------------------------------------------
 Center     Atomic      Atomic             Coordinates (Angstroms)
 Number     Number       Type             X           Y           Z
 ---------------------------------------------------------------------
      1          7           0       -2.220391   -0.350494    3.226105
      2          1           0       -2.224541   -0.384273    4.248757
      3          1           0       -2.354840   -1.276841    2.799389
      4          1           0       -1.290001    0.024100    2.873646
      5          6           0       -3.304087    0.553829    2.696506
      6          1           0       -4.245121    0.198944    3.130904
      7          6           0       -3.307010    0.256334    1.181537
      8          6           0       -3.035335    2.010483    3.119515
      9          1           0       -3.929213    2.596029    2.874221
     10          1           0       -2.198422    2.395018    2.529899
     11          8           0       -2.920856   -0.851640    0.802338
     12          6           0       -2.736413    2.116241    4.601225
     13          6           0       -1.406693    2.152406    5.047453
     14          1           0       -0.599444    2.161570    4.318271
     15          6           0       -3.773185    2.109261    5.544497
     16          1           0       -4.808353    2.091414    5.209242
     17          6           0       -1.122146    2.188331    6.414589
     18          1           0       -0.089593    2.228450    6.749612
     19          6           0       -3.487883    2.145978    6.909880
     20          1           0       -4.299821    2.151848    7.631176
     21          6           0       -2.161351    2.184707    7.347083
     22          1           0       -1.940004    2.218521    8.409700
     23          7           0       -3.748014    1.229999    0.365810
     24          1           0       -3.883910    2.161716    0.737197
     25          6           0       -3.550667    1.148342   -1.093903
     26          1           0       -3.650072    0.094961   -1.360104
     27          6           0       -2.106014    1.634507   -1.331223
     28          6           0       -4.572626    2.006101   -1.837554
     29          1           0       -4.356514    3.060332   -1.624158
     30          1           0       -4.387546    1.873773   -2.911794
     31          8           0       -1.835174    2.829573   -1.425123
     32          6           0       -6.045928    1.682991   -1.526763
     33          1           0       -6.215739    1.864052   -0.454413
     34          6           0       -6.958703    2.632893   -2.315175
     35          1           0       -6.840442    2.478667   -3.395050
     36          1           0       -8.011835    2.460512   -2.067879
     37          1           0       -6.727976    3.682914   -2.100406
     38          6           0       -6.397301    0.216923   -1.818739
     39          1           0       -6.185389   -0.033083   -2.866260
     40          1           0       -5.835820   -0.479977   -1.185654
     41          1           0       -7.462704    0.031977   -1.643724
     42          7           0       -1.165774    0.659434   -1.318316
     43          1           0       -1.406654   -0.321536   -1.217133
     44          6           0        0.241912    0.980208   -1.403021
     45          1           0        0.379895    1.728781   -2.187854
     46          6           0        1.000929   -0.300250   -1.782991
     47          6           0        0.782306    1.619929   -0.089915
     48          1           0        1.834059    1.883060   -0.234894
     49          1           0        0.211416    2.532060    0.089782
     50          8           0        0.444927   -1.396268   -1.776524
     51          6           0        0.604960    0.720919    1.117247
     52          7           0        1.440496   -0.319728    1.243151
     53          1           0        1.296664   -0.967228    2.006427
     54          1           0        2.097797   -0.606019    0.521680
     55          8           0       -0.293419    0.953496    1.955870
     56          7           0        2.324670   -0.121864   -2.034922
     57          1           0        2.617686    0.845237   -2.258854
     58          6           0        3.092980   -1.242014   -2.576472
     59          1           0        2.711373   -1.509040   -3.568812
     60          6           0        2.954046   -2.505824   -1.737347
     61          6           0        4.605854   -0.935866   -2.678341
     62          1           0        5.049753   -1.770176   -3.229971
     63          1           0        5.042030   -0.960962   -1.671298
     64          8           0        2.950565   -3.624339   -2.180977
     65          6           0        4.937931    0.410311   -3.354512
     66          1           0        5.802194    0.292362   -4.017568
     67          1           0        4.105930    0.735935   -3.988954
     68          6           0        5.246156    1.508047   -2.313397
     69          1           0        4.584632    1.410759   -1.448216
     70          1           0        6.269127    1.391435   -1.939858
     71          7           0        5.102815    2.869820   -2.806481
     72          1           0        5.799257    3.174165   -3.475473
     73          7           0        3.854938    4.641414   -3.605570
     74          1           0        2.969830    5.129311   -3.639165
     75          1           0        4.633769    5.250644   -3.385253
     76          7           0        2.788880    2.743613   -2.617075
     77          1           0        1.953752    3.321234   -2.704700
     78          6           0        3.845663    3.400635   -2.988428
     79          8           0        2.993092   -2.250866   -0.390990
     80          1           0        2.970958   -3.127588    0.037153
 ---------------------------------------------------------------------

 SCF Done:  E(RB3LYP) =  -1866.73081028     A.U. after    1 cycles

 Alpha  occ. eigenvalues --  -19.28439 -19.24485 -19.24310 -19.21902 -19.21328
 Alpha  occ. eigenvalues --  -19.20429 -14.55939 -14.48326 -14.46981 -14.44832
 Alpha  occ. eigenvalues --  -14.44186 -14.43973 -14.43926 -14.38595 -10.41644
 Alpha  occ. eigenvalues --  -10.41203 -10.40207 -10.38371 -10.38047 -10.37939
 Alpha  occ. eigenvalues --  -10.37589 -10.33356 -10.32799 -10.32377 -10.31863
 Alpha  occ. eigenvalues --  -10.30444 -10.30429 -10.29455 -10.29141 -10.29009
 Alpha  occ. eigenvalues --  -10.28773 -10.28730 -10.28525 -10.28022 -10.27081
 Alpha  occ. eigenvalues --  -10.26766 -10.26741 -10.24508 -10.24119  -1.18766
 Alpha  occ. eigenvalues --   -1.16787  -1.15321  -1.13312  -1.12283  -1.10784
 Alpha  occ. eigenvalues --   -1.09815  -1.07166  -1.04620  -1.02177  -1.01489
 Alpha  occ. eigenvalues --   -1.01281  -0.97990  -0.95967  -0.93588  -0.91496
 Alpha  occ. eigenvalues --   -0.89447  -0.88937  -0.87286  -0.85270  -0.84312
 Alpha  occ. eigenvalues --   -0.82981  -0.82902  -0.78569  -0.77731  -0.75956
 Alpha  occ. eigenvalues --   -0.75346  -0.73361  -0.72322  -0.71247  -0.70931
 Alpha  occ. eigenvalues --   -0.70563  -0.70177  -0.69268  -0.69018  -0.68151
 Alpha  occ. eigenvalues --   -0.67785  -0.67403  -0.66543  -0.65112  -0.64232
 Alpha  occ. eigenvalues --   -0.63616  -0.63002  -0.61934  -0.61427  -0.61234
 Alpha  occ. eigenvalues --   -0.60548  -0.59192  -0.58715  -0.57926  -0.57072
 Alpha  occ. eigenvalues --   -0.56750  -0.56525  -0.55838  -0.55656  -0.55446
 Alpha  occ. eigenvalues --   -0.55163  -0.54546  -0.54275  -0.53804  -0.53610
 Alpha  occ. eigenvalues --   -0.53025  -0.52492  -0.52228  -0.51968  -0.51568
 Alpha  occ. eigenvalues --   -0.51370  -0.50967  -0.50637  -0.50522  -0.50205
 Alpha  occ. eigenvalues --   -0.49903  -0.49007  -0.48777  -0.48368  -0.48022
 Alpha  occ. eigenvalues --   -0.47707  -0.47329  -0.46698  -0.46429  -0.45952
 Alpha  occ. eigenvalues --   -0.45800  -0.45151  -0.44759  -0.44385  -0.44301
 Alpha  occ. eigenvalues --   -0.43842  -0.43783  -0.43328  -0.42239  -0.40323
 Alpha  occ. eigenvalues --   -0.40210  -0.40178  -0.40087  -0.38923  -0.38760
 Alpha  occ. eigenvalues --   -0.38467  -0.38196  -0.37491  -0.35984  -0.35248
 Alpha  occ. eigenvalues --   -0.35032  -0.34992  -0.34616  -0.34477  -0.33855
 Alpha  occ. eigenvalues --   -0.33506  -0.32096
 Alpha virt. eigenvalues --   -0.11571  -0.10493  -0.10265  -0.09839  -0.07501
 Alpha virt. eigenvalues --   -0.06953  -0.06315  -0.05522  -0.04119  -0.02995
 Alpha virt. eigenvalues --   -0.02795  -0.02183  -0.00921  -0.00602   0.00206

 Mulliken charges:
               1
     1  N   -0.757057
     2  H    0.400810
     3  H    0.408842
     4  H    0.430162
     5  C   -0.110606
     6  H    0.218624
     7  C    0.672675
     8  C   -0.397048
     9  H    0.178774
    10  H    0.213172
    11  O   -0.544706
    12  C    0.118780
    13  C   -0.215084
    14  H    0.160944
    15  C   -0.185630
    16  H    0.140244
    17  C   -0.128185
    18  H    0.155588
    19  C   -0.126552
    20  H    0.160489
    21  C   -0.125214
    22  H    0.160666
    23  N   -0.602623
    24  H    0.357362
    25  C   -0.079961
    26  H    0.192911
    27  C    0.633356
    28  C   -0.284892
    29  H    0.164223
    30  H    0.160469
    31  O   -0.537751
    32  C   -0.072617
    33  H    0.113692
    34  C   -0.444250
    35  H    0.152218
    36  H    0.154737
    37  H    0.146814
    38  C   -0.455787
    39  H    0.151917
    40  H    0.144354
    41  H    0.158109
    42  N   -0.617580
    43  H    0.370941
    44  C   -0.050030
    45  H    0.200515
    46  C    0.583787
    47  C   -0.374015
    48  H    0.199684
    49  H    0.206250
    50  O   -0.518756
    51  C    0.615604
    52  N   -0.738787
    53  H    0.338930
    54  H    0.415314
    55  O   -0.578183
    56  N   -0.689814
    57  H    0.433791
    58  C   -0.008058
    59  H    0.191986
    60  C    0.611169
    61  C   -0.309524
    62  H    0.183465
    63  H    0.160210
    64  O   -0.443462
    65  C   -0.289431
    66  H    0.158122
    67  H    0.170897
    68  C   -0.149884
    69  H    0.167934
    70  H    0.165118
    71  N   -0.590969
    72  H    0.334542
    73  N   -0.762079
    74  H    0.341161
    75  H    0.343040
    76  N   -0.732747
    77  H    0.291200
    78  C    0.671806
    79  O   -0.602604
    80  H    0.418482
 Sum of Mulliken charges =   1.00000

 Dipole moment (field-independent basis, Debye):
    X=             -0.4410    Y=              7.2763    Z=              7.5881  Tot=             10.5223
 Quadrupole moment (field-independent basis, Debye-Ang):
   XX=           -133.8059   YY=           -207.2708   ZZ=           -151.6575
   XY=             12.7992   XZ=            -48.6571   YZ=            -23.8485

 Normal termination of Gaussian 16 at Fri Jun 17 23:19:30 2022.
