 Gaussian 16, Revision C.01,
 Gaussian 16:  ES64L-G16RevC.01  3-Jul-2019

 ----------------------------------------------------------------------
 # B3LYP/6-31G* empiricaldispersion=gd3 guess=read geom=check nosymm in
 tegral(ultrafinegrid)
 ----------------------------------------------------------------------

 ------------------------------------------------------
 Candidate Structure: Conf:962 Charge calc in gas phase
 ------------------------------------------------------
 Structure from the checkpoint file:  "conf-962.chk"
 Charge =  1 Multiplicity = 1

                          Input orientation:
 ---------------------------------------------------------------------
 Center     Atomic      Atomic             Coordinates (Angstroms)
 Number     Number       Type             X           Y           Z
 ---------------------------------------------------------------------
      1          7           0       -5.576294   -0.848995    3.518790
      2          1           0       -6.480069   -0.652462    3.953453
      3          1           0       -5.676949   -1.359279    2.596207
      4          1           0       -5.008882   -1.439556    4.149237
      5          6           0       -4.791939    0.383320    3.128626
      6          1           0       -5.514848    1.192892    2.988319
      7          6           0       -4.228908   -0.013944    1.732436
      8          6           0       -3.762804    0.758445    4.218844
      9          1           0       -4.313587    1.101334    5.102821
     10          1           0       -3.196421    1.625887    3.864480
     11          8           0       -4.711546   -1.015790    1.183762
     12          6           0       -2.843984   -0.391484    4.573664
     13          6           0       -3.202014   -1.281364    5.601299
     14          1           0       -4.071607   -1.069947    6.224122
     15          6           0       -1.663666   -0.623447    3.852070
     16          1           0       -1.350277    0.074785    3.080856
     17          6           0       -2.410408   -2.398384    5.885613
     18          1           0       -2.692949   -3.070959    6.689990
     19          6           0       -0.872573   -1.734154    4.144634
     20          1           0        0.045869   -1.897381    3.588131
     21          6           0       -1.247448   -2.628833    5.150923
     22          1           0       -0.626107   -3.491075    5.373167
     23          7           0       -3.298626    0.776790    1.215628
     24          1           0       -2.830750    1.493422    1.768669
     25          6           0       -2.576307    0.485257   -0.024031
     26          1           0       -2.616398   -0.594648   -0.189956
     27          6           0       -1.128665    0.932027    0.268987
     28          6           0       -3.229320    1.231472   -1.211821
     29          1           0       -4.292404    0.956239   -1.198756
     30          1           0       -3.176154    2.308176   -1.004204
     31          8           0       -0.887400    1.645736    1.252955
     32          6           0       -2.665135    0.945651   -2.618430
     33          1           0       -1.619006    1.273899   -2.658489
     34          6           0       -2.718881   -0.546466   -2.981048
     35          1           0       -3.748080   -0.923568   -2.927599
     36          1           0       -2.351228   -0.705947   -3.999345
     37          1           0       -2.104992   -1.172878   -2.321664
     38          6           0       -3.445108    1.776030   -3.649270
     39          1           0       -4.501778    1.480576   -3.672974
     40          1           0       -3.399041    2.846878   -3.419632
     41          1           0       -3.034640    1.629696   -4.653793
     42          7           0       -0.194042    0.507094   -0.589257
     43          1           0       -0.428152   -0.032606   -1.419615
     44          6           0        1.179662    0.981383   -0.579292
     45          1           0        1.206611    2.020434   -0.241478
     46          6           0        1.669704    0.857447   -2.037574
     47          6           0        2.053091    0.139869    0.382661
     48          1           0        1.598778    0.209597    1.378262
     49          1           0        2.033978   -0.909791    0.070166
     50          8           0        1.068825    0.144183   -2.842525
     51          6           0        3.482202    0.681874    0.467031
     52          7           0        4.464935   -0.229889    0.645205
     53          1           0        5.425199    0.055787    0.438952
     54          1           0        4.263625   -1.200703    0.452752
     55          8           0        3.700331    1.893687    0.382307
     56          7           0        2.797341    1.541042   -2.321793
     57          1           0        3.247687    2.020810   -1.546624
     58          6           0        3.588541    1.249402   -3.504362
     59          1           0        2.967336    1.380540   -4.395493
     60          6           0        4.099233   -0.191288   -3.564439
     61          6           0        4.790678    2.225527   -3.592348
     62          1           0        4.360150    3.227554   -3.694805
     63          1           0        5.308127    2.013251   -4.534380
     64          8           0        4.637588   -0.634094   -4.562596
     65          6           0        5.790467    2.210780   -2.402106
     66          1           0        6.037075    3.247515   -2.144235
     67          1           0        5.339010    1.788139   -1.499249
     68          6           0        7.127177    1.491800   -2.660287
     69          1           0        7.632605    1.940925   -3.523148
     70          1           0        7.776330    1.613213   -1.790301
     71          7           0        7.016349    0.061410   -2.921821
     72          1           0        6.595517   -0.193776   -3.806389
     73          7           0        6.530854   -2.146460   -2.391922
     74          1           0        6.834414   -2.901624   -1.784772
     75          1           0        6.805017   -2.347341   -3.351493
     76          7           0        7.160036   -0.572927   -0.683763
     77          1           0        7.182828   -1.417206   -0.110202
     78          6           0        6.946169   -0.866974   -1.922514
     79          8           0        4.008792   -0.867670   -2.410676
     80          1           0        4.623991   -1.643740   -2.485195
 ---------------------------------------------------------------------

 SCF Done:  E(RB3LYP) =  -1866.71036926     A.U. after    1 cycles

 Alpha  occ. eigenvalues --  -19.26499 -19.26106 -19.22294 -19.20725 -19.20117
 Alpha  occ. eigenvalues --  -19.19048 -14.59272 -14.49129 -14.45723 -14.43866
 Alpha  occ. eigenvalues --  -14.43271 -14.42397 -14.41773 -14.36190 -10.43372
 Alpha  occ. eigenvalues --  -10.40798 -10.39213 -10.39073 -10.36908 -10.36856
 Alpha  occ. eigenvalues --  -10.36181 -10.34282 -10.34242 -10.32315 -10.32174
 Alpha  occ. eigenvalues --  -10.31116 -10.31091 -10.30366 -10.30106 -10.30049
 Alpha  occ. eigenvalues --  -10.29926 -10.28417 -10.28216 -10.27975 -10.27225
 Alpha  occ. eigenvalues --  -10.26565 -10.25180 -10.24915 -10.24604  -1.18983
 Alpha  occ. eigenvalues --   -1.17383  -1.14260  -1.13361  -1.11922  -1.10743
 Alpha  occ. eigenvalues --   -1.08262  -1.05978  -1.05399  -1.02455  -1.00600
 Alpha  occ. eigenvalues --   -0.97673  -0.97586  -0.96414  -0.93271  -0.91968
 Alpha  occ. eigenvalues --   -0.90374  -0.87786  -0.86973  -0.85815  -0.85735
 Alpha  occ. eigenvalues --   -0.83937  -0.81077  -0.79800  -0.77206  -0.75994
 Alpha  occ. eigenvalues --   -0.75247  -0.74604  -0.74343  -0.72948  -0.71553
 Alpha  occ. eigenvalues --   -0.70954  -0.69953  -0.69562  -0.68793  -0.67924
 Alpha  occ. eigenvalues --   -0.66530  -0.66316  -0.64978  -0.64652  -0.64059
 Alpha  occ. eigenvalues --   -0.63496  -0.61822  -0.61387  -0.61102  -0.60099
 Alpha  occ. eigenvalues --   -0.59793  -0.59593  -0.58762  -0.58018  -0.57644
 Alpha  occ. eigenvalues --   -0.57366  -0.56705  -0.56104  -0.55780  -0.55231
 Alpha  occ. eigenvalues --   -0.54982  -0.54056  -0.53556  -0.53322  -0.53236
 Alpha  occ. eigenvalues --   -0.52747  -0.52652  -0.52210  -0.51912  -0.51618
 Alpha  occ. eigenvalues --   -0.51561  -0.51297  -0.50746  -0.50365  -0.49884
 Alpha  occ. eigenvalues --   -0.49178  -0.48660  -0.48225  -0.47581  -0.47421
 Alpha  occ. eigenvalues --   -0.47183  -0.46628  -0.46439  -0.45881  -0.45784
 Alpha  occ. eigenvalues --   -0.45566  -0.45290  -0.44914  -0.44602  -0.44169
 Alpha  occ. eigenvalues --   -0.43492  -0.42229  -0.41818  -0.41293  -0.41153
 Alpha  occ. eigenvalues --   -0.40844  -0.40531  -0.40322  -0.38434  -0.38349
 Alpha  occ. eigenvalues --   -0.36628  -0.36509  -0.36222  -0.36122  -0.35757
 Alpha  occ. eigenvalues --   -0.34880  -0.34605  -0.33962  -0.33795  -0.32632
 Alpha  occ. eigenvalues --   -0.32336  -0.29570
 Alpha virt. eigenvalues --   -0.12766  -0.12310  -0.12147  -0.08646  -0.08216
 Alpha virt. eigenvalues --   -0.06833  -0.06172  -0.05725  -0.04311  -0.03132
 Alpha virt. eigenvalues --   -0.02750  -0.01736  -0.01662  -0.00984  -0.00173

 Mulliken charges:
               1
     1  N   -0.755617
     2  H    0.409904
     3  H    0.432534
     4  H    0.403553
     5  C   -0.115185
     6  H    0.228609
     7  C    0.657505
     8  C   -0.395265
     9  H    0.189219
    10  H    0.209384
    11  O   -0.541355
    12  C    0.140953
    13  C   -0.239946
    14  H    0.142262
    15  C   -0.186350
    16  H    0.177139
    17  C   -0.118780
    18  H    0.165020
    19  C   -0.129887
    20  H    0.157367
    21  C   -0.121162
    22  H    0.165485
    23  N   -0.602064
    24  H    0.371819
    25  C   -0.090059
    26  H    0.198637
    27  C    0.628626
    28  C   -0.248268
    29  H    0.156707
    30  H    0.151218
    31  O   -0.551067
    32  C   -0.101976
    33  H    0.148887
    34  C   -0.455321
    35  H    0.151275
    36  H    0.174829
    37  H    0.133661
    38  C   -0.447853
    39  H    0.146958
    40  H    0.149676
    41  H    0.163356
    42  N   -0.624961
    43  H    0.382861
    44  C   -0.061778
    45  H    0.211469
    46  C    0.628331
    47  C   -0.355259
    48  H    0.195214
    49  H    0.157648
    50  O   -0.545683
    51  C    0.615455
    52  N   -0.748367
    53  H    0.393298
    54  H    0.326335
    55  O   -0.537509
    56  N   -0.631426
    57  H    0.390145
    58  C   -0.033487
    59  H    0.200254
    60  C    0.621942
    61  C   -0.314466
    62  H    0.170177
    63  H    0.171296
    64  O   -0.499355
    65  C   -0.304679
    66  H    0.160513
    67  H    0.180268
    68  C   -0.144934
    69  H    0.156257
    70  H    0.196740
    71  N   -0.597191
    72  H    0.353272
    73  N   -0.797903
    74  H    0.336678
    75  H    0.348624
    76  N   -0.679668
    77  H    0.274493
    78  C    0.607244
    79  O   -0.598492
    80  H    0.442210
 Sum of Mulliken charges =   1.00000

 Dipole moment (field-independent basis, Debye):
    X=            -11.7403    Y=             -4.6035    Z=             10.5533  Tot=             16.4438
 Quadrupole moment (field-independent basis, Debye-Ang):
   XX=            -83.2010   YY=           -206.5955   ZZ=           -162.5508
   XY=            -18.2348   XZ=            -92.1523   YZ=            -24.1524

 Normal termination of Gaussian 16 at Fri Jun 17 23:19:33 2022.
