 Gaussian 16, Revision C.01,
 Gaussian 16:  ES64L-G16RevC.01  3-Jul-2019

 ----------------------------------------------------------------------
 # B3LYP/6-31G* empiricaldispersion=gd3 guess=read geom=check nosymm in
 tegral(ultrafinegrid)
 ----------------------------------------------------------------------

 ------------------------------------------------------
 Candidate Structure: Conf:123 Charge calc in gas phase
 ------------------------------------------------------
 Structure from the checkpoint file:  "conf-123.chk"
 Charge =  1 Multiplicity = 1

                          Input orientation:
 ---------------------------------------------------------------------
 Center     Atomic      Atomic             Coordinates (Angstroms)
 Number     Number       Type             X           Y           Z
 ---------------------------------------------------------------------
      1          7           0       -5.178877   -0.140197    2.779270
      2          1           0       -5.615795    0.331763    3.576257
      3          1           0       -5.591281    0.258955    1.902987
      4          1           0       -5.338064   -1.156210    2.862411
      5          6           0       -3.704157    0.167145    2.649311
      6          1           0       -3.293130    0.333488    3.646439
      7          6           0       -3.668311    1.423619    1.754787
      8          6           0       -2.995632   -1.026030    1.969473
      9          1           0       -1.938662   -0.754177    1.908078
     10          1           0       -3.386243   -1.132183    0.949790
     11          8           0       -4.628845    1.619079    1.001376
     12          6           0       -3.180037   -2.293806    2.770656
     13          6           0       -2.416871   -2.501063    3.929476
     14          1           0       -1.645694   -1.779803    4.192624
     15          6           0       -4.163268   -3.231821    2.419942
     16          1           0       -4.725859   -3.107797    1.495113
     17          6           0       -2.633893   -3.627947    4.720431
     18          1           0       -2.031101   -3.788062    5.609638
     19          6           0       -4.382799   -4.359956    3.218442
     20          1           0       -5.136655   -5.086894    2.931056
     21          6           0       -3.620430   -4.556109    4.369531
     22          1           0       -3.784983   -5.433636    4.987441
     23          7           0       -2.554139    2.152564    1.843660
     24          1           0       -1.836476    1.840706    2.499701
     25          6           0       -2.234643    3.300042    0.975470
     26          1           0       -2.846383    3.192972    0.073779
     27          6           0       -0.743402    3.214865    0.576160
     28          6           0       -2.527031    4.642876    1.661679
     29          1           0       -1.921343    4.694665    2.576513
     30          1           0       -2.147892    5.430954    1.002423
     31          8           0       -0.067994    4.214823    0.367321
     32          6           0       -4.006359    4.902768    1.997005
     33          1           0       -4.375307    4.064415    2.608874
     34          6           0       -4.119254    6.183385    2.838009
     35          1           0       -3.759331    7.051508    2.272304
     36          1           0       -5.160296    6.378219    3.118082
     37          1           0       -3.527449    6.116477    3.758755
     38          6           0       -4.882058    4.998888    0.738924
     39          1           0       -4.514243    5.787973    0.071187
     40          1           0       -4.910114    4.056889    0.182912
     41          1           0       -5.914389    5.248958    1.008015
     42          7           0       -0.226252    1.956718    0.513988
     43          1           0       -0.834673    1.170406    0.684319
     44          6           0        1.208309    1.704654    0.598766
     45          1           0        1.657197    2.606581    1.030525
     46          6           0        1.810011    1.477953   -0.809545
     47          6           0        1.474915    0.481670    1.495933
     48          1           0        1.060761   -0.409063    1.013359
     49          1           0        2.554811    0.324569    1.558183
     50          8           0        2.245937    0.382932   -1.153292
     51          6           0        0.830690    0.637200    2.864463
     52          7           0        1.654813    0.923715    3.891180
     53          1           0        1.264543    1.051994    4.815735
     54          1           0        2.655734    0.998217    3.779859
     55          8           0       -0.398676    0.531831    3.031324
     56          7           0        1.780025    2.580388   -1.587857
     57          1           0        1.356545    3.441673   -1.246292
     58          6           0        2.166834    2.536304   -2.992696
     59          1           0        3.111451    1.991085   -3.082938
     60          6           0        2.369073    3.973909   -3.444108
     61          6           0        1.091209    1.818812   -3.843794
     62          1           0        0.140661    2.354310   -3.720910
     63          1           0        0.969286    0.823195   -3.406138
     64          8           0        1.842020    4.933799   -2.924845
     65          6           0        1.423248    1.668850   -5.332272
     66          1           0        1.374922    2.638457   -5.839784
     67          1           0        2.459067    1.319208   -5.450795
     68          6           0        0.466093    0.696015   -6.029338
     69          1           0       -0.574951    0.957086   -5.824642
     70          1           0        0.594162    0.752085   -7.120535
     71          7           0        0.671801   -0.666333   -5.542735
     72          1           0        1.588927   -1.037755   -5.767036
     73          7           0        0.124240   -2.908648   -5.419034
     74          1           0       -0.609337   -3.601550   -5.337984
     75          1           0        0.781613   -2.969994   -4.648272
     76          7           0       -1.525174   -1.263077   -6.040300
     77          1           0       -2.166163   -2.056942   -6.002181
     78          6           0       -0.341565   -1.609953   -5.684646
     79          8           0        3.177701    4.053114   -4.518447
     80          1           0        3.217280    4.993874   -4.778119
 ---------------------------------------------------------------------

 SCF Done:  E(RB3LYP) =  -1866.68896679     A.U. after    2 cycles

 Alpha  occ. eigenvalues --  -19.26870 -19.26441 -19.24429 -19.22019 -19.21223
 Alpha  occ. eigenvalues --  -19.19523 -14.60136 -14.49568 -14.48349 -14.46527
 Alpha  occ. eigenvalues --  -14.43274 -14.39740 -14.39284 -14.33075 -10.43349
 Alpha  occ. eigenvalues --  -10.41892 -10.40468 -10.39253 -10.39196 -10.36728
 Alpha  occ. eigenvalues --  -10.34304 -10.33977 -10.33473 -10.32733 -10.32167
 Alpha  occ. eigenvalues --  -10.31081 -10.30764 -10.30752 -10.30482 -10.30451
 Alpha  occ. eigenvalues --  -10.30315 -10.30055 -10.27278 -10.27200 -10.26066
 Alpha  occ. eigenvalues --  -10.24984 -10.24641 -10.24433 -10.24172  -1.18907
 Alpha  occ. eigenvalues --   -1.17809  -1.15659  -1.14265  -1.13971  -1.11350
 Alpha  occ. eigenvalues --   -1.08891  -1.06563  -1.03038  -1.02918  -1.02180
 Alpha  occ. eigenvalues --   -1.00003  -0.97731  -0.93482  -0.93382  -0.90243
 Alpha  occ. eigenvalues --   -0.88935  -0.88832  -0.86894  -0.86078  -0.85948
 Alpha  occ. eigenvalues --   -0.84239  -0.80966  -0.79380  -0.78125  -0.75581
 Alpha  occ. eigenvalues --   -0.74574  -0.74116  -0.73606  -0.73131  -0.72203
 Alpha  occ. eigenvalues --   -0.71767  -0.71152  -0.70186  -0.69752  -0.68651
 Alpha  occ. eigenvalues --   -0.67078  -0.66381  -0.65805  -0.64411  -0.63783
 Alpha  occ. eigenvalues --   -0.63388  -0.63158  -0.62819  -0.61976  -0.60213
 Alpha  occ. eigenvalues --   -0.59549  -0.58745  -0.58355  -0.57907  -0.57356
 Alpha  occ. eigenvalues --   -0.57055  -0.56767  -0.56567  -0.55964  -0.55318
 Alpha  occ. eigenvalues --   -0.55033  -0.54344  -0.54013  -0.53559  -0.53377
 Alpha  occ. eigenvalues --   -0.53166  -0.52466  -0.52002  -0.51494  -0.51383
 Alpha  occ. eigenvalues --   -0.51005  -0.50997  -0.50765  -0.50513  -0.50460
 Alpha  occ. eigenvalues --   -0.49208  -0.48761  -0.48331  -0.47651  -0.47351
 Alpha  occ. eigenvalues --   -0.47079  -0.46964  -0.46396  -0.45898  -0.45749
 Alpha  occ. eigenvalues --   -0.45631  -0.45484  -0.45122  -0.44365  -0.43918
 Alpha  occ. eigenvalues --   -0.43215  -0.41497  -0.40837  -0.40683  -0.40611
 Alpha  occ. eigenvalues --   -0.40338  -0.40313  -0.39668  -0.39641  -0.39219
 Alpha  occ. eigenvalues --   -0.38546  -0.38526  -0.36910  -0.36793  -0.36208
 Alpha  occ. eigenvalues --   -0.35374  -0.34883  -0.32764  -0.32586  -0.31180
 Alpha  occ. eigenvalues --   -0.30132  -0.27385
 Alpha virt. eigenvalues --   -0.13316  -0.12537  -0.10979  -0.10588  -0.09928
 Alpha virt. eigenvalues --   -0.08535  -0.06543  -0.05567  -0.04304  -0.03825
 Alpha virt. eigenvalues --   -0.02381  -0.02015  -0.01353  -0.01116   0.00187

 Mulliken charges:
               1
     1  N   -0.743926
     2  H    0.416402
     3  H    0.424110
     4  H    0.405645
     5  C   -0.117913
     6  H    0.217138
     7  C    0.643140
     8  C   -0.396545
     9  H    0.225024
    10  H    0.185371
    11  O   -0.531447
    12  C    0.133955
    13  C   -0.185179
    14  H    0.158982
    15  C   -0.233194
    16  H    0.148485
    17  C   -0.124560
    18  H    0.163056
    19  C   -0.122191
    20  H    0.166128
    21  C   -0.123626
    22  H    0.167565
    23  N   -0.635079
    24  H    0.388300
    25  C   -0.083119
    26  H    0.216448
    27  C    0.604358
    28  C   -0.248272
    29  H    0.135888
    30  H    0.189136
    31  O   -0.503935
    32  C   -0.071667
    33  H    0.097520
    34  C   -0.445099
    35  H    0.158671
    36  H    0.151954
    37  H    0.141163
    38  C   -0.463648
    39  H    0.153852
    40  H    0.162408
    41  H    0.151536
    42  N   -0.599158
    43  H    0.341922
    44  C   -0.071472
    45  H    0.196353
    46  C    0.648598
    47  C   -0.388659
    48  H    0.201026
    49  H    0.187437
    50  O   -0.530686
    51  C    0.619089
    52  N   -0.720419
    53  H    0.359293
    54  H    0.367803
    55  O   -0.572191
    56  N   -0.635672
    57  H    0.381184
    58  C   -0.022473
    59  H    0.191325
    60  C    0.577611
    61  C   -0.270610
    62  H    0.142473
    63  H    0.186839
    64  O   -0.459475
    65  C   -0.277971
    66  H    0.148646
    67  H    0.138619
    68  C   -0.123959
    69  H    0.185850
    70  H    0.148421
    71  N   -0.602925
    72  H    0.319078
    73  N   -0.756308
    74  H    0.319864
    75  H    0.322445
    76  N   -0.647020
    77  H    0.264582
    78  C    0.589663
    79  O   -0.558097
    80  H    0.422141
 Sum of Mulliken charges =   1.00000

 Dipole moment (field-independent basis, Debye):
    X=            -11.5018    Y=             -1.9535    Z=             15.2927  Tot=             19.2348
 Quadrupole moment (field-independent basis, Debye-Ang):
   XX=           -134.3087   YY=           -197.8431   ZZ=           -161.9457
   XY=             23.0775   XZ=            -56.6009   YZ=             -9.4389

 Normal termination of Gaussian 16 at Fri Jun 17 23:19:58 2022.
