 Gaussian 16, Revision C.01,
 Gaussian 16:  ES64L-G16RevC.01  3-Jul-2019

 ----------------------------------------------------------------------
 # B3LYP/6-31G* empiricaldispersion=gd3 guess=read geom=check nosymm in
 tegral(ultrafinegrid)
 ----------------------------------------------------------------------

 ------------------------------------------------------
 Candidate Structure: Conf:879 Charge calc in gas phase
 ------------------------------------------------------
 Structure from the checkpoint file:  "conf-879.chk"
 Charge =  1 Multiplicity = 1

                          Input orientation:
 ---------------------------------------------------------------------
 Center     Atomic      Atomic             Coordinates (Angstroms)
 Number     Number       Type             X           Y           Z
 ---------------------------------------------------------------------
      1          7           0       -3.814099    4.403088    2.263183
      2          1           0       -4.208685    3.457151    1.986970
      3          1           0       -4.104671    4.602522    3.231857
      4          1           0       -4.148738    5.136312    1.634589
      5          6           0       -2.321828    4.164706    2.174266
      6          1           0       -1.921765    4.797960    1.375014
      7          6           0       -2.235933    2.683502    1.721475
      8          6           0       -1.638385    4.473476    3.527734
      9          1           0       -1.572742    5.562235    3.638844
     10          1           0       -0.613005    4.102246    3.457838
     11          8           0       -3.292843    2.042258    1.620002
     12          6           0       -2.379612    3.868347    4.699547
     13          6           0       -3.237875    4.661983    5.477461
     14          1           0       -3.286803    5.736221    5.302878
     15          6           0       -2.288979    2.495762    4.974578
     16          1           0       -1.623813    1.871233    4.383910
     17          6           0       -3.992810    4.094720    6.509460
     18          1           0       -4.643336    4.722626    7.111014
     19          6           0       -3.038711    1.931877    6.005312
     20          1           0       -2.954444    0.869349    6.213152
     21          6           0       -3.895208    2.728577    6.771580
     22          1           0       -4.476780    2.285431    7.574262
     23          7           0       -1.018482    2.221640    1.440025
     24          1           0       -0.226966    2.869670    1.476982
     25          6           0       -0.805505    0.955189    0.727226
     26          1           0       -1.249480    0.141800    1.308943
     27          6           0        0.706116    0.759152    0.581264
     28          6           0       -1.467721    1.024962   -0.680797
     29          1           0       -2.527405    1.243134   -0.514039
     30          1           0       -1.039613    1.894531   -1.190716
     31          8           0        1.491572    1.726682    0.607254
     32          6           0       -1.369972   -0.215287   -1.589669
     33          1           0       -0.316705   -0.441746   -1.792270
     34          6           0       -2.025511   -1.453438   -0.958812
     35          1           0       -3.073241   -1.250515   -0.702894
     36          1           0       -2.009739   -2.293612   -1.660881
     37          1           0       -1.522185   -1.795111   -0.046616
     38          6           0       -2.029355    0.115137   -2.938238
     39          1           0       -3.096189    0.340199   -2.813107
     40          1           0       -1.554222    0.981974   -3.413027
     41          1           0       -1.943491   -0.731442   -3.627182
     42          7           0        1.093110   -0.489027    0.310728
     43          1           0        0.481636   -1.285743    0.497174
     44          6           0        2.434852   -0.827624   -0.165694
     45          1           0        3.171902   -0.362156    0.497861
     46          6           0        2.580845   -0.281923   -1.620400
     47          6           0        2.618112   -2.357568   -0.208231
     48          1           0        2.100394   -2.719923   -1.103308
     49          1           0        3.682717   -2.569919   -0.343663
     50          8           0        2.186107   -0.937434   -2.577910
     51          6           0        2.019631   -3.103042    0.978657
     52          7           0        2.850597   -3.919900    1.668009
     53          1           0        2.453582   -4.501082    2.394862
     54          1           0        3.798812   -4.102923    1.375520
     55          8           0        0.828137   -2.978438    1.277267
     56          7           0        3.113715    0.960373   -1.720757
     57          1           0        3.317103    1.462286   -0.866524
     58          6           0        3.309344    1.640820   -2.992134
     59          1           0        2.882113    0.979182   -3.755085
     60          6           0        4.789498    1.798091   -3.356101
     61          6           0        2.595081    3.005118   -3.026908
     62          1           0        2.939693    3.548823   -3.910011
     63          1           0        2.926302    3.587816   -2.157114
     64          8           0        5.188369    2.550759   -4.214028
     65          6           0        1.059757    2.874856   -3.027173
     66          1           0        0.690183    2.804326   -4.055992
     67          1           0        0.769391    1.935319   -2.538136
     68          6           0        0.345558    4.034716   -2.320092
     69          1           0        0.609849    5.000128   -2.765309
     70          1           0       -0.743775    3.929116   -2.418101
     71          7           0        0.742712    4.039475   -0.917859
     72          1           0        1.103387    3.168903   -0.537700
     73          7           0        0.855147    4.709196    1.289603
     74          1           0        0.891585    5.546272    1.862762
     75          1           0        1.766762    4.257304    1.279726
     76          7           0       -0.496522    5.910648   -0.312835
     77          1           0       -0.559599    6.594413    0.444220
     78          6           0        0.336005    4.968710   -0.013340
     79          8           0        5.599529    0.987971   -2.638867
     80          1           0        6.502218    1.136082   -2.981241
 ---------------------------------------------------------------------

 SCF Done:  E(RB3LYP) =  -1866.71088616     A.U. after    1 cycles

 Alpha  occ. eigenvalues --  -19.27397 -19.25913 -19.23637 -19.21423 -19.21115
 Alpha  occ. eigenvalues --  -19.20561 -14.57963 -14.48414 -14.46500 -14.45431
 Alpha  occ. eigenvalues --  -14.45348 -14.45194 -14.43040 -14.37945 -10.42438
 Alpha  occ. eigenvalues --  -10.40276 -10.39668 -10.38952 -10.38932 -10.37877
 Alpha  occ. eigenvalues --  -10.37703 -10.34608 -10.34170 -10.33125 -10.32138
 Alpha  occ. eigenvalues --  -10.31552 -10.30464 -10.29962 -10.29833 -10.29798
 Alpha  occ. eigenvalues --  -10.29657 -10.29445 -10.29368 -10.27903 -10.27024
 Alpha  occ. eigenvalues --  -10.26986 -10.26862 -10.24796 -10.24546  -1.18212
 Alpha  occ. eigenvalues --   -1.18202  -1.15246  -1.12882  -1.12488  -1.12207
 Alpha  occ. eigenvalues --   -1.09167  -1.07157  -1.05255  -1.03490  -1.01720
 Alpha  occ. eigenvalues --   -0.99998  -0.98089  -0.97044  -0.93701  -0.92427
 Alpha  occ. eigenvalues --   -0.90375  -0.88502  -0.87407  -0.86292  -0.85336
 Alpha  occ. eigenvalues --   -0.83775  -0.83052  -0.78898  -0.77847  -0.76044
 Alpha  occ. eigenvalues --   -0.75618  -0.74959  -0.72838  -0.71937  -0.71710
 Alpha  occ. eigenvalues --   -0.70801  -0.70047  -0.69725  -0.68941  -0.68470
 Alpha  occ. eigenvalues --   -0.68338  -0.67805  -0.66940  -0.65415  -0.64263
 Alpha  occ. eigenvalues --   -0.63203  -0.62785  -0.62429  -0.61839  -0.61154
 Alpha  occ. eigenvalues --   -0.60515  -0.60295  -0.59569  -0.58916  -0.57820
 Alpha  occ. eigenvalues --   -0.57539  -0.56928  -0.56462  -0.56007  -0.55774
 Alpha  occ. eigenvalues --   -0.55732  -0.54775  -0.54618  -0.54363  -0.53886
 Alpha  occ. eigenvalues --   -0.53267  -0.52894  -0.52446  -0.52033  -0.51954
 Alpha  occ. eigenvalues --   -0.51573  -0.50883  -0.50753  -0.50694  -0.50248
 Alpha  occ. eigenvalues --   -0.49999  -0.49861  -0.49205  -0.48235  -0.48091
 Alpha  occ. eigenvalues --   -0.47532  -0.47459  -0.46860  -0.46606  -0.46353
 Alpha  occ. eigenvalues --   -0.46010  -0.45639  -0.45056  -0.44922  -0.44851
 Alpha  occ. eigenvalues --   -0.44462  -0.42972  -0.42696  -0.42174  -0.41952
 Alpha  occ. eigenvalues --   -0.40959  -0.40671  -0.39843  -0.39252  -0.38252
 Alpha  occ. eigenvalues --   -0.37809  -0.37268  -0.36783  -0.36313  -0.36177
 Alpha  occ. eigenvalues --   -0.36119  -0.35693  -0.35302  -0.35210  -0.33618
 Alpha  occ. eigenvalues --   -0.33016  -0.31441
 Alpha virt. eigenvalues --   -0.12457  -0.11695  -0.10823  -0.09685  -0.08254
 Alpha virt. eigenvalues --   -0.07776  -0.06709  -0.06128  -0.04597  -0.03790
 Alpha virt. eigenvalues --   -0.02632  -0.01680  -0.00928  -0.00756  -0.00599

 Mulliken charges:
               1
     1  N   -0.765273
     2  H    0.430920
     3  H    0.401913
     4  H    0.412710
     5  C   -0.110848
     6  H    0.228650
     7  C    0.652071
     8  C   -0.384759
     9  H    0.172858
    10  H    0.207149
    11  O   -0.545179
    12  C    0.123452
    13  C   -0.228420
    14  H    0.145004
    15  C   -0.169331
    16  H    0.149836
    17  C   -0.119618
    18  H    0.164278
    19  C   -0.123235
    20  H    0.164210
    21  C   -0.123562
    22  H    0.166359
    23  N   -0.644763
    24  H    0.417565
    25  C   -0.053688
    26  H    0.194771
    27  C    0.622202
    28  C   -0.293108
    29  H    0.177256
    30  H    0.154153
    31  O   -0.589456
    32  C   -0.106684
    33  H    0.162217
    34  C   -0.467966
    35  H    0.151164
    36  H    0.166253
    37  H    0.150035
    38  C   -0.448414
    39  H    0.144791
    40  H    0.144444
    41  H    0.164282
    42  N   -0.616685
    43  H    0.407807
    44  C   -0.044483
    45  H    0.173803
    46  C    0.637371
    47  C   -0.408345
    48  H    0.233094
    49  H    0.169788
    50  O   -0.518934
    51  C    0.620031
    52  N   -0.739744
    53  H    0.360629
    54  H    0.355284
    55  O   -0.532474
    56  N   -0.588102
    57  H    0.345817
    58  C   -0.079209
    59  H    0.225836
    60  C    0.594574
    61  C   -0.278284
    62  H    0.195923
    63  H    0.146948
    64  O   -0.446702
    65  C   -0.329884
    66  H    0.169816
    67  H    0.157572
    68  C   -0.097169
    69  H    0.178208
    70  H    0.154171
    71  N   -0.639681
    72  H    0.377955
    73  N   -0.800744
    74  H    0.331370
    75  H    0.348812
    76  N   -0.649546
    77  H    0.262940
    78  C    0.572095
    79  O   -0.565877
    80  H    0.421783
 Sum of Mulliken charges =   1.00000

 Dipole moment (field-independent basis, Debye):
    X=             -3.2521    Y=             11.8501    Z=             12.6909  Tot=             17.6652
 Quadrupole moment (field-independent basis, Debye-Ang):
   XX=           -151.8661   YY=           -139.7829   ZZ=           -185.6793
   XY=            -62.9868   XZ=            -27.6886   YZ=             45.4368

 Normal termination of Gaussian 16 at Fri Jun 17 23:19:36 2022.
