 Gaussian 16, Revision C.01,
 Gaussian 16:  ES64L-G16RevC.01  3-Jul-2019

 ----------------------------------------------------------------------
 # B3LYP/6-31G* empiricaldispersion=gd3 guess=read geom=check nosymm in
 tegral(ultrafinegrid)
 ----------------------------------------------------------------------

 ------------------------------------------------------
 Candidate Structure: Conf:669 Charge calc in gas phase
 ------------------------------------------------------
 Structure from the checkpoint file:  "conf-669.chk"
 Charge =  1 Multiplicity = 1

                          Input orientation:
 ---------------------------------------------------------------------
 Center     Atomic      Atomic             Coordinates (Angstroms)
 Number     Number       Type             X           Y           Z
 ---------------------------------------------------------------------
      1          7           0       -5.963545    3.283236    2.653721
      2          1           0       -6.551166    3.795710    1.990646
      3          1           0       -6.029131    2.255747    2.424813
      4          1           0       -6.276616    3.502175    3.612136
      5          6           0       -4.490870    3.571739    2.478972
      6          1           0       -4.388796    4.543756    1.992094
      7          6           0       -3.999760    2.401014    1.593778
      8          6           0       -3.790137    3.575111    3.859315
      9          1           0       -2.749376    3.869394    3.688216
     10          1           0       -3.771609    2.548252    4.243500
     11          8           0       -4.731093    1.403871    1.502756
     12          6           0       -4.480684    4.502845    4.834058
     13          6           0       -5.370720    3.986717    5.789785
     14          1           0       -5.478311    2.908733    5.902781
     15          6           0       -4.310276    5.891798    4.742381
     16          1           0       -3.615072    6.304091    4.013957
     17          6           0       -6.077463    4.845425    6.638696
     18          1           0       -6.751909    4.433228    7.383253
     19          6           0       -5.010461    6.746288    5.592645
     20          1           0       -4.860051    7.819459    5.522179
     21          6           0       -5.899000    6.224894    6.538746
     22          1           0       -6.440870    6.893108    7.201033
     23          7           0       -2.798277    2.541362    1.050554
     24          1           0       -2.241930    3.391776    1.144073
     25          6           0       -2.130950    1.513737    0.248185
     26          1           0       -2.292545    0.544090    0.726753
     27          6           0       -0.645473    1.914332    0.266037
     28          6           0       -2.696802    1.507218   -1.195508
     29          1           0       -3.779361    1.347245   -1.109150
     30          1           0       -2.546957    2.513867   -1.607131
     31          8           0       -0.331172    3.094788    0.440821
     32          6           0       -2.108435    0.460092   -2.162474
     33          1           0       -1.026456    0.614925   -2.240283
     34          6           0       -2.347180   -0.980982   -1.689704
     35          1           0       -3.421081   -1.194532   -1.616868
     36          1           0       -1.901568   -1.690553   -2.393082
     37          1           0       -1.903016   -1.191430   -0.709351
     38          6           0       -2.700308    0.669649   -3.564312
     39          1           0       -3.786412    0.512376   -3.563381
     40          1           0       -2.505632    1.682893   -3.935280
     41          1           0       -2.261282   -0.038400   -4.275778
     42          7           0        0.227672    0.914028    0.047821
     43          1           0       -0.113953   -0.011811   -0.201035
     44          6           0        1.597079    1.132517   -0.393956
     45          1           0        1.706656    2.188198   -0.655221
     46          6           0        1.788569    0.229862   -1.630915
     47          6           0        2.622198    0.754136    0.710671
     48          1           0        2.539194    1.482968    1.524950
     49          1           0        2.382570   -0.239180    1.095695
     50          8           0        1.125680   -0.801589   -1.743251
     51          6           0        4.029824    0.682526    0.117569
     52          7           0        4.615196    1.894614   -0.134173
     53          1           0        5.514709    1.885697   -0.599298
     54          1           0        4.336288    2.735561    0.350450
     55          8           0        4.517150   -0.375989   -0.246462
     56          7           0        2.706865    0.652388   -2.523751
     57          1           0        3.298617    1.442618   -2.282199
     58          6           0        3.292527   -0.261786   -3.499644
     59          1           0        3.121622   -1.285121   -3.152052
     60          6           0        4.792195    0.007174   -3.515527
     61          6           0        2.699657   -0.097771   -4.915435
     62          1           0        3.202725   -0.810806   -5.576256
     63          1           0        2.931577    0.909135   -5.287320
     64          8           0        5.316208    1.011904   -3.076217
     65          6           0        1.183037   -0.325775   -4.942278
     66          1           0        0.956625   -1.330787   -4.562452
     67          1           0        0.689680    0.374850   -4.255773
     68          6           0        0.563916   -0.149056   -6.338226
     69          1           0       -0.525482   -0.260941   -6.263165
     70          1           0        0.754693    0.864742   -6.702297
     71          7           0        1.046760   -1.098481   -7.344491
     72          1           0        1.010346   -2.063378   -7.029256
     73          7           0        2.398082    0.396621   -8.529642
     74          1           0        3.184790    0.502216   -9.158619
     75          1           0        1.548777    0.783417   -8.928533
     76          7           0        3.090592   -1.871276   -8.100015
     77          1           0        3.853235   -1.655398   -8.744983
     78          6           0        2.251720   -0.901686   -8.022605
     79          8           0        5.460128   -0.983005   -4.122537
     80          1           0        6.405763   -0.740976   -4.126549
 ---------------------------------------------------------------------

 SCF Done:  E(RB3LYP) =  -1866.68200598     A.U. after    3 cycles

 Alpha  occ. eigenvalues --  -19.26686 -19.26441 -19.22258 -19.21063 -19.19928
 Alpha  occ. eigenvalues --  -19.18390 -14.59983 -14.49646 -14.45751 -14.43476
 Alpha  occ. eigenvalues --  -14.42952 -14.39597 -14.38595 -14.32898 -10.43606
 Alpha  occ. eigenvalues --  -10.41078 -10.39244 -10.39054 -10.36869 -10.36254
 Alpha  occ. eigenvalues --  -10.34567 -10.34496 -10.32800 -10.32742 -10.32400
 Alpha  occ. eigenvalues --  -10.31484 -10.31145 -10.30820 -10.30719 -10.30431
 Alpha  occ. eigenvalues --  -10.30288 -10.28358 -10.27898 -10.27209 -10.27176
 Alpha  occ. eigenvalues --  -10.24993 -10.24936 -10.24623 -10.24076  -1.19181
 Alpha  occ. eigenvalues --   -1.17555  -1.14394  -1.13878  -1.11867  -1.10287
 Alpha  occ. eigenvalues --   -1.08623  -1.06230  -1.02549  -1.01844  -1.00388
 Alpha  occ. eigenvalues --   -0.98215  -0.97548  -0.93795  -0.93190  -0.90601
 Alpha  occ. eigenvalues --   -0.88753  -0.87622  -0.87401  -0.86402  -0.85306
 Alpha  occ. eigenvalues --   -0.83976  -0.80261  -0.79894  -0.77004  -0.75920
 Alpha  occ. eigenvalues --   -0.75510  -0.74228  -0.73679  -0.73068  -0.72204
 Alpha  occ. eigenvalues --   -0.71478  -0.70689  -0.69760  -0.67903  -0.66691
 Alpha  occ. eigenvalues --   -0.66142  -0.65775  -0.64998  -0.64702  -0.64191
 Alpha  occ. eigenvalues --   -0.63355  -0.63197  -0.61436  -0.60964  -0.59476
 Alpha  occ. eigenvalues --   -0.58385  -0.57882  -0.57472  -0.57240  -0.57173
 Alpha  occ. eigenvalues --   -0.56665  -0.56147  -0.55688  -0.55324  -0.54915
 Alpha  occ. eigenvalues --   -0.54630  -0.54183  -0.53923  -0.53523  -0.53232
 Alpha  occ. eigenvalues --   -0.52870  -0.52537  -0.52297  -0.51498  -0.51436
 Alpha  occ. eigenvalues --   -0.50840  -0.50753  -0.50425  -0.50155  -0.48689
 Alpha  occ. eigenvalues --   -0.48392  -0.48114  -0.47884  -0.46925  -0.46728
 Alpha  occ. eigenvalues --   -0.46367  -0.46247  -0.46185  -0.45974  -0.45958
 Alpha  occ. eigenvalues --   -0.45842  -0.45095  -0.44803  -0.44070  -0.43151
 Alpha  occ. eigenvalues --   -0.42508  -0.42446  -0.42268  -0.41415  -0.40970
 Alpha  occ. eigenvalues --   -0.40371  -0.39768  -0.39424  -0.38493  -0.38467
 Alpha  occ. eigenvalues --   -0.37215  -0.36715  -0.36445  -0.36036  -0.35083
 Alpha  occ. eigenvalues --   -0.34075  -0.33555  -0.33194  -0.31842  -0.30820
 Alpha  occ. eigenvalues --   -0.30140  -0.26995
 Alpha virt. eigenvalues --   -0.13535  -0.12892  -0.11251  -0.10273  -0.08176
 Alpha virt. eigenvalues --   -0.06259  -0.05672  -0.05251  -0.05024  -0.03094
 Alpha virt. eigenvalues --   -0.02325  -0.01621  -0.00927  -0.00724  -0.00153

 Mulliken charges:
               1
     1  N   -0.749684
     2  H    0.416024
     3  H    0.426780
     4  H    0.405592
     5  C   -0.114020
     6  H    0.212280
     7  C    0.660727
     8  C   -0.382982
     9  H    0.207610
    10  H    0.195268
    11  O   -0.542256
    12  C    0.138983
    13  C   -0.232209
    14  H    0.153168
    15  C   -0.181452
    16  H    0.146573
    17  C   -0.119711
    18  H    0.169535
    19  C   -0.122310
    20  H    0.169235
    21  C   -0.123877
    22  H    0.171216
    23  N   -0.611209
    24  H    0.367081
    25  C   -0.066358
    26  H    0.191281
    27  C    0.610585
    28  C   -0.257482
    29  H    0.160379
    30  H    0.148174
    31  O   -0.544987
    32  C   -0.105207
    33  H    0.151687
    34  C   -0.448700
    35  H    0.148423
    36  H    0.176746
    37  H    0.133260
    38  C   -0.453040
    39  H    0.146505
    40  H    0.145123
    41  H    0.165347
    42  N   -0.603305
    43  H    0.374728
    44  C   -0.073941
    45  H    0.186073
    46  C    0.624192
    47  C   -0.335356
    48  H    0.163840
    49  H    0.191634
    50  O   -0.542411
    51  C    0.558098
    52  N   -0.742818
    53  H    0.369360
    54  H    0.340619
    55  O   -0.484259
    56  N   -0.597347
    57  H    0.363291
    58  C   -0.046742
    59  H    0.210500
    60  C    0.605326
    61  C   -0.279222
    62  H    0.202821
    63  H    0.145962
    64  O   -0.489825
    65  C   -0.267783
    66  H    0.152584
    67  H    0.137625
    68  C   -0.158214
    69  H    0.147256
    70  H    0.154598
    71  N   -0.565697
    72  H    0.327387
    73  N   -0.742049
    74  H    0.325421
    75  H    0.329747
    76  N   -0.634821
    77  H    0.267123
    78  C    0.547583
    79  O   -0.548103
    80  H    0.424024
 Sum of Mulliken charges =   1.00000

 Dipole moment (field-independent basis, Debye):
    X=            -17.9616    Y=             20.3222    Z=              8.3368  Tot=             28.3745
 Quadrupole moment (field-independent basis, Debye-Ang):
   XX=            -80.8038   YY=           -160.6098   ZZ=           -131.6244
   XY=            -71.1889   XZ=            -86.5703   YZ=             39.5488

 Normal termination of Gaussian 16 at Fri Jun 17 23:19:57 2022.
