 Gaussian 16, Revision C.01,
 Gaussian 16:  ES64L-G16RevC.01  3-Jul-2019

 ----------------------------------------------------------------------
 # B3LYP/6-31G* empiricaldispersion=gd3 guess=read geom=check nosymm in
 tegral(ultrafinegrid)
 ----------------------------------------------------------------------

 ------------------------------------------------------
 Candidate Structure: Conf:474 Charge calc in gas phase
 ------------------------------------------------------
 Structure from the checkpoint file:  "conf-474.chk"
 Charge =  1 Multiplicity = 1

                          Input orientation:
 ---------------------------------------------------------------------
 Center     Atomic      Atomic             Coordinates (Angstroms)
 Number     Number       Type             X           Y           Z
 ---------------------------------------------------------------------
      1          7           0       -3.395700    1.150384    3.743947
      2          1           0       -4.365416    1.474652    3.778964
      3          1           0       -3.394233    0.148436    3.408623
      4          1           0       -2.971382    1.264072    4.675104
      5          6           0       -2.578898    1.839789    2.673736
      6          1           0       -3.002754    2.825866    2.485003
      7          6           0       -2.688095    0.881592    1.470347
      8          6           0       -1.110146    1.960444    3.140519
      9          1           0       -0.577440    2.475529    2.339013
     10          1           0       -0.680302    0.955817    3.206179
     11          8           0       -3.017811   -0.289680    1.708684
     12          6           0       -1.010776    2.703667    4.451664
     13          6           0       -0.855776    2.007055    5.659977
     14          1           0       -0.702830    0.928708    5.643829
     15          6           0       -1.146329    4.099700    4.488192
     16          1           0       -1.250851    4.645912    3.553524
     17          6           0       -0.840201    2.690829    6.880822
     18          1           0       -0.707448    2.139550    7.807086
     19          6           0       -1.125624    4.781750    5.703296
     20          1           0       -1.220388    5.863978    5.719551
     21          6           0       -0.977879    4.078137    6.903438
     22          1           0       -0.960818    4.612184    7.848675
     23          7           0       -2.369871    1.392074    0.281585
     24          1           0       -2.017246    2.367077    0.263398
     25          6           0       -1.946758    0.500793   -0.795154
     26          1           0       -2.654498   -0.332390   -0.837112
     27          6           0       -0.565922   -0.081394   -0.380302
     28          6           0       -1.985674    1.294396   -2.120333
     29          1           0       -2.968757    1.783269   -2.139024
     30          1           0       -1.245484    2.100987   -2.066000
     31          8           0       -0.053139    0.231757    0.707864
     32          6           0       -1.807323    0.530602   -3.446908
     33          1           0       -0.782123    0.150698   -3.516381
     34          6           0       -2.770745   -0.656364   -3.583664
     35          1           0       -3.813531   -0.323201   -3.501576
     36          1           0       -2.640035   -1.140423   -4.555697
     37          1           0       -2.600902   -1.429979   -2.826352
     38          6           0       -1.995210    1.515357   -4.611726
     39          1           0       -3.018008    1.912878   -4.630091
     40          1           0       -1.305762    2.365016   -4.535736
     41          1           0       -1.811979    1.018388   -5.569967
     42          7           0        0.022326   -0.928901   -1.236082
     43          1           0       -0.408470   -1.186479   -2.124430
     44          6           0        1.284772   -1.620839   -0.943539
     45          1           0        1.255949   -1.931748    0.107838
     46          6           0        2.525846   -0.703758   -1.120280
     47          6           0        1.413031   -2.864372   -1.838183
     48          1           0        2.383100   -3.329018   -1.653232
     49          1           0        0.628348   -3.576298   -1.564132
     50          8           0        3.388877   -0.935429   -1.962925
     51          6           0        1.205057   -2.533650   -3.316020
     52          7           0        2.273371   -2.684182   -4.132378
     53          1           0        2.160736   -2.357529   -5.084437
     54          1           0        3.195463   -2.593876   -3.724765
     55          8           0        0.090806   -2.179725   -3.717558
     56          7           0        2.567460    0.342509   -0.258143
     57          1           0        1.823810    0.401069    0.435015
     58          6           0        3.692758    1.249298   -0.175282
     59          1           0        4.218898    1.185915   -1.135473
     60          6           0        4.726618    0.844814    0.882831
     61          6           0        3.235597    2.699673    0.063841
     62          1           0        4.136601    3.313157    0.136280
     63          1           0        2.745072    2.764240    1.044598
     64          8           0        5.595307    1.586719    1.282073
     65          6           0        2.283977    3.214707   -1.039427
     66          1           0        2.647365    4.170434   -1.441401
     67          1           0        2.280609    2.519264   -1.886450
     68          6           0        0.831809    3.386431   -0.589335
     69          1           0        0.190993    3.593959   -1.456884
     70          1           0        0.470462    2.468358   -0.120673
     71          7           0        0.711345    4.481790    0.382579
     72          1           0        1.396373    5.216186    0.246929
     73          7           0       -0.532204    6.223961    1.269247
     74          1           0       -1.367554    6.524444    1.751926
     75          1           0        0.321272    6.570784    1.688690
     76          7           0       -1.589572    4.197435    0.595890
     77          1           0       -2.424175    4.701460    0.895949
     78          6           0       -0.530056    4.936304    0.756267
     79          8           0        4.580706   -0.428987    1.306349
     80          1           0        5.312806   -0.594763    1.930959
 ---------------------------------------------------------------------

 SCF Done:  E(RB3LYP) =  -1866.71990038     A.U. after    2 cycles

 Alpha  occ. eigenvalues --  -19.27364 -19.24494 -19.22052 -19.21390 -19.20177
 Alpha  occ. eigenvalues --  -19.19730 -14.58187 -14.46232 -14.46086 -14.45533
 Alpha  occ. eigenvalues --  -14.45526 -14.43670 -14.42893 -14.40445 -10.41039
 Alpha  occ. eigenvalues --  -10.40033 -10.39555 -10.38780 -10.38619 -10.37167
 Alpha  occ. eigenvalues --  -10.37161 -10.33168 -10.33016 -10.31939 -10.31617
 Alpha  occ. eigenvalues --  -10.31377 -10.31048 -10.30364 -10.30134 -10.29998
 Alpha  occ. eigenvalues --  -10.29930 -10.29607 -10.28185 -10.27978 -10.27581
 Alpha  occ. eigenvalues --  -10.27544 -10.26508 -10.24266 -10.24128  -1.18160
 Alpha  occ. eigenvalues --   -1.17036  -1.13798  -1.12071  -1.11834  -1.11206
 Alpha  occ. eigenvalues --   -1.09108  -1.09015  -1.03688  -1.02129  -1.00879
 Alpha  occ. eigenvalues --   -0.99679  -0.98046  -0.96977  -0.95539  -0.91916
 Alpha  occ. eigenvalues --   -0.89637  -0.88516  -0.86877  -0.86022  -0.85461
 Alpha  occ. eigenvalues --   -0.83364  -0.82804  -0.78064  -0.77174  -0.75932
 Alpha  occ. eigenvalues --   -0.75184  -0.73605  -0.72480  -0.71974  -0.71120
 Alpha  occ. eigenvalues --   -0.70972  -0.70347  -0.69817  -0.69403  -0.68719
 Alpha  occ. eigenvalues --   -0.67525  -0.66930  -0.66077  -0.64737  -0.64077
 Alpha  occ. eigenvalues --   -0.63945  -0.62885  -0.62082  -0.61633  -0.61257
 Alpha  occ. eigenvalues --   -0.60324  -0.59560  -0.58417  -0.57885  -0.57084
 Alpha  occ. eigenvalues --   -0.56957  -0.56753  -0.56140  -0.55967  -0.55743
 Alpha  occ. eigenvalues --   -0.55158  -0.54983  -0.54677  -0.53763  -0.53427
 Alpha  occ. eigenvalues --   -0.53055  -0.52740  -0.52183  -0.51806  -0.51374
 Alpha  occ. eigenvalues --   -0.51116  -0.50733  -0.50310  -0.50064  -0.49792
 Alpha  occ. eigenvalues --   -0.49457  -0.48846  -0.48700  -0.48022  -0.47701
 Alpha  occ. eigenvalues --   -0.47171  -0.46855  -0.46538  -0.46218  -0.45544
 Alpha  occ. eigenvalues --   -0.45460  -0.45216  -0.45088  -0.44910  -0.44660
 Alpha  occ. eigenvalues --   -0.43869  -0.43359  -0.43026  -0.42831  -0.40753
 Alpha  occ. eigenvalues --   -0.40230  -0.39947  -0.39458  -0.39224  -0.38805
 Alpha  occ. eigenvalues --   -0.37488  -0.37102  -0.36841  -0.36321  -0.36264
 Alpha  occ. eigenvalues --   -0.35797  -0.35468  -0.34815  -0.33861  -0.33408
 Alpha  occ. eigenvalues --   -0.32863  -0.32416
 Alpha virt. eigenvalues --   -0.12285  -0.11852  -0.09341  -0.08715  -0.08354
 Alpha virt. eigenvalues --   -0.06923  -0.06539  -0.06337  -0.05489  -0.05022
 Alpha virt. eigenvalues --   -0.02615  -0.01104  -0.00798  -0.00668  -0.00007

 Mulliken charges:
               1
     1  N   -0.750777
     2  H    0.409523
     3  H    0.423016
     4  H    0.401136
     5  C   -0.115517
     6  H    0.195537
     7  C    0.659624
     8  C   -0.383433
     9  H    0.227446
    10  H    0.198172
    11  O   -0.551000
    12  C    0.136778
    13  C   -0.231155
    14  H    0.149167
    15  C   -0.175437
    16  H    0.121064
    17  C   -0.121317
    18  H    0.163930
    19  C   -0.126444
    20  H    0.152432
    21  C   -0.125722
    22  H    0.164711
    23  N   -0.634753
    24  H    0.429633
    25  C   -0.093425
    26  H    0.206347
    27  C    0.651122
    28  C   -0.287817
    29  H    0.158857
    30  H    0.151589
    31  O   -0.576410
    32  C   -0.101110
    33  H    0.150017
    34  C   -0.447747
    35  H    0.140220
    36  H    0.174124
    37  H    0.143013
    38  C   -0.448180
    39  H    0.146757
    40  H    0.139016
    41  H    0.162441
    42  N   -0.635344
    43  H    0.416067
    44  C   -0.081770
    45  H    0.192575
    46  C    0.636420
    47  C   -0.372568
    48  H    0.183753
    49  H    0.190317
    50  O   -0.530879
    51  C    0.595140
    52  N   -0.716630
    53  H    0.347636
    54  H    0.368408
    55  O   -0.528534
    56  N   -0.623041
    57  H    0.376478
    58  C   -0.068620
    59  H    0.215673
    60  C    0.597415
    61  C   -0.285484
    62  H    0.187506
    63  H    0.152054
    64  O   -0.453656
    65  C   -0.306910
    66  H    0.151766
    67  H    0.172166
    68  C   -0.146898
    69  H    0.167719
    70  H    0.175220
    71  N   -0.602530
    72  H    0.331330
    73  N   -0.764557
    74  H    0.338951
    75  H    0.345967
    76  N   -0.721430
    77  H    0.282730
    78  C    0.670967
    79  O   -0.563092
    80  H    0.420257
 Sum of Mulliken charges =   1.00000

 Dipole moment (field-independent basis, Debye):
    X=             -6.8883    Y=             11.7025    Z=             11.7144  Tot=             17.9339
 Quadrupole moment (field-independent basis, Debye-Ang):
   XX=           -192.7656   YY=           -155.6818   ZZ=           -143.9719
   XY=            -28.6792   XZ=            -42.8014   YZ=             37.7083

 Normal termination of Gaussian 16 at Fri Jun 17 23:19:54 2022.
