 Gaussian 16, Revision C.01,
 Gaussian 16:  ES64L-G16RevC.01  3-Jul-2019

 ----------------------------------------------------------------------
 # B3LYP/6-31G* empiricaldispersion=gd3 guess=read geom=check nosymm in
 tegral(ultrafinegrid)
 ----------------------------------------------------------------------

 ------------------------------------------------------
 Candidate Structure: Conf:496 Charge calc in gas phase
 ------------------------------------------------------
 Structure from the checkpoint file:  "conf-496.chk"
 Charge =  1 Multiplicity = 1

                          Input orientation:
 ---------------------------------------------------------------------
 Center     Atomic      Atomic             Coordinates (Angstroms)
 Number     Number       Type             X           Y           Z
 ---------------------------------------------------------------------
      1          7           0       -6.351049   -0.260548    3.323006
      2          1           0       -6.927216    0.583138    3.397482
      3          1           0       -6.358155   -0.584154    2.308302
      4          1           0       -6.730804   -0.975791    3.949705
      5          6           0       -4.872406    0.002881    3.536304
      6          1           0       -4.756229    0.917724    4.120461
      7          6           0       -4.354886    0.158261    2.083572
      8          6           0       -4.229496   -1.202661    4.259503
      9          1           0       -4.456435   -2.109982    3.686115
     10          1           0       -4.703350   -1.301955    5.245440
     11          8           0       -5.058828   -0.327241    1.180626
     12          6           0       -2.731661   -1.037349    4.405084
     13          6           0       -1.854557   -1.774375    3.600759
     14          1           0       -2.249403   -2.500961    2.894620
     15          6           0       -2.210786   -0.102140    5.309447
     16          1           0       -2.881502    0.466584    5.951146
     17          6           0       -0.476073   -1.585898    3.704407
     18          1           0        0.196377   -2.170292    3.083532
     19          6           0       -0.832963    0.094338    5.405723
     20          1           0       -0.439270    0.819486    6.111333
     21          6           0        0.035308   -0.649914    4.604847
     22          1           0        1.108544   -0.506400    4.688764
     23          7           0       -3.191148    0.765742    1.926197
     24          1           0       -2.640069    1.099887    2.718452
     25          6           0       -2.481714    0.851747    0.647899
     26          1           0       -2.574951   -0.112794    0.140375
     27          6           0       -1.020285    1.127352    1.039189
     28          6           0       -3.073743    1.975980   -0.234376
     29          1           0       -4.148515    1.773151   -0.324048
     30          1           0       -2.963770    2.920556    0.313523
     31          8           0       -0.753986    1.651917    2.125906
     32          6           0       -2.475504    2.118942   -1.648290
     33          1           0       -1.403704    2.338509   -1.555837
     34          6           0       -2.637967    0.841845   -2.487132
     35          1           0       -3.696452    0.565787   -2.573615
     36          1           0       -2.244864    0.993679   -3.497186
     37          1           0       -2.105848   -0.021147   -2.068299
     38          6           0       -3.134726    3.312688   -2.355732
     39          1           0       -4.211109    3.144003   -2.487293
     40          1           0       -3.005297    4.239482   -1.784892
     41          1           0       -2.697713    3.465233   -3.348041
     42          7           0       -0.095829    0.785589    0.129910
     43          1           0       -0.328907    0.366990   -0.767898
     44          6           0        1.311039    1.102664    0.284794
     45          1           0        1.399593    2.131621    0.649009
     46          6           0        1.929050    0.977172   -1.123687
     47          6           0        1.981079    0.133397    1.294912
     48          1           0        1.425094    0.220389    2.235435
     49          1           0        1.894592   -0.892482    0.929822
     50          8           0        1.321850    0.380972   -2.011207
     51          6           0        3.463423    0.402756    1.539716
     52          7           0        3.760788    1.704094    1.903551
     53          1           0        4.718976    1.865598    2.191640
     54          1           0        3.060490    2.263956    2.374425
     55          8           0        4.327058   -0.436169    1.358292
     56          7           0        3.148530    1.542872   -1.264925
     57          1           0        3.586312    1.965869   -0.452609
     58          6           0        4.010865    1.282418   -2.416991
     59          1           0        3.443083    0.665487   -3.114694
     60          6           0        5.215094    0.457771   -1.962995
     61          6           0        4.448160    2.592618   -3.097292
     62          1           0        5.037519    3.187087   -2.386136
     63          1           0        3.530802    3.154629   -3.307313
     64          8           0        5.640945   -0.520980   -2.524050
     65          6           0        5.251120    2.358912   -4.385094
     66          1           0        6.115504    1.718944   -4.170614
     67          1           0        4.629506    1.820942   -5.111426
     68          6           0        5.761042    3.653930   -5.025663
     69          1           0        6.418628    4.183518   -4.313400
     70          1           0        6.380364    3.379582   -5.887303
     71          7           0        4.648397    4.490232   -5.478999
     72          1           0        3.950012    4.637351   -4.757753
     73          7           0        5.784450    5.747808   -7.113564
     74          1           0        6.249077    6.622562   -7.307636
     75          1           0        6.352834    4.929850   -7.276664
     76          7           0        4.190547    6.743135   -5.636049
     77          1           0        4.329808    7.565492   -6.226788
     78          6           0        4.880429    5.744771   -6.060174
     79          8           0        5.768034    0.992332   -0.844757
     80          1           0        6.446855    0.367399   -0.527694
 ---------------------------------------------------------------------

 SCF Done:  E(RB3LYP) =  -1866.66960295     A.U. after    1 cycles

 Alpha  occ. eigenvalues --  -19.27176 -19.26456 -19.22518 -19.20818 -19.20731
 Alpha  occ. eigenvalues --  -19.20372 -14.61023 -14.49748 -14.46225 -14.44714
 Alpha  occ. eigenvalues --  -14.44621 -14.38870 -14.38111 -14.31781 -10.43856
 Alpha  occ. eigenvalues --  -10.41616 -10.39516 -10.38717 -10.37993 -10.37941
 Alpha  occ. eigenvalues --  -10.34989 -10.34708 -10.33752 -10.31830 -10.31733
 Alpha  occ. eigenvalues --  -10.31050 -10.30393 -10.30189 -10.29804 -10.29701
 Alpha  occ. eigenvalues --  -10.29584 -10.28867 -10.28520 -10.27639 -10.27474
 Alpha  occ. eigenvalues --  -10.26274 -10.25437 -10.24934 -10.24932  -1.19730
 Alpha  occ. eigenvalues --   -1.17198  -1.14874  -1.14365  -1.12706  -1.12130
 Alpha  occ. eigenvalues --   -1.08414  -1.06516  -1.03010  -1.01496  -1.01209
 Alpha  occ. eigenvalues --   -0.99183  -0.97664  -0.93758  -0.92889  -0.90902
 Alpha  occ. eigenvalues --   -0.88537  -0.87921  -0.86940  -0.86038  -0.85455
 Alpha  occ. eigenvalues --   -0.84460  -0.80651  -0.80425  -0.77889  -0.76383
 Alpha  occ. eigenvalues --   -0.75863  -0.74684  -0.74116  -0.73532  -0.71855
 Alpha  occ. eigenvalues --   -0.71233  -0.69754  -0.69237  -0.69005  -0.67645
 Alpha  occ. eigenvalues --   -0.67186  -0.66924  -0.65453  -0.64966  -0.63753
 Alpha  occ. eigenvalues --   -0.63674  -0.62758  -0.62211  -0.62091  -0.60095
 Alpha  occ. eigenvalues --   -0.59281  -0.58079  -0.57720  -0.57453  -0.57281
 Alpha  occ. eigenvalues --   -0.56799  -0.56376  -0.56256  -0.55778  -0.55339
 Alpha  occ. eigenvalues --   -0.54721  -0.54212  -0.54056  -0.53556  -0.53163
 Alpha  occ. eigenvalues --   -0.52940  -0.52671  -0.52414  -0.51730  -0.51442
 Alpha  occ. eigenvalues --   -0.51192  -0.50747  -0.50558  -0.49970  -0.49689
 Alpha  occ. eigenvalues --   -0.49333  -0.48607  -0.48221  -0.47656  -0.47447
 Alpha  occ. eigenvalues --   -0.46940  -0.46899  -0.46155  -0.45687  -0.45566
 Alpha  occ. eigenvalues --   -0.45173  -0.45150  -0.44933  -0.44844  -0.44565
 Alpha  occ. eigenvalues --   -0.42787  -0.42701  -0.41941  -0.41256  -0.41233
 Alpha  occ. eigenvalues --   -0.40877  -0.40784  -0.39671  -0.38853  -0.38529
 Alpha  occ. eigenvalues --   -0.37076  -0.36589  -0.36284  -0.35975  -0.35937
 Alpha  occ. eigenvalues --   -0.35468  -0.34631  -0.33446  -0.32412  -0.30446
 Alpha  occ. eigenvalues --   -0.29125  -0.26101
 Alpha virt. eigenvalues --   -0.13074  -0.12057  -0.11860  -0.11260  -0.08762
 Alpha virt. eigenvalues --   -0.07250  -0.06758  -0.06467  -0.05436  -0.03732
 Alpha virt. eigenvalues --   -0.02546  -0.01878  -0.01770  -0.00800  -0.00561

 Mulliken charges:
               1
     1  N   -0.754637
     2  H    0.418797
     3  H    0.432897
     4  H    0.415461
     5  C   -0.113117
     6  H    0.215704
     7  C    0.656865
     8  C   -0.380150
     9  H    0.186326
    10  H    0.186752
    11  O   -0.549687
    12  C    0.148291
    13  C   -0.179800
    14  H    0.146743
    15  C   -0.197353
    16  H    0.135039
    17  C   -0.127188
    18  H    0.163100
    19  C   -0.112279
    20  H    0.160576
    21  C   -0.115166
    22  H    0.156417
    23  N   -0.601432
    24  H    0.381959
    25  C   -0.060998
    26  H    0.187931
    27  C    0.629147
    28  C   -0.259299
    29  H    0.161663
    30  H    0.152046
    31  O   -0.556210
    32  C   -0.094939
    33  H    0.140414
    34  C   -0.456339
    35  H    0.152866
    36  H    0.174740
    37  H    0.136576
    38  C   -0.446805
    39  H    0.146894
    40  H    0.149213
    41  H    0.165234
    42  N   -0.626866
    43  H    0.381283
    44  C   -0.054726
    45  H    0.177488
    46  C    0.621360
    47  C   -0.368681
    48  H    0.192239
    49  H    0.190250
    50  O   -0.527163
    51  C    0.553470
    52  N   -0.747901
    53  H    0.355060
    54  H    0.344763
    55  O   -0.472690
    56  N   -0.619014
    57  H    0.371050
    58  C   -0.054370
    59  H    0.213047
    60  C    0.600800
    61  C   -0.286498
    62  H    0.153526
    63  H    0.162044
    64  O   -0.442545
    65  C   -0.283922
    66  H    0.162271
    67  H    0.165091
    68  C   -0.135954
    69  H    0.138477
    70  H    0.143747
    71  N   -0.591007
    72  H    0.328137
    73  N   -0.753400
    74  H    0.332145
    75  H    0.330814
    76  N   -0.656085
    77  H    0.268062
    78  C    0.591362
    79  O   -0.579469
    80  H    0.427553
 Sum of Mulliken charges =   1.00000

 Dipole moment (field-independent basis, Debye):
    X=            -15.1225    Y=              3.9272    Z=             15.3435  Tot=             21.8983
 Quadrupole moment (field-independent basis, Debye-Ang):
   XX=            -48.8736   YY=           -224.3691   ZZ=           -153.1221
   XY=             36.8918   XZ=            -94.2581   YZ=             -8.9038

 Normal termination of Gaussian 16 at Fri Jun 17 23:19:27 2022.
