 Gaussian 16, Revision C.01,
 Gaussian 16:  ES64L-G16RevC.01  3-Jul-2019

 ----------------------------------------------------------------------
 # B3LYP/6-31G* empiricaldispersion=gd3 guess=read geom=check nosymm in
 tegral(ultrafinegrid)
 ----------------------------------------------------------------------

 ------------------------------------------------------
 Candidate Structure: Conf:584 Charge calc in gas phase
 ------------------------------------------------------
 Structure from the checkpoint file:  "conf-584.chk"
 Charge =  1 Multiplicity = 1

                          Input orientation:
 ---------------------------------------------------------------------
 Center     Atomic      Atomic             Coordinates (Angstroms)
 Number     Number       Type             X           Y           Z
 ---------------------------------------------------------------------
      1          7           0       -3.957865   -2.072015   -3.655083
      2          1           0       -4.693875   -1.485262   -3.183290
      3          1           0       -3.602139   -1.562611   -4.479332
      4          1           0       -4.321963   -2.980204   -3.950377
      5          6           0       -2.852313   -2.155000   -2.621527
      6          1           0       -3.014509   -3.079800   -2.058756
      7          6           0       -3.196604   -0.979341   -1.660875
      8          6           0       -1.480798   -2.184573   -3.312594
      9          1           0       -1.342844   -3.173808   -3.760211
     10          1           0       -0.693466   -2.094655   -2.559994
     11          8           0       -4.341204   -0.512333   -1.726901
     12          6           0       -1.300217   -1.114986   -4.373491
     13          6           0       -0.986455   -1.490291   -5.688908
     14          1           0       -0.896846   -2.544658   -5.938115
     15          6           0       -1.375846    0.253603   -4.061560
     16          1           0       -1.600454    0.588697   -3.056411
     17          6           0       -0.724911   -0.524035   -6.662979
     18          1           0       -0.467079   -0.832876   -7.671837
     19          6           0       -1.115723    1.217739   -5.035073
     20          1           0       -1.160781    2.268262   -4.764122
     21          6           0       -0.782967    0.832374   -6.336227
     22          1           0       -0.571060    1.584534   -7.090429
     23          7           0       -2.253591   -0.611934   -0.788231
     24          1           0       -1.285185   -0.913466   -0.933874
     25          6           0       -2.410399    0.574310    0.080941
     26          1           0       -3.362360    1.035505   -0.179035
     27          6           0       -1.322335    1.543298   -0.425286
     28          6           0       -2.376813    0.200037    1.566553
     29          1           0       -1.428222   -0.303594    1.803501
     30          1           0       -2.395074    1.130189    2.151006
     31          8           0       -1.546401    2.287583   -1.366440
     32          6           0       -3.532249   -0.714877    2.021378
     33          1           0       -3.478145   -1.636904    1.423580
     34          6           0       -3.337521   -1.093474    3.496712
     35          1           0       -3.389204   -0.204257    4.137556
     36          1           0       -4.118588   -1.785906    3.828032
     37          1           0       -2.367092   -1.574977    3.667261
     38          6           0       -4.911024   -0.075809    1.796526
     39          1           0       -4.980306    0.892576    2.308607
     40          1           0       -5.129040    0.078720    0.734939
     41          1           0       -5.699058   -0.719297    2.202537
     42          7           0       -0.067138    1.424600    0.147719
     43          1           0        0.040976    0.607734    0.740365
     44          6           0        1.079753    1.611668   -0.743502
     45          1           0        0.863981    2.480758   -1.368496
     46          6           0        1.177171    0.373111   -1.671459
     47          6           0        2.381377    1.848324    0.050702
     48          1           0        2.431457    1.149801    0.896008
     49          1           0        3.244106    1.656323   -0.586409
     50          8           0        0.537608   -0.664623   -1.404498
     51          6           0        2.505831    3.288770    0.551397
     52          7           0        1.517507    3.710874    1.377355
     53          1           0        1.513595    4.684916    1.650952
     54          1           0        0.668858    3.169639    1.481527
     55          8           0        3.444367    4.015167    0.223051
     56          7           0        1.972358    0.517813   -2.728306
     57          1           0        2.414722    1.453872   -2.884218
     58          6           0        2.129478   -0.506218   -3.760890
     59          1           0        1.253978   -0.500383   -4.414371
     60          6           0        2.208075   -1.913849   -3.180091
     61          6           0        3.395239   -0.210774   -4.589299
     62          1           0        3.558742   -1.049223   -5.275026
     63          1           0        4.243469   -0.189459   -3.896741
     64          8           0        1.565530   -2.856617   -3.591744
     65          6           0        3.295033    1.121735   -5.365084
     66          1           0        3.092474    0.928178   -6.425336
     67          1           0        2.455339    1.716513   -4.998328
     68          6           0        4.563395    1.996120   -5.275629
     69          1           0        5.357817    1.564364   -5.893036
     70          1           0        4.331760    2.986976   -5.683829
     71          7           0        5.133845    2.149292   -3.940756
     72          1           0        6.038776    1.742344   -3.760777
     73          7           0        5.361367    3.096512   -1.841895
     74          1           0        4.914145    3.546323   -1.044387
     75          1           0        6.308385    3.393433   -2.039516
     76          7           0        3.248817    3.056065   -2.942492
     77          1           0        3.006255    3.693734   -2.185052
     78          6           0        4.531714    2.815073   -2.906076
     79          8           0        3.144620   -2.014738   -2.215163
     80          1           0        3.153996   -2.947086   -1.927589
 ---------------------------------------------------------------------

 SCF Done:  E(RB3LYP) =  -1866.72181960     A.U. after    2 cycles

 Alpha  occ. eigenvalues --  -19.27965 -19.25934 -19.22954 -19.22594 -19.22307
 Alpha  occ. eigenvalues --  -19.20726 -14.58658 -14.48657 -14.46729 -14.44614
 Alpha  occ. eigenvalues --  -14.44269 -14.42870 -14.41295 -14.36158 -10.42804
 Alpha  occ. eigenvalues --  -10.40548 -10.39770 -10.39666 -10.38834 -10.38291
 Alpha  occ. eigenvalues --  -10.36314 -10.34001 -10.33898 -10.32184 -10.31595
 Alpha  occ. eigenvalues --  -10.30635 -10.29795 -10.29419 -10.29381 -10.28959
 Alpha  occ. eigenvalues --  -10.28901 -10.28894 -10.28837 -10.28703 -10.27886
 Alpha  occ. eigenvalues --  -10.27380 -10.26122 -10.25231 -10.25035  -1.18941
 Alpha  occ. eigenvalues --   -1.18321  -1.15126  -1.13484  -1.12776  -1.12244
 Alpha  occ. eigenvalues --   -1.09872  -1.05502  -1.05359  -1.03315  -1.01936
 Alpha  occ. eigenvalues --   -0.99180  -0.96186  -0.96180  -0.92279  -0.91346
 Alpha  occ. eigenvalues --   -0.90341  -0.89077  -0.87107  -0.85875  -0.84432
 Alpha  occ. eigenvalues --   -0.83902  -0.82570  -0.78628  -0.77403  -0.76283
 Alpha  occ. eigenvalues --   -0.75684  -0.75144  -0.73506  -0.72192  -0.71009
 Alpha  occ. eigenvalues --   -0.70542  -0.70314  -0.69740  -0.68793  -0.68422
 Alpha  occ. eigenvalues --   -0.67786  -0.66949  -0.66074  -0.65045  -0.64281
 Alpha  occ. eigenvalues --   -0.63423  -0.62578  -0.62012  -0.61297  -0.60412
 Alpha  occ. eigenvalues --   -0.59791  -0.59513  -0.58986  -0.58477  -0.57454
 Alpha  occ. eigenvalues --   -0.57247  -0.56792  -0.56637  -0.55735  -0.55426
 Alpha  occ. eigenvalues --   -0.54956  -0.54835  -0.54021  -0.53620  -0.53316
 Alpha  occ. eigenvalues --   -0.53088  -0.52665  -0.52225  -0.51941  -0.51716
 Alpha  occ. eigenvalues --   -0.51446  -0.51148  -0.50563  -0.50342  -0.49905
 Alpha  occ. eigenvalues --   -0.49806  -0.49568  -0.49012  -0.48865  -0.48428
 Alpha  occ. eigenvalues --   -0.47878  -0.47724  -0.46915  -0.46536  -0.46251
 Alpha  occ. eigenvalues --   -0.45882  -0.45222  -0.45129  -0.44577  -0.44145
 Alpha  occ. eigenvalues --   -0.43789  -0.43096  -0.42436  -0.42121  -0.41660
 Alpha  occ. eigenvalues --   -0.41243  -0.41155  -0.40155  -0.40024  -0.39523
 Alpha  occ. eigenvalues --   -0.38161  -0.36808  -0.36517  -0.35987  -0.35479
 Alpha  occ. eigenvalues --   -0.35190  -0.35049  -0.34848  -0.34228  -0.33972
 Alpha  occ. eigenvalues --   -0.32618  -0.30383
 Alpha virt. eigenvalues --   -0.12900  -0.11302  -0.10287  -0.09474  -0.08515
 Alpha virt. eigenvalues --   -0.07835  -0.07386  -0.06546  -0.04033  -0.02938
 Alpha virt. eigenvalues --   -0.02739  -0.01318  -0.00863  -0.00458  -0.00359

 Mulliken charges:
               1
     1  N   -0.745301
     2  H    0.430696
     3  H    0.406744
     4  H    0.410003
     5  C   -0.123931
     6  H    0.226485
     7  C    0.647429
     8  C   -0.379681
     9  H    0.180923
    10  H    0.245124
    11  O   -0.535336
    12  C    0.075974
    13  C   -0.188822
    14  H    0.151690
    15  C   -0.201913
    16  H    0.173510
    17  C   -0.129392
    18  H    0.158482
    19  C   -0.138206
    20  H    0.170897
    21  C   -0.128916
    22  H    0.160664
    23  N   -0.622367
    24  H    0.400104
    25  C   -0.081794
    26  H    0.220410
    27  C    0.588894
    28  C   -0.273219
    29  H    0.129984
    30  H    0.159366
    31  O   -0.481642
    32  C   -0.072011
    33  H    0.122115
    34  C   -0.447069
    35  H    0.152622
    36  H    0.159913
    37  H    0.143977
    38  C   -0.469710
    39  H    0.149696
    40  H    0.167771
    41  H    0.158223
    42  N   -0.600510
    43  H    0.337507
    44  C   -0.106783
    45  H    0.221461
    46  C    0.650611
    47  C   -0.377184
    48  H    0.175460
    49  H    0.207812
    50  O   -0.600626
    51  C    0.592346
    52  N   -0.723919
    53  H    0.357289
    54  H    0.360015
    55  O   -0.516501
    56  N   -0.657929
    57  H    0.438728
    58  C   -0.014145
    59  H    0.196248
    60  C    0.602360
    61  C   -0.301469
    62  H    0.163723
    63  H    0.169478
    64  O   -0.493254
    65  C   -0.292391
    66  H    0.147401
    67  H    0.181950
    68  C   -0.118514
    69  H    0.151089
    70  H    0.172177
    71  N   -0.600207
    72  H    0.333190
    73  N   -0.797231
    74  H    0.387843
    75  H    0.331797
    76  N   -0.758162
    77  H    0.300094
    78  C    0.651086
    79  O   -0.560767
    80  H    0.417542
 Sum of Mulliken charges =   1.00000

 Dipole moment (field-independent basis, Debye):
    X=             -3.4877    Y=             -4.6997    Z=            -12.1319  Tot=             13.4697
 Quadrupole moment (field-independent basis, Debye-Ang):
   XX=           -149.4611   YY=           -201.1383   ZZ=           -144.7789
   XY=             37.6123   XZ=              6.2498   YZ=             23.6557

 Normal termination of Gaussian 16 at Fri Jun 17 23:19:59 2022.
