 Gaussian 16, Revision C.01,
 Gaussian 16:  ES64L-G16RevC.01  3-Jul-2019

 ----------------------------------------------------------------------
 # B3LYP/6-31G* empiricaldispersion=gd3 guess=read geom=check nosymm in
 tegral(ultrafinegrid)
 ----------------------------------------------------------------------

 ------------------------------------------------------
 Candidate Structure: Conf:883 Charge calc in gas phase
 ------------------------------------------------------
 Structure from the checkpoint file:  "conf-883.chk"
 Charge =  1 Multiplicity = 1

                          Input orientation:
 ---------------------------------------------------------------------
 Center     Atomic      Atomic             Coordinates (Angstroms)
 Number     Number       Type             X           Y           Z
 ---------------------------------------------------------------------
      1          7           0       -3.293580    2.247428    4.509776
      2          1           0       -4.141766    2.121533    5.067549
      3          1           0       -2.826670    1.301057    4.329554
      4          1           0       -2.653237    2.862726    5.020007
      5          6           0       -3.557779    2.725528    3.092569
      6          1           0       -4.632788    2.884280    2.983208
      7          6           0       -3.066458    1.520627    2.244734
      8          6           0       -2.777178    4.028507    2.795123
      9          1           0       -1.709238    3.790777    2.738567
     10          1           0       -2.933367    4.715771    3.637816
     11          8           0       -2.543425    0.571768    2.846403
     12          6           0       -3.239779    4.698687    1.514614
     13          6           0       -2.430802    4.687449    0.369261
     14          1           0       -1.473939    4.176220    0.401524
     15          6           0       -4.493207    5.325476    1.462288
     16          1           0       -5.122383    5.357884    2.350228
     17          6           0       -2.877109    5.290799   -0.809018
     18          1           0       -2.244191    5.278132   -1.692082
     19          6           0       -4.935550    5.927819    0.284745
     20          1           0       -5.905512    6.415199    0.258182
     21          6           0       -4.127125    5.910258   -0.854975
     22          1           0       -4.470040    6.381037   -1.771427
     23          7           0       -3.195509    1.598617    0.919892
     24          1           0       -3.500421    2.485632    0.532953
     25          6           0       -2.340155    0.773566    0.056124
     26          1           0       -2.631139   -0.273349    0.175397
     27          6           0       -0.869077    0.988368    0.469375
     28          6           0       -2.523677    1.248345   -1.403232
     29          1           0       -3.584684    1.139585   -1.667208
     30          1           0       -2.289431    2.320634   -1.423761
     31          8           0       -0.477756    2.099411    0.839418
     32          6           0       -1.656847    0.533179   -2.459005
     33          1           0       -0.609535    0.597920   -2.145005
     34          6           0       -2.029618   -0.945767   -2.624896
     35          1           0       -3.062556   -1.048544   -2.980859
     36          1           0       -1.367090   -1.430282   -3.348288
     37          1           0       -1.936866   -1.513447   -1.693245
     38          6           0       -1.764177    1.277395   -3.797510
     39          1           0       -2.793631    1.279998   -4.176710
     40          1           0       -1.440538    2.320728   -3.693661
     41          1           0       -1.136001    0.796360   -4.556542
     42          7           0       -0.068373   -0.079584    0.298926
     43          1           0       -0.444058   -0.945524   -0.080033
     44          6           0        1.356212    0.077460    0.054482
     45          1           0        1.525875    1.121912   -0.197567
     46          6           0        1.684090   -0.833142   -1.142303
     47          6           0        2.257998   -0.250175    1.270216
     48          1           0        1.736250    0.077042    2.172429
     49          1           0        2.448415   -1.326097    1.343300
     50          8           0        0.973548   -1.811750   -1.387833
     51          6           0        3.533158    0.591459    1.175079
     52          7           0        4.662692   -0.056457    0.781335
     53          1           0        5.457266    0.533671    0.566763
     54          1           0        4.609339   -0.937111    0.282834
     55          8           0        3.496276    1.792865    1.423452
     56          7           0        2.795718   -0.492249   -1.825225
     57          1           0        3.172051    0.458582   -1.691458
     58          6           0        3.211921   -1.230197   -3.007013
     59          1           0        2.563431   -2.113527   -3.058741
     60          6           0        4.636233   -1.767151   -2.874539
     61          6           0        3.053071   -0.395509   -4.288798
     62          1           0        1.990287   -0.134860   -4.360021
     63          1           0        3.289976   -1.035478   -5.142881
     64          8           0        5.391348   -1.935110   -3.801669
     65          6           0        3.930334    0.878901   -4.301713
     66          1           0        4.485613    0.979077   -3.365199
     67          1           0        4.686889    0.803243   -5.090018
     68          6           0        3.159125    2.192343   -4.522286
     69          1           0        3.855291    3.030006   -4.401271
     70          1           0        2.774853    2.231755   -5.547320
     71          7           0        2.006100    2.425276   -3.654028
     72          1           0        1.082255    2.297911   -4.039052
     73          7           0        0.870271    3.137233   -1.780895
     74          1           0        0.856776    3.262071   -0.774562
     75          1           0        0.455851    3.916271   -2.280689
     76          7           0        3.161094    2.399111   -1.644112
     77          1           0        3.135753    2.754815   -0.688373
     78          6           0        2.084620    2.670976   -2.309150
     79          8           0        4.966541   -2.099019   -1.594411
     80          1           0        5.858356   -2.494320   -1.644803
 ---------------------------------------------------------------------

 SCF Done:  E(RB3LYP) =  -1866.70116606     A.U. after    2 cycles

 Alpha  occ. eigenvalues --  -19.27637 -19.27626 -19.21931 -19.21513 -19.19962
 Alpha  occ. eigenvalues --  -19.18014 -14.60284 -14.49689 -14.45331 -14.43204
 Alpha  occ. eigenvalues --  -14.42863 -14.42717 -14.42082 -14.36310 -10.43966
 Alpha  occ. eigenvalues --  -10.41360 -10.39508 -10.38869 -10.36835 -10.36413
 Alpha  occ. eigenvalues --  -10.35895 -10.34643 -10.34398 -10.31904 -10.31852
 Alpha  occ. eigenvalues --  -10.31109 -10.30592 -10.30000 -10.29963 -10.29890
 Alpha  occ. eigenvalues --  -10.29804 -10.29140 -10.29020 -10.27896 -10.27382
 Alpha  occ. eigenvalues --  -10.26134 -10.25823 -10.25258 -10.24747  -1.20085
 Alpha  occ. eigenvalues --   -1.18113  -1.14344  -1.13544  -1.11713  -1.09836
 Alpha  occ. eigenvalues --   -1.09163  -1.06605  -1.05508  -1.02142  -1.00526
 Alpha  occ. eigenvalues --   -0.97567  -0.96966  -0.96371  -0.93576  -0.91876
 Alpha  occ. eigenvalues --   -0.90934  -0.87773  -0.86871  -0.85701  -0.85550
 Alpha  occ. eigenvalues --   -0.84186  -0.81451  -0.80260  -0.77153  -0.76586
 Alpha  occ. eigenvalues --   -0.75404  -0.74731  -0.74317  -0.73460  -0.72261
 Alpha  occ. eigenvalues --   -0.71644  -0.70227  -0.69190  -0.68766  -0.67369
 Alpha  occ. eigenvalues --   -0.66645  -0.66152  -0.65287  -0.64990  -0.63747
 Alpha  occ. eigenvalues --   -0.63578  -0.62319  -0.62010  -0.61860  -0.61106
 Alpha  occ. eigenvalues --   -0.60056  -0.59968  -0.59138  -0.58988  -0.57399
 Alpha  occ. eigenvalues --   -0.56858  -0.56729  -0.56192  -0.55800  -0.55082
 Alpha  occ. eigenvalues --   -0.54713  -0.54231  -0.54114  -0.53842  -0.53279
 Alpha  occ. eigenvalues --   -0.52651  -0.52577  -0.52420  -0.52142  -0.51671
 Alpha  occ. eigenvalues --   -0.51477  -0.51056  -0.50940  -0.50876  -0.50213
 Alpha  occ. eigenvalues --   -0.49174  -0.48529  -0.48077  -0.47370  -0.47319
 Alpha  occ. eigenvalues --   -0.47108  -0.46900  -0.46477  -0.46176  -0.45721
 Alpha  occ. eigenvalues --   -0.45593  -0.45247  -0.45123  -0.44997  -0.44126
 Alpha  occ. eigenvalues --   -0.43353  -0.42680  -0.41865  -0.41637  -0.41533
 Alpha  occ. eigenvalues --   -0.41255  -0.41178  -0.40462  -0.40227  -0.39472
 Alpha  occ. eigenvalues --   -0.36369  -0.36187  -0.36062  -0.35879  -0.35571
 Alpha  occ. eigenvalues --   -0.34989  -0.33977  -0.33688  -0.33191  -0.32239
 Alpha  occ. eigenvalues --   -0.31649  -0.30436
 Alpha virt. eigenvalues --   -0.13549  -0.11959  -0.11543  -0.11110  -0.08379
 Alpha virt. eigenvalues --   -0.06992  -0.06553  -0.06050  -0.04918  -0.04573
 Alpha virt. eigenvalues --   -0.03855  -0.03672  -0.01490  -0.01151  -0.00918

 Mulliken charges:
               1
     1  N   -0.763867
     2  H    0.416077
     3  H    0.438917
     4  H    0.416741
     5  C   -0.113514
     6  H    0.221567
     7  C    0.660686
     8  C   -0.384756
     9  H    0.219186
    10  H    0.180376
    11  O   -0.535470
    12  C    0.108385
    13  C   -0.208896
    14  H    0.191546
    15  C   -0.177565
    16  H    0.133211
    17  C   -0.129744
    18  H    0.146719
    19  C   -0.125608
    20  H    0.163978
    21  C   -0.121991
    22  H    0.164589
    23  N   -0.596408
    24  H    0.367608
    25  C   -0.047830
    26  H    0.187171
    27  C    0.636807
    28  C   -0.302763
    29  H    0.158390
    30  H    0.152953
    31  O   -0.564033
    32  C   -0.095357
    33  H    0.156527
    34  C   -0.445109
    35  H    0.145459
    36  H    0.171118
    37  H    0.143034
    38  C   -0.455471
    39  H    0.154523
    40  H    0.131793
    41  H    0.154772
    42  N   -0.595178
    43  H    0.367610
    44  C   -0.067909
    45  H    0.186752
    46  C    0.603615
    47  C   -0.334380
    48  H    0.188791
    49  H    0.167343
    50  O   -0.547611
    51  C    0.566539
    52  N   -0.740811
    53  H    0.345424
    54  H    0.370943
    55  O   -0.518065
    56  N   -0.633284
    57  H    0.410571
    58  C   -0.093990
    59  H    0.217128
    60  C    0.609227
    61  C   -0.254178
    62  H    0.135100
    63  H    0.175035
    64  O   -0.447352
    65  C   -0.280536
    66  H    0.168265
    67  H    0.165256
    68  C   -0.130451
    69  H    0.172873
    70  H    0.149023
    71  N   -0.600771
    72  H    0.336778
    73  N   -0.792248
    74  H    0.358731
    75  H    0.328797
    76  N   -0.712816
    77  H    0.318302
    78  C    0.613474
    79  O   -0.582045
    80  H    0.422295
 Sum of Mulliken charges =   1.00000

 Dipole moment (field-independent basis, Debye):
    X=            -13.2961    Y=             12.4933    Z=              7.9911  Tot=             19.9180
 Quadrupole moment (field-independent basis, Debye-Ang):
   XX=           -151.8917   YY=           -181.2380   ZZ=           -145.1311
   XY=            -60.1469   XZ=            -49.9365   YZ=             17.6238

 Normal termination of Gaussian 16 at Fri Jun 17 23:19:56 2022.
