 Gaussian 16, Revision C.01,
 Gaussian 16:  ES64L-G16RevC.01  3-Jul-2019

 ----------------------------------------------------------------------
 # B3LYP/6-31G* empiricaldispersion=gd3 guess=read geom=check nosymm in
 tegral(ultrafinegrid)
 ----------------------------------------------------------------------

 ------------------------------------------------------
 Candidate Structure: Conf:950 Charge calc in gas phase
 ------------------------------------------------------
 Structure from the checkpoint file:  "conf-950.chk"
 Charge =  1 Multiplicity = 1

                          Input orientation:
 ---------------------------------------------------------------------
 Center     Atomic      Atomic             Coordinates (Angstroms)
 Number     Number       Type             X           Y           Z
 ---------------------------------------------------------------------
      1          7           0       -5.306208    2.227949    3.597435
      2          1           0       -6.111539    2.486161    3.021032
      3          1           0       -5.317316    1.180556    3.727384
      4          1           0       -5.355210    2.745233    4.488304
      5          6           0       -3.987109    2.458424    2.898906
      6          1           0       -4.133179    3.223695    2.134170
      7          6           0       -3.646515    1.069864    2.306602
      8          6           0       -2.919217    2.904653    3.926563
      9          1           0       -2.003925    3.120114    3.364871
     10          1           0       -2.694650    2.056467    4.584449
     11          8           0       -4.252201    0.090660    2.766692
     12          6           0       -3.380880    4.100902    4.728255
     13          6           0       -3.367853    5.385895    4.166938
     14          1           0       -2.949601    5.536991    3.173963
     15          6           0       -3.909757    3.925807    6.017184
     16          1           0       -3.882994    2.941930    6.483865
     17          6           0       -3.868270    6.473307    4.881374
     18          1           0       -3.840114    7.466097    4.442144
     19          6           0       -4.417325    5.016679    6.731190
     20          1           0       -4.810533    4.870191    7.732769
     21          6           0       -4.398686    6.289851    6.162535
     22          1           0       -4.785347    7.139387    6.717157
     23          7           0       -2.692037    1.059198    1.386828
     24          1           0       -2.153259    1.902321    1.176846
     25          6           0       -2.027243   -0.137001    0.867507
     26          1           0       -2.111220   -0.933213    1.612537
     27          6           0       -0.558815    0.288810    0.682397
     28          6           0       -2.606937   -0.592429   -0.490073
     29          1           0       -2.490921    0.239970   -1.195057
     30          1           0       -1.973960   -1.400954   -0.876102
     31          8           0       -0.243460    1.481957    0.702874
     32          6           0       -4.070106   -1.067472   -0.452143
     33          1           0       -4.683885   -0.266368   -0.013049
     34          6           0       -4.560679   -1.308030   -1.887773
     35          1           0       -3.973594   -2.099698   -2.369528
     36          1           0       -5.610819   -1.620602   -1.896104
     37          1           0       -4.469900   -0.404392   -2.502065
     38          6           0       -4.245375   -2.330542    0.403311
     39          1           0       -3.599410   -3.138328    0.036666
     40          1           0       -4.012024   -2.147712    1.456642
     41          1           0       -5.280825   -2.686272    0.356918
     42          7           0        0.303297   -0.720015    0.457213
     43          1           0       -0.062704   -1.658885    0.280015
     44          6           0        1.573276   -0.460084   -0.194632
     45          1           0        2.209916    0.140023    0.465066
     46          6           0        1.357857    0.282751   -1.532469
     47          6           0        2.273915   -1.805181   -0.508934
     48          1           0        3.216357   -1.607219   -1.025713
     49          1           0        2.494212   -2.319160    0.432033
     50          8           0        0.334036    0.156407   -2.187993
     51          6           0        1.358612   -2.722360   -1.325912
     52          7           0        1.777457   -3.031626   -2.570304
     53          1           0        1.140528   -3.559657   -3.152818
     54          1           0        2.517941   -2.505248   -3.020726
     55          8           0        0.306352   -3.150363   -0.838659
     56          7           0        2.435620    1.011485   -1.948261
     57          1           0        3.289364    0.949126   -1.407212
     58          6           0        2.585651    1.405552   -3.334821
     59          1           0        1.581524    1.598303   -3.727094
     60          6           0        3.154110    0.235930   -4.143841
     61          6           0        3.449671    2.673792   -3.458428
     62          1           0        3.667806    2.850754   -4.516419
     63          1           0        4.411162    2.504150   -2.956092
     64          8           0        3.488520   -0.838696   -3.682308
     65          6           0        2.766931    3.903206   -2.845611
     66          1           0        1.951776    4.238755   -3.499091
     67          1           0        2.303161    3.628983   -1.888383
     68          6           0        3.739526    5.063448   -2.616210
     69          1           0        4.262310    5.303561   -3.546989
     70          1           0        3.180298    5.967286   -2.327061
     71          7           0        4.729105    4.688384   -1.596831
     72          1           0        4.284345    4.469798   -0.708829
     73          7           0        6.478107    5.993798   -2.449406
     74          1           0        7.355779    6.460391   -2.257590
     75          1           0        6.568609    5.309921   -3.192722
     76          7           0        6.056955    5.818658   -0.084399
     77          1           0        6.934464    6.333230    0.012557
     78          6           0        5.808264    5.538767   -1.311170
     79          8           0        3.244475    0.535811   -5.448998
     80          1           0        3.610971   -0.243758   -5.908914
 ---------------------------------------------------------------------

 SCF Done:  E(RB3LYP) =  -1866.69215540     A.U. after    2 cycles

 Alpha  occ. eigenvalues --  -19.28884 -19.25791 -19.23666 -19.21202 -19.20007
 Alpha  occ. eigenvalues --  -19.19161 -14.59209 -14.48402 -14.44594 -14.43795
 Alpha  occ. eigenvalues --  -14.42725 -14.40221 -14.39637 -14.33669 -10.42621
 Alpha  occ. eigenvalues --  -10.41380 -10.40170 -10.37774 -10.37024 -10.36878
 Alpha  occ. eigenvalues --  -10.33730 -10.33133 -10.32997 -10.32569 -10.32321
 Alpha  occ. eigenvalues --  -10.32065 -10.30848 -10.30485 -10.30222 -10.30107
 Alpha  occ. eigenvalues --  -10.29833 -10.28465 -10.28115 -10.26937 -10.26373
 Alpha  occ. eigenvalues --  -10.26205 -10.25843 -10.23792 -10.23567  -1.19966
 Alpha  occ. eigenvalues --   -1.18259  -1.13482  -1.13039  -1.11896  -1.10879
 Alpha  occ. eigenvalues --   -1.10735  -1.05178  -1.02639  -1.01427  -1.01291
 Alpha  occ. eigenvalues --   -0.97806  -0.97539  -0.94129  -0.92978  -0.89721
 Alpha  occ. eigenvalues --   -0.89489  -0.88055  -0.86552  -0.86118  -0.85761
 Alpha  occ. eigenvalues --   -0.83169  -0.81685  -0.79126  -0.76100  -0.74716
 Alpha  occ. eigenvalues --   -0.74387  -0.74236  -0.73432  -0.72943  -0.71645
 Alpha  occ. eigenvalues --   -0.71412  -0.70027  -0.69504  -0.67594  -0.67398
 Alpha  occ. eigenvalues --   -0.66713  -0.66091  -0.65171  -0.65019  -0.63171
 Alpha  occ. eigenvalues --   -0.62632  -0.62119  -0.61844  -0.60887  -0.58818
 Alpha  occ. eigenvalues --   -0.58571  -0.58134  -0.57996  -0.57451  -0.57244
 Alpha  occ. eigenvalues --   -0.56772  -0.56575  -0.56517  -0.56161  -0.55350
 Alpha  occ. eigenvalues --   -0.54883  -0.54597  -0.53556  -0.53261  -0.52785
 Alpha  occ. eigenvalues --   -0.52662  -0.52260  -0.51511  -0.51486  -0.50878
 Alpha  occ. eigenvalues --   -0.50829  -0.50424  -0.50136  -0.49630  -0.49129
 Alpha  occ. eigenvalues --   -0.48875  -0.48360  -0.47494  -0.47330  -0.47237
 Alpha  occ. eigenvalues --   -0.46830  -0.46707  -0.46030  -0.45581  -0.45511
 Alpha  occ. eigenvalues --   -0.45350  -0.44949  -0.44645  -0.44304  -0.43858
 Alpha  occ. eigenvalues --   -0.43180  -0.42218  -0.41750  -0.41171  -0.40924
 Alpha  occ. eigenvalues --   -0.40669  -0.40177  -0.39671  -0.39483  -0.37818
 Alpha  occ. eigenvalues --   -0.37099  -0.36586  -0.36065  -0.35699  -0.34878
 Alpha  occ. eigenvalues --   -0.34536  -0.34237  -0.33232  -0.32570  -0.31575
 Alpha  occ. eigenvalues --   -0.31088  -0.28021
 Alpha virt. eigenvalues --   -0.12767  -0.12255  -0.10339  -0.09520  -0.08574
 Alpha virt. eigenvalues --   -0.07104  -0.05924  -0.05400  -0.04314  -0.02367
 Alpha virt. eigenvalues --   -0.01494  -0.00989  -0.00873  -0.00682  -0.00391

 Mulliken charges:
               1
     1  N   -0.749603
     2  H    0.415081
     3  H    0.425825
     4  H    0.404319
     5  C   -0.116440
     6  H    0.212329
     7  C    0.656581
     8  C   -0.388210
     9  H    0.214121
    10  H    0.194413
    11  O   -0.540311
    12  C    0.141688
    13  C   -0.180825
    14  H    0.147207
    15  C   -0.232460
    16  H    0.151840
    17  C   -0.122512
    18  H    0.167471
    19  C   -0.120157
    20  H    0.167437
    21  C   -0.124160
    22  H    0.169040
    23  N   -0.590626
    24  H    0.365958
    25  C   -0.102853
    26  H    0.194825
    27  C    0.647822
    28  C   -0.262153
    29  H    0.158579
    30  H    0.181934
    31  O   -0.556105
    32  C   -0.070021
    33  H    0.106257
    34  C   -0.444890
    35  H    0.156107
    36  H    0.149220
    37  H    0.143056
    38  C   -0.463103
    39  H    0.155318
    40  H    0.158793
    41  H    0.149322
    42  N   -0.618988
    43  H    0.388565
    44  C   -0.073113
    45  H    0.174743
    46  C    0.651397
    47  C   -0.387432
    48  H    0.178225
    49  H    0.200939
    50  O   -0.523929
    51  C    0.604908
    52  N   -0.750853
    53  H    0.348918
    54  H    0.392225
    55  O   -0.532839
    56  N   -0.592257
    57  H    0.338268
    58  C   -0.061996
    59  H    0.214036
    60  C    0.603821
    61  C   -0.288717
    62  H    0.173350
    63  H    0.162296
    64  O   -0.489109
    65  C   -0.281160
    66  H    0.150327
    67  H    0.155295
    68  C   -0.131209
    69  H    0.155036
    70  H    0.150341
    71  N   -0.592057
    72  H    0.322025
    73  N   -0.737681
    74  H    0.329237
    75  H    0.326071
    76  N   -0.634594
    77  H    0.270522
    78  C    0.556368
    79  O   -0.547001
    80  H    0.425915
 Sum of Mulliken charges =   1.00000

 Dipole moment (field-independent basis, Debye):
    X=            -10.1810    Y=             12.5361    Z=              6.0520  Tot=             17.2463
 Quadrupole moment (field-independent basis, Debye-Ang):
   XX=            -93.8012   YY=           -173.9977   ZZ=           -129.5695
   XY=            -47.6515   XZ=           -105.8202   YZ=             40.7299

 Normal termination of Gaussian 16 at Fri Jun 17 23:19:44 2022.
