 Gaussian 16, Revision C.01,
 Gaussian 16:  ES64L-G16RevC.01  3-Jul-2019

 ----------------------------------------------------------------------
 # B3LYP/6-31G* empiricaldispersion=gd3 guess=read geom=check nosymm in
 tegral(ultrafinegrid)
 ----------------------------------------------------------------------

 ------------------------------------------------------
 Candidate Structure: Conf:549 Charge calc in gas phase
 ------------------------------------------------------
 Structure from the checkpoint file:  "conf-549.chk"
 Charge =  1 Multiplicity = 1

                          Input orientation:
 ---------------------------------------------------------------------
 Center     Atomic      Atomic             Coordinates (Angstroms)
 Number     Number       Type             X           Y           Z
 ---------------------------------------------------------------------
      1          7           0       -3.883904    0.385004    4.370565
      2          1           0       -4.775294   -0.080396    4.561638
      3          1           0       -3.198283   -0.338978    4.042264
      4          1           0       -3.563830    0.862735    5.229322
      5          6           0       -3.958107    1.356431    3.215306
      6          1           0       -4.998957    1.665363    3.098555
      7          6           0       -3.416193    0.552987    2.018152
      8          6           0       -3.039675    2.579552    3.494320
      9          1           0       -3.248875    3.319046    2.715155
     10          1           0       -1.997897    2.277754    3.345302
     11          8           0       -2.791797   -0.488524    2.257582
     12          6           0       -3.275008    3.144056    4.876317
     13          6           0       -4.404841    3.928802    5.150989
     14          1           0       -5.083800    4.198662    4.344583
     15          6           0       -2.402030    2.816498    5.927078
     16          1           0       -1.499652    2.243514    5.719605
     17          6           0       -4.651998    4.383689    6.445326
     18          1           0       -5.522082    5.002750    6.642979
     19          6           0       -2.654234    3.268235    7.227165
     20          1           0       -1.963679    3.020181    8.027634
     21          6           0       -3.779572    4.050132    7.486576
     22          1           0       -3.973591    4.407637    8.493215
     23          7           0       -3.581942    1.077201    0.797481
     24          1           0       -3.975830    2.008141    0.733410
     25          6           0       -2.634776    0.700809   -0.262382
     26          1           0       -2.786091   -0.358400   -0.486472
     27          6           0       -1.209314    0.942968    0.281510
     28          6           0       -2.833539    1.564004   -1.513716
     29          1           0       -2.615722    2.605709   -1.239703
     30          1           0       -2.051839    1.279687   -2.226262
     31          8           0       -0.980649    1.889365    1.038891
     32          6           0       -4.201310    1.470470   -2.212137
     33          1           0       -4.987403    1.784979   -1.507291
     34          6           0       -4.211417    2.444069   -3.401410
     35          1           0       -3.425184    2.174934   -4.118301
     36          1           0       -5.172327    2.421325   -3.925793
     37          1           0       -4.030747    3.475735   -3.073542
     38          6           0       -4.517434    0.041060   -2.672199
     39          1           0       -3.734564   -0.331012   -3.345186
     40          1           0       -4.599649   -0.656392   -1.830753
     41          1           0       -5.467158    0.009060   -3.216400
     42          7           0       -0.290277    0.073636   -0.155901
     43          1           0       -0.526836   -0.699576   -0.771761
     44          6           0        1.139291    0.283865    0.015052
     45          1           0        1.322434    1.356771   -0.065638
     46          6           0        1.790615   -0.450667   -1.166838
     47          6           0        1.638458   -0.212955    1.390965
     48          1           0        2.709502   -0.013337    1.477085
     49          1           0        1.108477    0.368520    2.153559
     50          8           0        1.268861   -1.467096   -1.627860
     51          6           0        1.443295   -1.714757    1.600036
     52          7           0        0.182684   -2.092574    1.999471
     53          1           0       -0.003787   -3.086818    1.964117
     54          1           0       -0.608337   -1.476077    1.865269
     55          8           0        2.354636   -2.509883    1.446259
     56          7           0        2.913325    0.114173   -1.650674
     57          1           0        3.166838    1.039055   -1.331336
     58          6           0        3.579637   -0.384497   -2.850970
     59          1           0        3.864388   -1.428245   -2.683614
     60          6           0        4.873578    0.374672   -3.116311
     61          6           0        2.690399   -0.327151   -4.123752
     62          1           0        1.953380   -1.130117   -4.033683
     63          1           0        3.337302   -0.575656   -4.969984
     64          8           0        5.681408    0.038318   -3.946777
     65          6           0        1.980160    1.031838   -4.329724
     66          1           0        2.395913    1.795798   -3.663906
     67          1           0        2.135498    1.388612   -5.355265
     68          6           0        0.469128    0.929433   -4.060251
     69          1           0        0.003627    0.272295   -4.804382
     70          1           0        0.293163    0.479429   -3.082903
     71          7           0       -0.248940    2.202058   -4.089753
     72          1           0       -0.252232    2.660771   -4.994108
     73          7           0       -0.763636    4.306268   -3.292752
     74          1           0       -0.832396    4.940014   -2.507717
     75          1           0       -1.616387    4.261373   -3.838983
     76          7           0        0.450497    2.744026   -1.931500
     77          1           0        0.299436    3.439185   -1.200033
     78          6           0       -0.149147    3.081833   -3.021688
     79          8           0        5.004446    1.497320   -2.362473
     80          1           0        5.846037    1.916502   -2.624969
 ---------------------------------------------------------------------

 SCF Done:  E(RB3LYP) =  -1866.68641246     A.U. after    1 cycles

 Alpha  occ. eigenvalues --  -19.28019 -19.27341 -19.21319 -19.20808 -19.19410
 Alpha  occ. eigenvalues --  -19.16991 -14.60430 -14.50557 -14.45249 -14.43658
 Alpha  occ. eigenvalues --  -14.42826 -14.42420 -14.41375 -14.36519 -10.44549
 Alpha  occ. eigenvalues --  -10.41563 -10.39238 -10.38479 -10.36427 -10.36140
 Alpha  occ. eigenvalues --  -10.34832 -10.34684 -10.34154 -10.32795 -10.31539
 Alpha  occ. eigenvalues --  -10.31529 -10.31318 -10.31036 -10.30929 -10.30875
 Alpha  occ. eigenvalues --  -10.30574 -10.28969 -10.28910 -10.28411 -10.26783
 Alpha  occ. eigenvalues --  -10.26401 -10.26257 -10.25308 -10.24903  -1.20297
 Alpha  occ. eigenvalues --   -1.17848  -1.14765  -1.13244  -1.11378  -1.08868
 Alpha  occ. eigenvalues --   -1.08796  -1.07069  -1.05399  -1.01989  -1.00401
 Alpha  occ. eigenvalues --   -0.98290  -0.96349  -0.96046  -0.94036  -0.91989
 Alpha  occ. eigenvalues --   -0.91411  -0.88033  -0.87340  -0.86525  -0.85787
 Alpha  occ. eigenvalues --   -0.84073  -0.81245  -0.80042  -0.77410  -0.76799
 Alpha  occ. eigenvalues --   -0.75106  -0.74689  -0.74422  -0.73916  -0.73042
 Alpha  occ. eigenvalues --   -0.72304  -0.70785  -0.70077  -0.68807  -0.67293
 Alpha  occ. eigenvalues --   -0.66588  -0.66182  -0.65035  -0.64505  -0.64224
 Alpha  occ. eigenvalues --   -0.63839  -0.63137  -0.62657  -0.61711  -0.60912
 Alpha  occ. eigenvalues --   -0.60048  -0.59801  -0.59236  -0.58405  -0.57616
 Alpha  occ. eigenvalues --   -0.57130  -0.56320  -0.55773  -0.55588  -0.55227
 Alpha  occ. eigenvalues --   -0.54749  -0.54478  -0.54259  -0.53968  -0.53393
 Alpha  occ. eigenvalues --   -0.53095  -0.52810  -0.52305  -0.52196  -0.51936
 Alpha  occ. eigenvalues --   -0.51303  -0.51170  -0.50897  -0.50079  -0.49547
 Alpha  occ. eigenvalues --   -0.48654  -0.48208  -0.48008  -0.47826  -0.47325
 Alpha  occ. eigenvalues --   -0.47119  -0.46781  -0.46523  -0.46366  -0.46041
 Alpha  occ. eigenvalues --   -0.45827  -0.45593  -0.45486  -0.44795  -0.44537
 Alpha  occ. eigenvalues --   -0.43191  -0.42595  -0.42466  -0.42148  -0.42128
 Alpha  occ. eigenvalues --   -0.41988  -0.40953  -0.40535  -0.39795  -0.38836
 Alpha  occ. eigenvalues --   -0.37359  -0.36888  -0.35629  -0.35221  -0.34958
 Alpha  occ. eigenvalues --   -0.34626  -0.33589  -0.33168  -0.32845  -0.32253
 Alpha  occ. eigenvalues --   -0.30499  -0.30443
 Alpha virt. eigenvalues --   -0.14400  -0.13023  -0.11862  -0.10658  -0.07922
 Alpha virt. eigenvalues --   -0.06696  -0.06298  -0.04934  -0.04317  -0.03654
 Alpha virt. eigenvalues --   -0.03384  -0.02772  -0.02103  -0.01955  -0.01588

 Mulliken charges:
               1
     1  N   -0.748068
     2  H    0.416785
     3  H    0.428156
     4  H    0.407914
     5  C   -0.126623
     6  H    0.211242
     7  C    0.671268
     8  C   -0.383105
     9  H    0.195297
    10  H    0.229264
    11  O   -0.540751
    12  C    0.129060
    13  C   -0.180837
    14  H    0.141664
    15  C   -0.231251
    16  H    0.158544
    17  C   -0.122129
    18  H    0.168658
    19  C   -0.118949
    20  H    0.170786
    21  C   -0.124341
    22  H    0.171629
    23  N   -0.580979
    24  H    0.349896
    25  C   -0.063637
    26  H    0.183114
    27  C    0.654451
    28  C   -0.311110
    29  H    0.140717
    30  H    0.200795
    31  O   -0.575933
    32  C   -0.075408
    33  H    0.113402
    34  C   -0.452681
    35  H    0.158832
    36  H    0.163179
    37  H    0.132242
    38  C   -0.454312
    39  H    0.157621
    40  H    0.144378
    41  H    0.164497
    42  N   -0.613604
    43  H    0.359994
    44  C   -0.048173
    45  H    0.196786
    46  C    0.666740
    47  C   -0.354834
    48  H    0.184462
    49  H    0.164759
    50  O   -0.551923
    51  C    0.580021
    52  N   -0.763490
    53  H    0.339040
    54  H    0.348213
    55  O   -0.484913
    56  N   -0.627334
    57  H    0.367048
    58  C   -0.036793
    59  H    0.213748
    60  C    0.591879
    61  C   -0.300771
    62  H    0.184872
    63  H    0.180193
    64  O   -0.446297
    65  C   -0.276404
    66  H    0.163044
    67  H    0.142235
    68  C   -0.145555
    69  H    0.150571
    70  H    0.171820
    71  N   -0.603828
    72  H    0.327807
    73  N   -0.761878
    74  H    0.327062
    75  H    0.333284
    76  N   -0.682479
    77  H    0.276901
    78  C    0.613960
    79  O   -0.585495
    80  H    0.426055
 Sum of Mulliken charges =   1.00000

 Dipole moment (field-independent basis, Debye):
    X=            -20.0335    Y=             12.5280    Z=             11.9894  Tot=             26.4960
 Quadrupole moment (field-independent basis, Debye-Ang):
   XX=           -142.3077   YY=           -200.8875   ZZ=           -112.7844
   XY=            -15.5123   XZ=            -63.4938   YZ=             14.2334

 Normal termination of Gaussian 16 at Fri Jun 17 23:19:34 2022.
