 Gaussian 16, Revision C.01,
 Gaussian 16:  ES64L-G16RevC.01  3-Jul-2019

 ----------------------------------------------------------------------
 # B3LYP/6-31G* empiricaldispersion=gd3 guess=read geom=check nosymm in
 tegral(ultrafinegrid)
 ----------------------------------------------------------------------

 ------------------------------------------------------
 Candidate Structure: Conf:448 Charge calc in gas phase
 ------------------------------------------------------
 Structure from the checkpoint file:  "conf-448.chk"
 Charge =  1 Multiplicity = 1

                          Input orientation:
 ---------------------------------------------------------------------
 Center     Atomic      Atomic             Coordinates (Angstroms)
 Number     Number       Type             X           Y           Z
 ---------------------------------------------------------------------
      1          7           0       -5.206496    2.308285    3.503545
      2          1           0       -5.750192    3.011030    2.992571
      3          1           0       -5.524381    1.351312    3.188166
      4          1           0       -5.358331    2.439407    4.508219
      5          6           0       -3.737412    2.291544    3.119100
      6          1           0       -3.445403    3.293340    2.798519
      7          6           0       -3.703518    1.255215    1.973082
      8          6           0       -2.906338    1.818985    4.334442
      9          1           0       -3.352337    0.888361    4.707097
     10          1           0       -3.003035    2.576106    5.124744
     11          8           0       -4.587779    0.385122    1.976542
     12          6           0       -1.448879    1.587392    3.993392
     13          6           0       -0.934190    0.285397    3.945599
     14          1           0       -1.581911   -0.559094    4.171402
     15          6           0       -0.604457    2.669565    3.709119
     16          1           0       -0.986601    3.687988    3.761583
     17          6           0        0.410456    0.068862    3.639097
     18          1           0        0.834444   -0.929926    3.628722
     19          6           0        0.734697    2.451140    3.382349
     20          1           0        1.379821    3.296373    3.162735
     21          6           0        1.244589    1.151266    3.354414
     22          1           0        2.287995    0.960908    3.123364
     23          7           0       -2.707867    1.373347    1.104035
     24          1           0       -1.979441    2.073509    1.246708
     25          6           0       -2.315361    0.334813    0.144153
     26          1           0       -2.714993   -0.619368    0.497097
     27          6           0       -0.781577    0.366058    0.177948
     28          6           0       -2.795690    0.645203   -1.287293
     29          1           0       -2.355984    1.607814   -1.577036
     30          1           0       -2.360718   -0.111354   -1.955961
     31          8           0       -0.207701    1.453077    0.292075
     32          6           0       -4.322616    0.674835   -1.479559
     33          1           0       -4.739507    1.392145   -0.756799
     34          6           0       -4.648351    1.180244   -2.892911
     35          1           0       -4.248605    0.496270   -3.652107
     36          1           0       -5.731177    1.245699   -3.044453
     37          1           0       -4.219404    2.172214   -3.076375
     38          6           0       -4.968663   -0.694299   -1.223869
     39          1           0       -4.539333   -1.456311   -1.887281
     40          1           0       -4.843842   -1.020542   -0.186846
     41          1           0       -6.044851   -0.654294   -1.424511
     42          7           0       -0.128071   -0.804595    0.054970
     43          1           0       -0.644804   -1.666465   -0.061243
     44          6           0        1.331146   -0.875119    0.200077
     45          1           0        1.597402   -0.026750    0.837292
     46          6           0        2.037432   -0.698828   -1.167625
     47          6           0        1.744419   -2.181684    0.885256
     48          1           0        1.014991   -2.426410    1.660770
     49          1           0        1.787334   -2.992485    0.152621
     50          8           0        2.746366   -1.581543   -1.654504
     51          6           0        3.083686   -1.975432    1.600129
     52          7           0        4.179345   -2.310322    0.877463
     53          1           0        5.086917   -2.084807    1.262981
     54          1           0        4.092639   -2.451363   -0.122686
     55          8           0        3.120772   -1.510641    2.736660
     56          7           0        1.803667    0.487743   -1.764681
     57          1           0        1.232813    1.195202   -1.306597
     58          6           0        2.344675    0.803669   -3.080679
     59          1           0        3.393981    0.495513   -3.118892
     60          6           0        2.249396    2.312049   -3.249819
     61          6           0        1.567224    0.066063   -4.200506
     62          1           0        0.523103    0.406949   -4.175388
     63          1           0        1.572872   -0.993554   -3.920107
     64          8           0        1.434853    3.010184   -2.682662
     65          6           0        2.155830    0.232527   -5.604277
     66          1           0        2.106090    1.277613   -5.925820
     67          1           0        3.219743   -0.040073   -5.595288
     68          6           0        1.422161   -0.635549   -6.638124
     69          1           0        1.488049   -1.694428   -6.360339
     70          1           0        0.356822   -0.380082   -6.641627
     71          7           0        1.946025   -0.509640   -7.999723
     72          1           0        2.891737   -0.869364   -8.089521
     73          7           0        0.628493    1.336472   -8.572148
     74          1           0        0.525217    2.128654   -9.195398
     75          1           0       -0.145939    0.688132   -8.677072
     76          7           0        2.941677    1.173529   -9.236741
     77          1           0        2.735055    1.999516   -9.802169
     78          6           0        1.889430    0.723736   -8.658669
     79          8           0        3.151760    2.774958   -4.131108
     80          1           0        2.996401    3.733712   -4.233835
 ---------------------------------------------------------------------

 SCF Done:  E(RB3LYP) =  -1866.68238703     A.U. after    2 cycles

 Alpha  occ. eigenvalues --  -19.27826 -19.27475 -19.23447 -19.22277 -19.20572
 Alpha  occ. eigenvalues --  -19.18668 -14.61606 -14.50306 -14.48135 -14.44239
 Alpha  occ. eigenvalues --  -14.42403 -14.39737 -14.38667 -14.33023 -10.44254
 Alpha  occ. eigenvalues --  -10.41731 -10.40516 -10.40267 -10.37593 -10.36477
 Alpha  occ. eigenvalues --  -10.35588 -10.34672 -10.33386 -10.32374 -10.31752
 Alpha  occ. eigenvalues --  -10.30933 -10.29358 -10.29224 -10.29147 -10.28560
 Alpha  occ. eigenvalues --  -10.28529 -10.28167 -10.27980 -10.27831 -10.27491
 Alpha  occ. eigenvalues --  -10.26422 -10.25832 -10.25830 -10.24397  -1.20022
 Alpha  occ. eigenvalues --   -1.18832  -1.15790  -1.15080  -1.12295  -1.10296
 Alpha  occ. eigenvalues --   -1.09902  -1.07049  -1.04172  -1.01937  -1.00918
 Alpha  occ. eigenvalues --   -0.97452  -0.96890  -0.93406  -0.93308  -0.91351
 Alpha  occ. eigenvalues --   -0.89005  -0.88548  -0.86891  -0.86234  -0.84684
 Alpha  occ. eigenvalues --   -0.84214  -0.81078  -0.80092  -0.77271  -0.76802
 Alpha  occ. eigenvalues --   -0.76003  -0.75111  -0.74220  -0.73712  -0.72850
 Alpha  occ. eigenvalues --   -0.70950  -0.70432  -0.69525  -0.68639  -0.67815
 Alpha  occ. eigenvalues --   -0.67357  -0.65596  -0.65344  -0.65133  -0.64030
 Alpha  occ. eigenvalues --   -0.63969  -0.63188  -0.61067  -0.60835  -0.60528
 Alpha  occ. eigenvalues --   -0.59744  -0.58829  -0.58274  -0.57622  -0.57377
 Alpha  occ. eigenvalues --   -0.57208  -0.56776  -0.55979  -0.55833  -0.55596
 Alpha  occ. eigenvalues --   -0.55038  -0.54282  -0.54022  -0.53454  -0.53282
 Alpha  occ. eigenvalues --   -0.52772  -0.52576  -0.51892  -0.51711  -0.51353
 Alpha  occ. eigenvalues --   -0.50817  -0.50720  -0.50286  -0.50066  -0.49576
 Alpha  occ. eigenvalues --   -0.49026  -0.48925  -0.48414  -0.47931  -0.47296
 Alpha  occ. eigenvalues --   -0.47130  -0.47004  -0.46718  -0.45791  -0.45669
 Alpha  occ. eigenvalues --   -0.45511  -0.44730  -0.44194  -0.43922  -0.43708
 Alpha  occ. eigenvalues --   -0.43405  -0.42640  -0.42078  -0.42039  -0.41813
 Alpha  occ. eigenvalues --   -0.41625  -0.41317  -0.40330  -0.40035  -0.39213
 Alpha  occ. eigenvalues --   -0.38369  -0.37355  -0.36017  -0.34804  -0.34628
 Alpha  occ. eigenvalues --   -0.34391  -0.33605  -0.33524  -0.32336  -0.31028
 Alpha  occ. eigenvalues --   -0.30237  -0.27210
 Alpha virt. eigenvalues --   -0.13533  -0.12057  -0.11089  -0.10241  -0.09446
 Alpha virt. eigenvalues --   -0.07700  -0.06870  -0.06747  -0.04881  -0.04039
 Alpha virt. eigenvalues --   -0.03182  -0.02423  -0.01730  -0.00659  -0.00035

 Mulliken charges:
               1
     1  N   -0.749237
     2  H    0.419903
     3  H    0.430523
     4  H    0.417769
     5  C   -0.119212
     6  H    0.215134
     7  C    0.659200
     8  C   -0.379016
     9  H    0.182836
    10  H    0.187235
    11  O   -0.544141
    12  C    0.154056
    13  C   -0.191113
    14  H    0.137413
    15  C   -0.203007
    16  H    0.128561
    17  C   -0.142541
    18  H    0.182203
    19  C   -0.105432
    20  H    0.158754
    21  C   -0.132223
    22  H    0.180299
    23  N   -0.585413
    24  H    0.381795
    25  C   -0.072848
    26  H    0.181582
    27  C    0.641626
    28  C   -0.259312
    29  H    0.168139
    30  H    0.151454
    31  O   -0.545339
    32  C   -0.070635
    33  H    0.113006
    34  C   -0.446576
    35  H    0.152118
    36  H    0.156935
    37  H    0.149808
    38  C   -0.464038
    39  H    0.144831
    40  H    0.162624
    41  H    0.158151
    42  N   -0.610318
    43  H    0.346810
    44  C   -0.076705
    45  H    0.217526
    46  C    0.637709
    47  C   -0.375623
    48  H    0.168586
    49  H    0.185077
    50  O   -0.541724
    51  C    0.566700
    52  N   -0.729366
    53  H    0.348733
    54  H    0.375648
    55  O   -0.507961
    56  N   -0.638257
    57  H    0.385733
    58  C   -0.011854
    59  H    0.195781
    60  C    0.574330
    61  C   -0.280811
    62  H    0.138691
    63  H    0.172465
    64  O   -0.468306
    65  C   -0.268261
    66  H    0.170610
    67  H    0.149550
    68  C   -0.144744
    69  H    0.149907
    70  H    0.141424
    71  N   -0.567848
    72  H    0.329612
    73  N   -0.743712
    74  H    0.323347
    75  H    0.327875
    76  N   -0.627004
    77  H    0.266682
    78  C    0.538522
    79  O   -0.548074
    80  H    0.423380
 Sum of Mulliken charges =   1.00000

 Dipole moment (field-independent basis, Debye):
    X=            -17.8563    Y=              9.2184    Z=              7.9254  Tot=             21.6018
 Quadrupole moment (field-independent basis, Debye-Ang):
   XX=           -134.9118   YY=           -188.3633   ZZ=           -170.4494
   XY=            -43.3664   XZ=            -45.1022   YZ=             21.9701

 Normal termination of Gaussian 16 at Fri Jun 17 23:19:50 2022.
