 Gaussian 16, Revision C.01,
 Gaussian 16:  ES64L-G16RevC.01  3-Jul-2019

 ----------------------------------------------------------------------
 # B3LYP/6-31G* empiricaldispersion=gd3 guess=read geom=check nosymm in
 tegral(ultrafinegrid)
 ----------------------------------------------------------------------

 ------------------------------------------------------
 Candidate Structure: Conf:231 Charge calc in gas phase
 ------------------------------------------------------
 Structure from the checkpoint file:  "conf-231.chk"
 Charge =  1 Multiplicity = 1

                          Input orientation:
 ---------------------------------------------------------------------
 Center     Atomic      Atomic             Coordinates (Angstroms)
 Number     Number       Type             X           Y           Z
 ---------------------------------------------------------------------
      1          7           0       -5.415214    2.171859    3.391159
      2          1           0       -6.095338    2.788376    2.937387
      3          1           0       -5.495727    1.201337    2.958341
      4          1           0       -5.607352    2.152692    4.396762
      5          6           0       -3.973721    2.520175    3.065844
      6          1           0       -3.935151    3.552251    2.712823
      7          6           0       -3.640196    1.510274    1.936451
      8          6           0       -3.096462    2.335771    4.325165
      9          1           0       -3.251752    1.319425    4.708324
     10          1           0       -3.455710    3.038856    5.089754
     11          8           0       -4.387300    0.523249    1.818207
     12          6           0       -1.627162    2.561185    4.036792
     13          6           0       -0.719525    1.497610    4.111895
     14          1           0       -1.065987    0.514408    4.423091
     15          6           0       -1.166614    3.827466    3.647775
     16          1           0       -1.854195    4.671690    3.614129
     17          6           0        0.626459    1.695308    3.801619
     18          1           0        1.347479    0.888670    3.874948
     19          6           0        0.175838    4.017309    3.313923
     20          1           0        0.519127    5.000427    3.005424
     21          6           0        1.072766    2.949714    3.383851
     22          1           0        2.117600    3.068927    3.118018
     23          7           0       -2.574619    1.774164    1.196871
     24          1           0       -1.967041    2.567634    1.403400
     25          6           0       -2.025181    0.849973    0.199480
     26          1           0       -2.190542   -0.168266    0.562066
     27          6           0       -0.527842    1.193719    0.152109
     28          6           0       -2.701130    1.047451   -1.174181
     29          1           0       -3.782497    0.935466   -1.020835
     30          1           0       -2.510352    2.078822   -1.492701
     31          8           0       -0.165719    2.351674    0.379381
     32          6           0       -2.234199    0.083938   -2.280746
     33          1           0       -1.154449    0.220591   -2.407078
     34          6           0       -2.522258   -1.387482   -1.947228
     35          1           0       -3.594200   -1.549956   -1.778663
     36          1           0       -2.211782   -2.038131   -2.771640
     37          1           0       -1.997676   -1.738075   -1.048385
     38          6           0       -2.902058    0.478619   -3.604477
     39          1           0       -3.992226    0.365075   -3.548039
     40          1           0       -2.676935    1.520699   -3.853474
     41          1           0       -2.543409   -0.152375   -4.425326
     42          7           0        0.313486    0.187008   -0.157980
     43          1           0       -0.063869   -0.742144   -0.294858
     44          6           0        1.768163    0.324735   -0.068933
     45          1           0        1.950601    1.400006    0.013576
     46          6           0        2.446080   -0.191495   -1.358704
     47          6           0        2.298373   -0.396043    1.187397
     48          1           0        1.549087   -0.307160    1.973698
     49          1           0        2.461358   -1.453438    0.957013
     50          8           0        3.303068   -1.079728   -1.319881
     51          6           0        3.578189    0.249681    1.726406
     52          7           0        4.695440   -0.021703    1.013282
     53          1           0        5.566593    0.404328    1.296929
     54          1           0        4.642480   -0.571263    0.161816
     55          8           0        3.559068    0.974834    2.719513
     56          7           0        2.055768    0.399528   -2.501907
     57          1           0        1.367894    1.167252   -2.499325
     58          6           0        2.691960    0.037082   -3.763103
     59          1           0        2.484541   -1.013025   -3.994437
     60          6           0        4.216515    0.150295   -3.723278
     61          6           0        2.175551    0.948942   -4.892092
     62          1           0        2.718248    0.694180   -5.808026
     63          1           0        2.452538    1.976966   -4.631406
     64          8           0        4.950237   -0.517737   -4.411242
     65          6           0        0.654679    0.848511   -5.104316
     66          1           0        0.425319    0.081430   -5.854039
     67          1           0        0.167741    0.534805   -4.180251
     68          6           0       -0.001324    2.168352   -5.559005
     69          1           0        0.200601    2.343435   -6.620462
     70          1           0       -1.087398    2.075539   -5.452100
     71          7           0        0.438157    3.384570   -4.875544
     72          1           0        1.074564    3.979980   -5.385616
     73          7           0        0.822405    4.869645   -3.165386
     74          1           0        0.767038    5.087715   -2.179535
     75          1           0        0.505000    5.626546   -3.759295
     76          7           0        0.087830    2.645800   -2.685426
     77          1           0        0.012415    3.012690   -1.736758
     78          6           0        0.412657    3.586282   -3.518711
     79          8           0        4.647630    1.154112   -2.921641
     80          1           0        5.618971    1.170643   -3.013063
 ---------------------------------------------------------------------

 SCF Done:  E(RB3LYP) =  -1866.70105725     A.U. after    1 cycles

 Alpha  occ. eigenvalues --  -19.27014 -19.25720 -19.22757 -19.19766 -19.19677
 Alpha  occ. eigenvalues --  -19.17577 -14.60598 -14.49568 -14.47237 -14.43271
 Alpha  occ. eigenvalues --  -14.43250 -14.42956 -14.41271 -14.37115 -10.43660
 Alpha  occ. eigenvalues --  -10.41173 -10.39869 -10.37961 -10.37216 -10.36681
 Alpha  occ. eigenvalues --  -10.35394 -10.34739 -10.34261 -10.32642 -10.30700
 Alpha  occ. eigenvalues --  -10.30491 -10.29851 -10.29050 -10.28651 -10.28283
 Alpha  occ. eigenvalues --  -10.28201 -10.27394 -10.27359 -10.27233 -10.26882
 Alpha  occ. eigenvalues --  -10.26453 -10.26020 -10.25731 -10.25084  -1.19487
 Alpha  occ. eigenvalues --   -1.16511  -1.14928  -1.14181  -1.11494  -1.09138
 Alpha  occ. eigenvalues --   -1.07485  -1.06336  -1.06191  -1.03522  -0.99872
 Alpha  occ. eigenvalues --   -0.97041  -0.96433  -0.96327  -0.92779  -0.92543
 Alpha  occ. eigenvalues --   -0.90691  -0.87656  -0.86589  -0.85649  -0.83883
 Alpha  occ. eigenvalues --   -0.83768  -0.81825  -0.79531  -0.77117  -0.76502
 Alpha  occ. eigenvalues --   -0.75691  -0.74750  -0.74326  -0.73393  -0.71591
 Alpha  occ. eigenvalues --   -0.70132  -0.69764  -0.69644  -0.68492  -0.67798
 Alpha  occ. eigenvalues --   -0.66730  -0.65956  -0.65070  -0.64871  -0.64499
 Alpha  occ. eigenvalues --   -0.63259  -0.62659  -0.62106  -0.60573  -0.60441
 Alpha  occ. eigenvalues --   -0.60209  -0.59649  -0.58542  -0.57772  -0.57337
 Alpha  occ. eigenvalues --   -0.56868  -0.56534  -0.55946  -0.55195  -0.54893
 Alpha  occ. eigenvalues --   -0.54508  -0.53778  -0.53563  -0.53476  -0.53193
 Alpha  occ. eigenvalues --   -0.52691  -0.52515  -0.51695  -0.51561  -0.51254
 Alpha  occ. eigenvalues --   -0.50947  -0.50759  -0.50253  -0.50206  -0.50027
 Alpha  occ. eigenvalues --   -0.49418  -0.48493  -0.48126  -0.47268  -0.46869
 Alpha  occ. eigenvalues --   -0.46642  -0.46322  -0.46028  -0.45789  -0.45378
 Alpha  occ. eigenvalues --   -0.45175  -0.44665  -0.44435  -0.43724  -0.43395
 Alpha  occ. eigenvalues --   -0.43158  -0.42764  -0.42215  -0.42043  -0.41782
 Alpha  occ. eigenvalues --   -0.41571  -0.41233  -0.40365  -0.38751  -0.37603
 Alpha  occ. eigenvalues --   -0.37284  -0.36686  -0.35601  -0.34822  -0.34422
 Alpha  occ. eigenvalues --   -0.34000  -0.33685  -0.33286  -0.32746  -0.32035
 Alpha  occ. eigenvalues --   -0.31218  -0.31165
 Alpha virt. eigenvalues --   -0.12701  -0.11601  -0.10638  -0.09744  -0.08841
 Alpha virt. eigenvalues --   -0.06805  -0.06347  -0.04752  -0.03873  -0.03760
 Alpha virt. eigenvalues --   -0.03265  -0.02781  -0.01879  -0.01799  -0.01044

 Mulliken charges:
               1
     1  N   -0.756948
     2  H    0.416650
     3  H    0.432638
     4  H    0.415268
     5  C   -0.113732
     6  H    0.214054
     7  C    0.654638
     8  C   -0.376365
     9  H    0.180882
    10  H    0.185104
    11  O   -0.549893
    12  C    0.152094
    13  C   -0.188747
    14  H    0.136283
    15  C   -0.212285
    16  H    0.123809
    17  C   -0.139148
    18  H    0.184651
    19  C   -0.110680
    20  H    0.150054
    21  C   -0.115083
    22  H    0.184115
    23  N   -0.603233
    24  H    0.387253
    25  C   -0.066461
    26  H    0.181755
    27  C    0.649619
    28  C   -0.253538
    29  H    0.152735
    30  H    0.158548
    31  O   -0.555969
    32  C   -0.103228
    33  H    0.169784
    34  C   -0.456811
    35  H    0.157010
    36  H    0.166045
    37  H    0.121241
    38  C   -0.454460
    39  H    0.143898
    40  H    0.160672
    41  H    0.153090
    42  N   -0.602675
    43  H    0.350900
    44  C   -0.088069
    45  H    0.215146
    46  C    0.638855
    47  C   -0.358206
    48  H    0.158722
    49  H    0.185324
    50  O   -0.546326
    51  C    0.572759
    52  N   -0.743159
    53  H    0.344161
    54  H    0.382440
    55  O   -0.517213
    56  N   -0.656439
    57  H    0.417601
    58  C   -0.003438
    59  H    0.186386
    60  C    0.595062
    61  C   -0.315245
    62  H    0.177675
    63  H    0.158780
    64  O   -0.458791
    65  C   -0.294563
    66  H    0.152301
    67  H    0.183310
    68  C   -0.127562
    69  H    0.155565
    70  H    0.167852
    71  N   -0.602259
    72  H    0.337522
    73  N   -0.758490
    74  H    0.336397
    75  H    0.336465
    76  N   -0.742428
    77  H    0.305466
    78  C    0.639410
    79  O   -0.573785
    80  H    0.415236
 Sum of Mulliken charges =   1.00000

 Dipole moment (field-independent basis, Debye):
    X=            -17.1219    Y=             14.4330    Z=              5.2775  Tot=             23.0070
 Quadrupole moment (field-independent basis, Debye-Ang):
   XX=           -132.0974   YY=           -173.2782   ZZ=           -161.2019
   XY=            -34.2758   XZ=            -61.8244   YZ=             -0.0346

 Normal termination of Gaussian 16 at Fri Jun 17 23:19:34 2022.
