 Gaussian 16, Revision C.01,
 Gaussian 16:  ES64L-G16RevC.01  3-Jul-2019

 ----------------------------------------------------------------------
 # B3LYP/6-31G* empiricaldispersion=gd3 guess=read geom=check nosymm in
 tegral(ultrafinegrid)
 ----------------------------------------------------------------------

 ------------------------------------------------------
 Candidate Structure: Conf:217 Charge calc in gas phase
 ------------------------------------------------------
 Structure from the checkpoint file:  "conf-217.chk"
 Charge =  1 Multiplicity = 1

                          Input orientation:
 ---------------------------------------------------------------------
 Center     Atomic      Atomic             Coordinates (Angstroms)
 Number     Number       Type             X           Y           Z
 ---------------------------------------------------------------------
      1          7           0       -1.204623   -0.976696    3.697286
      2          1           0       -1.040782   -1.175644    4.686625
      3          1           0       -1.877725   -1.645753    3.295280
      4          1           0       -0.276864   -1.103173    3.153772
      5          6           0       -1.752711    0.409921    3.472901
      6          1           0       -2.523681    0.587700    4.229821
      7          6           0       -2.427854    0.321687    2.078865
      8          6           0       -0.604752    1.437181    3.619881
      9          1           0        0.142504    1.238096    2.845421
     10          1           0       -0.114013    1.242977    4.582965
     11          8           0       -2.648094   -0.798218    1.597690
     12          6           0       -1.068821    2.879908    3.562597
     13          6           0       -0.693990    3.703149    2.489202
     14          1           0       -0.059393    3.310467    1.699321
     15          6           0       -1.919563    3.395618    4.551364
     16          1           0       -2.205799    2.776212    5.399266
     17          6           0       -1.176440    5.011646    2.400887
     18          1           0       -0.882110    5.634380    1.561394
     19          6           0       -2.398802    4.702433    4.463079
     20          1           0       -3.056467    5.089395    5.235712
     21          6           0       -2.031556    5.511802    3.384211
     22          1           0       -2.407744    6.528008    3.314416
     23          7           0       -2.717225    1.478569    1.467458
     24          1           0       -2.405581    2.338932    1.908627
     25          6           0       -2.943763    1.574537    0.009392
     26          1           0       -3.634015    0.777695   -0.276112
     27          6           0       -1.530354    1.341156   -0.570804
     28          6           0       -3.491629    2.956555   -0.347836
     29          1           0       -2.691492    3.687027   -0.179411
     30          1           0       -3.692418    2.962133   -1.427049
     31          8           0       -0.687191    2.226762   -0.571849
     32          6           0       -4.760686    3.376631    0.417339
     33          1           0       -4.525706    3.387313    1.492351
     34          6           0       -5.149030    4.806481    0.015888
     35          1           0       -5.395587    4.860769   -1.051726
     36          1           0       -6.025667    5.145843    0.578034
     37          1           0       -4.330563    5.510150    0.208314
     38          6           0       -5.925024    2.401841    0.194420
     39          1           0       -6.167741    2.321990   -0.872923
     40          1           0       -5.699787    1.395444    0.566866
     41          1           0       -6.825278    2.747652    0.713525
     42          7           0       -1.246240    0.039738   -0.916727
     43          1           0       -1.972872   -0.638819   -0.720192
     44          6           0        0.129886   -0.438399   -0.815307
     45          1           0        0.708899    0.425947   -0.470125
     46          6           0        0.802491   -0.835857   -2.137182
     47          6           0        0.250061   -1.604598    0.213587
     48          1           0       -0.682766   -1.707322    0.766086
     49          1           0        0.450319   -2.544579   -0.309072
     50          8           0        1.900008   -1.409536   -2.101198
     51          6           0        1.363844   -1.349742    1.215522
     52          7           0        2.595376   -1.338132    0.703980
     53          1           0        3.386330   -1.139099    1.302628
     54          1           0        2.713518   -1.451366   -0.307040
     55          8           0        1.135825   -1.136599    2.428739
     56          7           0        0.164010   -0.495046   -3.261488
     57          1           0       -0.730605   -0.018588   -3.212994
     58          6           0        0.722091   -0.717678   -4.590648
     59          1           0        1.782430   -0.445547   -4.580557
     60          6           0       -0.033275    0.216214   -5.527384
     61          6           0        0.589450   -2.201477   -5.016355
     62          1           0       -0.478225   -2.450942   -5.078943
     63          1           0        1.012692   -2.786632   -4.191505
     64          8           0       -1.122908    0.688653   -5.274870
     65          6           0        1.305136   -2.558440   -6.322318
     66          1           0        0.863025   -2.021692   -7.166872
     67          1           0        2.356538   -2.245179   -6.267769
     68          6           0        1.242307   -4.066673   -6.611601
     69          1           0        1.711913   -4.630721   -5.796685
     70          1           0        0.195894   -4.388641   -6.649516
     71          7           0        1.908485   -4.461516   -7.853604
     72          1           0        2.915370   -4.333180   -7.816962
     73          7           0        0.061524   -4.048414   -9.228192
     74          1           0       -0.254651   -3.861123  -10.172375
     75          1           0       -0.333664   -4.915219   -8.876867
     76          7           0        2.303066   -3.470509   -9.906284
     77          1           0        1.874112   -3.276463  -10.813422
     78          6           0        1.454461   -3.960562   -9.079580
     79          8           0        0.635554    0.433053   -6.668667
     80          1           0        0.076421    0.997037   -7.237534
 ---------------------------------------------------------------------

 SCF Done:  E(RB3LYP) =  -1866.71029400     A.U. after    2 cycles

 Alpha  occ. eigenvalues --  -19.28672 -19.26463 -19.25193 -19.23467 -19.23221
 Alpha  occ. eigenvalues --  -19.22136 -14.56824 -14.49379 -14.47850 -14.46821
 Alpha  occ. eigenvalues --  -14.46091 -14.39791 -14.38839 -14.33112 -10.43465
 Alpha  occ. eigenvalues --  -10.41795 -10.41224 -10.40374 -10.39840 -10.39222
 Alpha  occ. eigenvalues --  -10.35274 -10.35013 -10.33181 -10.32923 -10.32483
 Alpha  occ. eigenvalues --  -10.31408 -10.31321 -10.30009 -10.29544 -10.29474
 Alpha  occ. eigenvalues --  -10.29325 -10.29229 -10.28210 -10.27918 -10.27750
 Alpha  occ. eigenvalues --  -10.27123 -10.25621 -10.25191 -10.24796  -1.19755
 Alpha  occ. eigenvalues --   -1.18575  -1.15937  -1.15488  -1.13792  -1.11638
 Alpha  occ. eigenvalues --   -1.10861  -1.06246  -1.04554  -1.02748  -1.02099
 Alpha  occ. eigenvalues --   -1.02051  -0.96878  -0.93452  -0.92623  -0.90535
 Alpha  occ. eigenvalues --   -0.89729  -0.89072  -0.87706  -0.86182  -0.85057
 Alpha  occ. eigenvalues --   -0.84399  -0.82055  -0.79307  -0.79033  -0.76498
 Alpha  occ. eigenvalues --   -0.74923  -0.74286  -0.72941  -0.72534  -0.72036
 Alpha  occ. eigenvalues --   -0.71049  -0.70854  -0.70226  -0.69204  -0.68513
 Alpha  occ. eigenvalues --   -0.67693  -0.66529  -0.66197  -0.65042  -0.64641
 Alpha  occ. eigenvalues --   -0.64183  -0.63170  -0.62405  -0.61365  -0.61229
 Alpha  occ. eigenvalues --   -0.60479  -0.59592  -0.58680  -0.58236  -0.57670
 Alpha  occ. eigenvalues --   -0.57389  -0.57076  -0.56453  -0.56142  -0.56046
 Alpha  occ. eigenvalues --   -0.55614  -0.54928  -0.54492  -0.54128  -0.53847
 Alpha  occ. eigenvalues --   -0.53212  -0.53073  -0.52772  -0.52382  -0.52196
 Alpha  occ. eigenvalues --   -0.51793  -0.51729  -0.51101  -0.50903  -0.50381
 Alpha  occ. eigenvalues --   -0.49861  -0.49589  -0.49468  -0.48980  -0.48205
 Alpha  occ. eigenvalues --   -0.47809  -0.47741  -0.47425  -0.46611  -0.46431
 Alpha  occ. eigenvalues --   -0.46184  -0.45021  -0.44925  -0.44577  -0.44504
 Alpha  occ. eigenvalues --   -0.43914  -0.42488  -0.41651  -0.41590  -0.41449
 Alpha  occ. eigenvalues --   -0.41307  -0.40953  -0.40758  -0.40431  -0.39774
 Alpha  occ. eigenvalues --   -0.39628  -0.39090  -0.38829  -0.36958  -0.36532
 Alpha  occ. eigenvalues --   -0.35593  -0.35528  -0.35418  -0.35012  -0.31135
 Alpha  occ. eigenvalues --   -0.30359  -0.27341
 Alpha virt. eigenvalues --   -0.13623  -0.11333  -0.11045  -0.10557  -0.09165
 Alpha virt. eigenvalues --   -0.08601  -0.07850  -0.07377  -0.03185  -0.02155
 Alpha virt. eigenvalues --   -0.01269  -0.01147  -0.00575  -0.00101   0.00005

 Mulliken charges:
               1
     1  N   -0.777209
     2  H    0.398745
     3  H    0.410427
     4  H    0.457321
     5  C   -0.129452
     6  H    0.219791
     7  C    0.643490
     8  C   -0.366402
     9  H    0.195094
    10  H    0.184059
    11  O   -0.546799
    12  C    0.103313
    13  C   -0.216984
    14  H    0.177487
    15  C   -0.171516
    16  H    0.135051
    17  C   -0.124905
    18  H    0.167069
    19  C   -0.125067
    20  H    0.162712
    21  C   -0.125076
    22  H    0.164616
    23  N   -0.598611
    24  H    0.385856
    25  C   -0.068966
    26  H    0.184103
    27  C    0.600520
    28  C   -0.297118
    29  H    0.172372
    30  H    0.165532
    31  O   -0.497878
    32  C   -0.081414
    33  H    0.125156
    34  C   -0.444819
    35  H    0.154589
    36  H    0.157099
    37  H    0.145064
    38  C   -0.453970
    39  H    0.152988
    40  H    0.140685
    41  H    0.161954
    42  N   -0.623436
    43  H    0.357694
    44  C   -0.060838
    45  H    0.220964
    46  C    0.648348
    47  C   -0.406195
    48  H    0.183020
    49  H    0.210989
    50  O   -0.557952
    51  C    0.598862
    52  N   -0.719554
    53  H    0.361780
    54  H    0.406042
    55  O   -0.579139
    56  N   -0.616877
    57  H    0.369154
    58  C   -0.023972
    59  H    0.200979
    60  C    0.583862
    61  C   -0.279914
    62  H    0.148160
    63  H    0.171406
    64  O   -0.468979
    65  C   -0.269839
    66  H    0.176546
    67  H    0.147506
    68  C   -0.145002
    69  H    0.148506
    70  H    0.145589
    71  N   -0.567230
    72  H    0.328871
    73  N   -0.743959
    74  H    0.324866
    75  H    0.329679
    76  N   -0.628075
    77  H    0.267651
    78  C    0.538870
    79  O   -0.545461
    80  H    0.428171
 Sum of Mulliken charges =   1.00000

 Dipole moment (field-independent basis, Debye):
    X=             -8.3086    Y=              0.7387    Z=              7.2215  Tot=             11.0331
 Quadrupole moment (field-independent basis, Debye-Ang):
   XX=           -207.9075   YY=           -190.4918   ZZ=           -134.8429
   XY=             -8.8461   XZ=              3.9638   YZ=             15.4308

 Normal termination of Gaussian 16 at Fri Jun 17 23:19:48 2022.
