 Gaussian 16, Revision C.01,
 Gaussian 16:  ES64L-G16RevC.01  3-Jul-2019

 ----------------------------------------------------------------------
 # B3LYP/6-31G* empiricaldispersion=gd3 guess=read geom=check nosymm in
 tegral(ultrafinegrid)
 ----------------------------------------------------------------------

 ------------------------------------------------------
 Candidate Structure: Conf:684 Charge calc in gas phase
 ------------------------------------------------------
 Structure from the checkpoint file:  "conf-684.chk"
 Charge =  1 Multiplicity = 1

                          Input orientation:
 ---------------------------------------------------------------------
 Center     Atomic      Atomic             Coordinates (Angstroms)
 Number     Number       Type             X           Y           Z
 ---------------------------------------------------------------------
      1          7           0       -1.411865    1.577843    5.455853
      2          1           0       -2.037163    1.580453    6.264836
      3          1           0       -1.151913    0.570417    5.185122
      4          1           0       -0.568599    2.109405    5.688847
      5          6           0       -2.065168    2.057073    4.172188
      6          1           0       -3.096367    2.335131    4.400797
      7          6           0       -2.003126    0.783332    3.284884
      8          6           0       -1.292605    3.255278    3.570502
      9          1           0       -0.325919    2.894605    3.205043
     10          1           0       -1.115772    3.980201    4.377253
     11          8           0       -1.436927   -0.214458    3.755081
     12          6           0       -2.059524    3.933059    2.449039
     13          6           0       -1.624177    3.833645    1.119158
     14          1           0       -0.736712    3.253645    0.887711
     15          6           0       -3.228083    4.654563    2.735178
     16          1           0       -3.566191    4.755721    3.765344
     17          6           0       -2.355258    4.442263    0.095760
     18          1           0       -2.010175    4.355696   -0.930513
     19          6           0       -3.955528    5.261139    1.711544
     20          1           0       -4.856537    5.819997    1.946517
     21          6           0       -3.520218    5.153660    0.387965
     22          1           0       -4.086410    5.625076   -0.409853
     23          7           0       -2.545850    0.858166    2.070212
     24          1           0       -2.845973    1.778461    1.764564
     25          6           0       -2.087128   -0.032298    0.997406
     26          1           0       -2.336332   -1.060865    1.269975
     27          6           0       -0.550899    0.123825    0.879275
     28          6           0       -2.814694    0.393308   -0.298712
     29          1           0       -3.883462    0.469266   -0.051869
     30          1           0       -2.469636    1.403423   -0.556986
     31          8           0        0.038425    1.103978    1.343475
     32          6           0       -2.657754   -0.520934   -1.526911
     33          1           0       -1.597060   -0.576311   -1.785009
     34          6           0       -3.189184   -1.938255   -1.276001
     35          1           0       -4.258668   -1.917377   -1.027896
     36          1           0       -3.053583   -2.556561   -2.167835
     37          1           0       -2.662991   -2.452719   -0.464141
     38          6           0       -3.377171    0.125010   -2.720230
     39          1           0       -4.452241    0.235628   -2.526103
     40          1           0       -2.965920    1.116861   -2.941589
     41          1           0       -3.263510   -0.492771   -3.617445
     42          7           0        0.084865   -0.864418    0.221177
     43          1           0       -0.435908   -1.598973   -0.259471
     44          6           0        1.425680   -0.638322   -0.282592
     45          1           0        2.093421   -0.426382    0.560010
     46          6           0        1.445324    0.565058   -1.253931
     47          6           0        1.934792   -1.893383   -1.032706
     48          1           0        2.927919   -1.689283   -1.441207
     49          1           0        2.015119   -2.720355   -0.320342
     50          8           0        0.454569    0.918194   -1.878717
     51          6           0        0.953921   -2.333284   -2.121657
     52          7           0        1.390437   -2.250477   -3.394942
     53          1           0        0.723248   -2.460345   -4.126011
     54          1           0        2.221497   -1.720720   -3.635456
     55          8           0       -0.169029   -2.746425   -1.814168
     56          7           0        2.672045    1.151466   -1.393421
     57          1           0        3.461304    0.685524   -0.964533
     58          6           0        2.973278    1.970029   -2.552409
     59          1           0        2.057654    2.508280   -2.813510
     60          6           0        3.321784    1.070062   -3.743623
     61          6           0        4.108549    2.976188   -2.279621
     62          1           0        3.786040    3.636994   -1.466176
     63          1           0        4.219208    3.594331   -3.177031
     64          8           0        3.436014   -0.140235   -3.694667
     65          6           0        5.454664    2.318437   -1.947097
     66          1           0        5.414349    1.828126   -0.962606
     67          1           0        5.701708    1.552429   -2.689905
     68          6           0        6.604108    3.339090   -1.950966
     69          1           0        6.638880    3.830044   -2.927876
     70          1           0        6.433709    4.114318   -1.193791
     71          7           0        7.920029    2.765966   -1.710204
     72          1           0        8.088545    2.450974   -0.762173
     73          7           0        9.718117    1.414715   -2.239621
     74          1           0       10.245793    0.940602   -2.962364
     75          1           0       10.302925    2.058226   -1.716156
     76          7           0        7.930349    1.780152   -3.817512
     77          1           0        8.545025    1.286928   -4.466150
     78          6           0        8.507633    1.964424   -2.683596
     79          8           0        3.513455    1.786267   -4.858904
     80          1           0        3.789149    1.173490   -5.567337
 ---------------------------------------------------------------------

 SCF Done:  E(RB3LYP) =  -1866.69833216     A.U. after    1 cycles

 Alpha  occ. eigenvalues --  -19.28424 -19.26294 -19.23303 -19.20738 -19.20289
 Alpha  occ. eigenvalues --  -19.19060 -14.59087 -14.48060 -14.44523 -14.43924
 Alpha  occ. eigenvalues --  -14.42648 -14.40380 -14.40337 -14.34090 -10.42591
 Alpha  occ. eigenvalues --  -10.41001 -10.40052 -10.37555 -10.37187 -10.36795
 Alpha  occ. eigenvalues --  -10.33663 -10.33083 -10.33030 -10.32623 -10.32091
 Alpha  occ. eigenvalues --  -10.30574 -10.29338 -10.28704 -10.28507 -10.28477
 Alpha  occ. eigenvalues --  -10.28431 -10.28383 -10.27738 -10.27099 -10.26866
 Alpha  occ. eigenvalues --  -10.25172 -10.25148 -10.23307 -10.23162  -1.19588
 Alpha  occ. eigenvalues --   -1.18755  -1.13237  -1.12736  -1.11756  -1.10716
 Alpha  occ. eigenvalues --   -1.10557  -1.05221  -1.03123  -1.01365  -1.01075
 Alpha  occ. eigenvalues --   -0.97746  -0.96205  -0.94401  -0.92212  -0.89632
 Alpha  occ. eigenvalues --   -0.89253  -0.88044  -0.86042  -0.85368  -0.84178
 Alpha  occ. eigenvalues --   -0.82698  -0.81397  -0.78944  -0.76443  -0.74362
 Alpha  occ. eigenvalues --   -0.74301  -0.73714  -0.73175  -0.72171  -0.71460
 Alpha  occ. eigenvalues --   -0.70282  -0.70008  -0.68579  -0.67817  -0.66826
 Alpha  occ. eigenvalues --   -0.66338  -0.66183  -0.64480  -0.64050  -0.63186
 Alpha  occ. eigenvalues --   -0.62307  -0.61885  -0.60835  -0.60594  -0.59657
 Alpha  occ. eigenvalues --   -0.59450  -0.58182  -0.58148  -0.57559  -0.57448
 Alpha  occ. eigenvalues --   -0.56889  -0.56334  -0.55473  -0.55394  -0.54891
 Alpha  occ. eigenvalues --   -0.54503  -0.54009  -0.53066  -0.52890  -0.52292
 Alpha  occ. eigenvalues --   -0.52139  -0.51458  -0.51122  -0.51105  -0.50737
 Alpha  occ. eigenvalues --   -0.50323  -0.49880  -0.49705  -0.49422  -0.49158
 Alpha  occ. eigenvalues --   -0.48936  -0.48355  -0.47915  -0.47398  -0.46964
 Alpha  occ. eigenvalues --   -0.46432  -0.45683  -0.45527  -0.45317  -0.44645
 Alpha  occ. eigenvalues --   -0.44574  -0.44242  -0.44086  -0.43801  -0.43561
 Alpha  occ. eigenvalues --   -0.42837  -0.42020  -0.41739  -0.41182  -0.41014
 Alpha  occ. eigenvalues --   -0.40426  -0.39445  -0.39171  -0.39077  -0.38485
 Alpha  occ. eigenvalues --   -0.36866  -0.35661  -0.34963  -0.34747  -0.34628
 Alpha  occ. eigenvalues --   -0.34355  -0.33989  -0.33227  -0.32545  -0.32215
 Alpha  occ. eigenvalues --   -0.31008  -0.28367
 Alpha virt. eigenvalues --   -0.12234  -0.10718  -0.10312  -0.09774  -0.08145
 Alpha virt. eigenvalues --   -0.07118  -0.06107  -0.05519  -0.05431  -0.02640
 Alpha virt. eigenvalues --   -0.01096  -0.00339  -0.00255  -0.00054   0.00025

 Mulliken charges:
               1
     1  N   -0.765330
     2  H    0.412751
     3  H    0.436845
     4  H    0.412413
     5  C   -0.116672
     6  H    0.218960
     7  C    0.667243
     8  C   -0.377415
     9  H    0.217918
    10  H    0.172978
    11  O   -0.540236
    12  C    0.101918
    13  C   -0.206653
    14  H    0.197186
    15  C   -0.178354
    16  H    0.127996
    17  C   -0.130590
    18  H    0.163484
    19  C   -0.126430
    20  H    0.158796
    21  C   -0.123309
    22  H    0.161274
    23  N   -0.593073
    24  H    0.368140
    25  C   -0.073016
    26  H    0.195836
    27  C    0.662976
    28  C   -0.298598
    29  H    0.150587
    30  H    0.158671
    31  O   -0.568333
    32  C   -0.103022
    33  H    0.174770
    34  C   -0.443955
    35  H    0.135005
    36  H    0.169095
    37  H    0.140006
    38  C   -0.447084
    39  H    0.139151
    40  H    0.146515
    41  H    0.153566
    42  N   -0.618562
    43  H    0.397343
    44  C   -0.073485
    45  H    0.172603
    46  C    0.649431
    47  C   -0.384570
    48  H    0.176593
    49  H    0.199568
    50  O   -0.522691
    51  C    0.603336
    52  N   -0.754375
    53  H    0.348002
    54  H    0.396381
    55  O   -0.530617
    56  N   -0.594922
    57  H    0.341653
    58  C   -0.065759
    59  H    0.209758
    60  C    0.615738
    61  C   -0.280279
    62  H    0.155555
    63  H    0.179308
    64  O   -0.496214
    65  C   -0.298108
    66  H    0.112779
    67  H    0.194299
    68  C   -0.123466
    69  H    0.182162
    70  H    0.139582
    71  N   -0.592303
    72  H    0.317976
    73  N   -0.758236
    74  H    0.327043
    75  H    0.330031
    76  N   -0.657094
    77  H    0.271784
    78  C    0.592983
    79  O   -0.543417
    80  H    0.428181
 Sum of Mulliken charges =   1.00000

 Dipole moment (field-independent basis, Debye):
    X=              2.2057    Y=             10.1218    Z=             11.8657  Tot=             15.7516
 Quadrupole moment (field-independent basis, Debye-Ang):
   XX=           -121.5232   YY=           -202.4074   ZZ=           -107.0158
   XY=            -13.6412   XZ=            -48.0700   YZ=             37.9895

 Normal termination of Gaussian 16 at Fri Jun 17 23:19:34 2022.
