 Gaussian 16, Revision C.01,
 Gaussian 16:  ES64L-G16RevC.01  3-Jul-2019

 ----------------------------------------------------------------------
 # B3LYP/6-31G* empiricaldispersion=gd3 guess=read geom=check nosymm in
 tegral(ultrafinegrid)
 ----------------------------------------------------------------------

 ------------------------------------------------------
 Candidate Structure: Conf:234 Charge calc in gas phase
 ------------------------------------------------------
 Structure from the checkpoint file:  "conf-234.chk"
 Charge =  1 Multiplicity = 1

                          Input orientation:
 ---------------------------------------------------------------------
 Center     Atomic      Atomic             Coordinates (Angstroms)
 Number     Number       Type             X           Y           Z
 ---------------------------------------------------------------------
      1          7           0       -3.263295   -0.200115    2.942562
      2          1           0       -3.613851   -0.962924    2.352831
      3          1           0       -2.203760   -0.160876    2.842303
      4          1           0       -3.512925   -0.333630    3.927748
      5          6           0       -3.817858    1.103948    2.414708
      6          1           0       -4.907074    1.032351    2.502088
      7          6           0       -3.433353    1.061456    0.918835
      8          6           0       -3.285424    2.279509    3.253563
      9          1           0       -3.830120    3.178250    2.941302
     10          1           0       -2.225197    2.421702    3.024947
     11          8           0       -3.521743   -0.033105    0.343302
     12          6           0       -3.476068    2.040192    4.737538
     13          6           0       -4.709853    2.286693    5.354874
     14          1           0       -5.527177    2.713255    4.776891
     15          6           0       -2.426177    1.502572    5.498482
     16          1           0       -1.464566    1.317769    5.023831
     17          6           0       -4.890096    2.008912    6.710340
     18          1           0       -5.846841    2.215357    7.181020
     19          6           0       -2.608347    1.222734    6.854963
     20          1           0       -1.785721    0.818085    7.437507
     21          6           0       -3.840028    1.475322    7.462074
     22          1           0       -3.979993    1.264205    8.518036
     23          7           0       -3.002650    2.199408    0.362522
     24          1           0       -2.851565    3.004621    0.961234
     25          6           0       -2.157844    2.227333   -0.845884
     26          1           0       -2.165776    1.222437   -1.265456
     27          6           0       -0.761025    2.579116   -0.294402
     28          6           0       -2.646258    3.255188   -1.868505
     29          1           0       -2.558569    4.254423   -1.424210
     30          1           0       -1.948763    3.229758   -2.717730
     31          8           0       -0.596091    3.613369    0.350416
     32          6           0       -4.080553    3.017852   -2.375667
     33          1           0       -4.756115    3.085866   -1.510516
     34          6           0       -4.467626    4.120637   -3.370836
     35          1           0       -3.829009    4.083239   -4.262558
     36          1           0       -5.506056    4.005748   -3.700158
     37          1           0       -4.362777    5.116989   -2.926288
     38          6           0       -4.253722    1.625967   -3.004031
     39          1           0       -3.538766    1.478077   -3.824535
     40          1           0       -4.106117    0.821794   -2.274018
     41          1           0       -5.261258    1.512785   -3.418888
     42          7           0        0.196872    1.650355   -0.525021
     43          1           0       -0.101065    0.699179   -0.825404
     44          6           0        1.472014    1.710928    0.185698
     45          1           0        1.865710    2.728918    0.086013
     46          6           0        2.422389    0.732184   -0.529880
     47          6           0        1.328588    1.433961    1.705053
     48          1           0        2.319699    1.237500    2.125247
     49          1           0        0.909884    2.329060    2.165719
     50          8           0        2.840728   -0.303251   -0.003818
     51          6           0        0.383020    0.285111    2.025393
     52          7           0        0.847662   -0.949478    1.828570
     53          1           0        0.194157   -1.721439    1.830394
     54          1           0        1.698967   -1.042678    1.268364
     55          8           0       -0.770659    0.529149    2.453014
     56          7           0        2.699597    1.074358   -1.806201
     57          1           0        2.421016    1.987265   -2.142119
     58          6           0        3.412742    0.212216   -2.728121
     59          1           0        3.627284   -0.715986   -2.195276
     60          6           0        4.728623    0.872044   -3.130558
     61          6           0        2.576864   -0.071538   -4.003624
     62          1           0        3.098418   -0.846555   -4.576648
     63          1           0        2.576159    0.831419   -4.628399
     64          8           0        4.966322    2.051429   -3.011796
     65          6           0        1.121383   -0.479161   -3.734992
     66          1           0        0.593889    0.329474   -3.216381
     67          1           0        0.623923   -0.606609   -4.705660
     68          6           0        0.955030   -1.770855   -2.920470
     69          1           0        1.502052   -2.593068   -3.397435
     70          1           0        1.350615   -1.652888   -1.908806
     71          7           0       -0.441516   -2.176049   -2.796928
     72          1           0       -0.879668   -2.526841   -3.637367
     73          7           0       -2.570472   -2.148705   -1.847442
     74          1           0       -3.240521   -1.564683   -1.362506
     75          1           0       -2.920449   -2.596992   -2.683117
     76          7           0       -0.790149   -0.962028   -0.847065
     77          1           0       -1.519524   -0.814139   -0.151140
     78          6           0       -1.261500   -1.709411   -1.806254
     79          8           0        5.563403   -0.023892   -3.692896
     80          1           0        6.364601    0.459321   -3.973031
 ---------------------------------------------------------------------

 SCF Done:  E(RB3LYP) =  -1866.74725033     A.U. after    3 cycles

 Alpha  occ. eigenvalues --  -19.27994 -19.25341 -19.24341 -19.22478 -19.22320
 Alpha  occ. eigenvalues --  -19.21253 -14.56358 -14.48761 -14.46271 -14.45596
 Alpha  occ. eigenvalues --  -14.44731 -14.44698 -14.44133 -14.37884 -10.42577
 Alpha  occ. eigenvalues --  -10.40653 -10.40378 -10.39451 -10.38737 -10.38496
 Alpha  occ. eigenvalues --  -10.38177 -10.34009 -10.33256 -10.32926 -10.31849
 Alpha  occ. eigenvalues --  -10.30706 -10.30532 -10.29408 -10.29176 -10.29122
 Alpha  occ. eigenvalues --  -10.28816 -10.28760 -10.28570 -10.28549 -10.27688
 Alpha  occ. eigenvalues --  -10.27549 -10.27362 -10.25557 -10.24750  -1.18881
 Alpha  occ. eigenvalues --   -1.17374  -1.14934  -1.14163  -1.13116  -1.11164
 Alpha  occ. eigenvalues --   -1.10084  -1.07459  -1.05231  -1.03343  -1.01930
 Alpha  occ. eigenvalues --   -1.01092  -0.98442  -0.96039  -0.93445  -0.91791
 Alpha  occ. eigenvalues --   -0.89902  -0.89405  -0.87622  -0.85558  -0.84368
 Alpha  occ. eigenvalues --   -0.83811  -0.83302  -0.78837  -0.78003  -0.76774
 Alpha  occ. eigenvalues --   -0.76224  -0.74215  -0.72395  -0.71575  -0.71243
 Alpha  occ. eigenvalues --   -0.70653  -0.70206  -0.69648  -0.69002  -0.68735
 Alpha  occ. eigenvalues --   -0.68200  -0.67999  -0.66819  -0.65814  -0.64095
 Alpha  occ. eigenvalues --   -0.63933  -0.63438  -0.62206  -0.61810  -0.61350
 Alpha  occ. eigenvalues --   -0.60865  -0.59469  -0.58661  -0.58444  -0.57985
 Alpha  occ. eigenvalues --   -0.57265  -0.56504  -0.56215  -0.56040  -0.55634
 Alpha  occ. eigenvalues --   -0.55362  -0.55212  -0.54728  -0.54351  -0.53991
 Alpha  occ. eigenvalues --   -0.53526  -0.52653  -0.52476  -0.52370  -0.51957
 Alpha  occ. eigenvalues --   -0.51624  -0.51491  -0.51098  -0.50907  -0.50624
 Alpha  occ. eigenvalues --   -0.50068  -0.49661  -0.49119  -0.48676  -0.48490
 Alpha  occ. eigenvalues --   -0.48158  -0.47845  -0.47201  -0.47155  -0.46502
 Alpha  occ. eigenvalues --   -0.46077  -0.45949  -0.45862  -0.44901  -0.44584
 Alpha  occ. eigenvalues --   -0.44326  -0.43907  -0.43568  -0.42846  -0.41103
 Alpha  occ. eigenvalues --   -0.40945  -0.40851  -0.40050  -0.39615  -0.39296
 Alpha  occ. eigenvalues --   -0.38828  -0.37931  -0.37043  -0.36520  -0.36339
 Alpha  occ. eigenvalues --   -0.35640  -0.35093  -0.35078  -0.34708  -0.34639
 Alpha  occ. eigenvalues --   -0.33936  -0.31841
 Alpha virt. eigenvalues --   -0.12530  -0.10595  -0.10395  -0.09613  -0.08387
 Alpha virt. eigenvalues --   -0.07425  -0.07209  -0.05947  -0.04612  -0.02504
 Alpha virt. eigenvalues --   -0.02103  -0.01325  -0.01133  -0.00412  -0.00222

 Mulliken charges:
               1
     1  N   -0.755457
     2  H    0.404635
     3  H    0.428429
     4  H    0.402503
     5  C   -0.103231
     6  H    0.218050
     7  C    0.663571
     8  C   -0.405391
     9  H    0.186200
    10  H    0.219212
    11  O   -0.564645
    12  C    0.116729
    13  C   -0.182433
    14  H    0.141032
    15  C   -0.217573
    16  H    0.157963
    17  C   -0.126291
    18  H    0.160948
    19  C   -0.126251
    20  H    0.158668
    21  C   -0.124688
    22  H    0.161873
    23  N   -0.583242
    24  H    0.370054
    25  C   -0.097689
    26  H    0.183134
    27  C    0.625967
    28  C   -0.266916
    29  H    0.164038
    30  H    0.148810
    31  O   -0.540276
    32  C   -0.070497
    33  H    0.127450
    34  C   -0.445228
    35  H    0.148166
    36  H    0.155356
    37  H    0.152008
    38  C   -0.465064
    39  H    0.140625
    40  H    0.141874
    41  H    0.158272
    42  N   -0.669550
    43  H    0.429096
    44  C   -0.064349
    45  H    0.202726
    46  C    0.626902
    47  C   -0.367728
    48  H    0.198085
    49  H    0.201974
    50  O   -0.547658
    51  C    0.598081
    52  N   -0.700236
    53  H    0.338612
    54  H    0.408021
    55  O   -0.589023
    56  N   -0.562258
    57  H    0.352638
    58  C   -0.063746
    59  H    0.213587
    60  C    0.593171
    61  C   -0.295347
    62  H    0.178307
    63  H    0.159229
    64  O   -0.452439
    65  C   -0.266387
    66  H    0.149726
    67  H    0.143964
    68  C   -0.145729
    69  H    0.158812
    70  H    0.195574
    71  N   -0.593629
    72  H    0.323764
    73  N   -0.783437
    74  H    0.372260
    75  H    0.331299
    76  N   -0.779942
    77  H    0.303083
    78  C    0.674433
    79  O   -0.559385
    80  H    0.426803
 Sum of Mulliken charges =   1.00000

 Dipole moment (field-independent basis, Debye):
    X=            -10.3708    Y=             -0.5413    Z=              2.8582  Tot=             10.7710
 Quadrupole moment (field-independent basis, Debye-Ang):
   XX=           -155.8537   YY=           -221.9202   ZZ=           -138.4899
   XY=            -10.0718   XZ=            -45.3760   YZ=              9.6092

 Normal termination of Gaussian 16 at Fri Jun 17 23:20:08 2022.
