 Gaussian 16, Revision C.01,
 Gaussian 16:  ES64L-G16RevC.01  3-Jul-2019

 ----------------------------------------------------------------------
 # B3LYP/6-31G* empiricaldispersion=gd3 guess=read geom=check nosymm in
 tegral(ultrafinegrid)
 ----------------------------------------------------------------------

 ------------------------------------------------------
 Candidate Structure: Conf:472 Charge calc in gas phase
 ------------------------------------------------------
 Structure from the checkpoint file:  "conf-472.chk"
 Charge =  1 Multiplicity = 1

                          Input orientation:
 ---------------------------------------------------------------------
 Center     Atomic      Atomic             Coordinates (Angstroms)
 Number     Number       Type             X           Y           Z
 ---------------------------------------------------------------------
      1          7           0       -4.158774    1.233861    3.965430
      2          1           0       -5.149444    0.978443    3.945670
      3          1           0       -3.588518    0.348933    3.939407
      4          1           0       -3.974310    1.803023    4.804352
      5          6           0       -3.707516    1.945162    2.708712
      6          1           0       -4.547553    2.496437    2.286446
      7          6           0       -3.206215    0.797828    1.810507
      8          6           0       -2.550209    2.907837    3.058121
      9          1           0       -2.285167    3.415726    2.129701
     10          1           0       -1.681535    2.317267    3.371127
     11          8           0       -2.843296   -0.247698    2.373270
     12          6           0       -2.968812    3.898667    4.118590
     13          6           0       -3.787694    4.984796    3.774547
     14          1           0       -4.049336    5.138087    2.729612
     15          6           0       -2.618261    3.709008    5.464053
     16          1           0       -1.945125    2.897166    5.737116
     17          6           0       -4.243326    5.862911    4.756082
     18          1           0       -4.867689    6.707381    4.478425
     19          6           0       -3.080188    4.588556    6.449838
     20          1           0       -2.791492    4.438561    7.486091
     21          6           0       -3.894779    5.663663    6.096495
     22          1           0       -4.250398    6.350555    6.858673
     23          7           0       -3.155048    1.061250    0.509150
     24          1           0       -3.374373    2.040632    0.214768
     25          6           0       -2.333832    0.238520   -0.375143
     26          1           0       -2.647505   -0.805082   -0.279208
     27          6           0       -0.863159    0.385475    0.052624
     28          6           0       -2.521061    0.738783   -1.824431
     29          1           0       -3.595583    0.690951   -2.047822
     30          1           0       -2.243756    1.800626   -1.847306
     31          8           0       -0.448953    1.436482    0.563402
     32          6           0       -1.738045   -0.007675   -2.920937
     33          1           0       -0.666715    0.062759   -2.697484
     34          6           0       -2.125178   -1.491416   -3.012344
     35          1           0       -3.204222   -1.605264   -3.180232
     36          1           0       -1.607329   -1.970478   -3.850274
     37          1           0       -1.864816   -2.061018   -2.113075
     38          6           0       -1.976286    0.695025   -4.266140
     39          1           0       -3.035308    0.655713   -4.552767
     40          1           0       -1.677771    1.749677   -4.223542
     41          1           0       -1.396478    0.215948   -5.062147
     42          7           0       -0.066226   -0.650704   -0.237456
     43          1           0       -0.449681   -1.561957   -0.488070
     44          6           0        1.379203   -0.598258   -0.080933
     45          1           0        1.632939   -0.488983    0.981553
     46          6           0        1.948968    0.584159   -0.907894
     47          6           0        2.009840   -1.885830   -0.657375
     48          1           0        1.882136   -1.849230   -1.745174
     49          1           0        3.083891   -1.867610   -0.446988
     50          8           0        1.730771    0.652200   -2.113604
     51          6           0        1.347570   -3.172980   -0.173828
     52          7           0        2.157154   -4.091644    0.406061
     53          1           0        1.758036   -4.985554    0.661384
     54          1           0        3.159330   -3.984824    0.450663
     55          8           0        0.138122   -3.363949   -0.317784
     56          7           0        2.732276    1.450983   -0.225858
     57          1           0        2.740614    1.431692    0.787757
     58          6           0        3.315024    2.645852   -0.825806
     59          1           0        4.047286    2.353623   -1.587117
     60          6           0        4.047511    3.378720    0.288749
     61          6           0        2.270425    3.577526   -1.499448
     62          1           0        1.874353    3.018200   -2.350125
     63          1           0        2.799052    4.451668   -1.892994
     64          8           0        3.940408    3.121668    1.469911
     65          6           0        1.130888    3.970757   -0.547832
     66          1           0        0.953462    3.140245    0.138369
     67          1           0        1.405064    4.836587    0.066819
     68          6           0       -0.186917    4.248415   -1.284300
     69          1           0       -0.175549    5.255714   -1.713158
     70          1           0       -0.299411    3.545432   -2.123677
     71          7           0       -1.310673    4.100587   -0.350116
     72          1           0       -1.247755    3.214203    0.152506
     73          7           0       -2.772677    5.485887   -1.536951
     74          1           0       -3.695665    5.893071   -1.592697
     75          1           0       -2.024670    6.156547   -1.647728
     76          7           0       -3.585747    3.814203   -0.057619
     77          1           0       -4.488836    4.217074   -0.302858
     78          6           0       -2.602098    4.460796   -0.632745
     79          8           0        4.806034    4.377124   -0.195604
     80          1           0        5.226246    4.819031    0.566776
 ---------------------------------------------------------------------

 SCF Done:  E(RB3LYP) =  -1866.72902660     A.U. after    1 cycles

 Alpha  occ. eigenvalues --  -19.28376 -19.23756 -19.22987 -19.21124 -19.20392
 Alpha  occ. eigenvalues --  -19.19785 -14.57603 -14.45235 -14.44732 -14.44577
 Alpha  occ. eigenvalues --  -14.44362 -14.44300 -14.42880 -14.38707 -10.40872
 Alpha  occ. eigenvalues --  -10.40149 -10.38438 -10.38243 -10.37718 -10.37597
 Alpha  occ. eigenvalues --  -10.37082 -10.33000 -10.32325 -10.32179 -10.30904
 Alpha  occ. eigenvalues --  -10.30417 -10.30387 -10.29481 -10.29040 -10.29022
 Alpha  occ. eigenvalues --  -10.28944 -10.28882 -10.28653 -10.26755 -10.26516
 Alpha  occ. eigenvalues --  -10.25890 -10.25399 -10.23651 -10.23464  -1.19444
 Alpha  occ. eigenvalues --   -1.16188  -1.13028  -1.12117  -1.11671  -1.11334
 Alpha  occ. eigenvalues --   -1.10525  -1.07140  -1.02852  -1.01400  -1.00974
 Alpha  occ. eigenvalues --   -0.99353  -0.97792  -0.96014  -0.93781  -0.91120
 Alpha  occ. eigenvalues --   -0.89074  -0.88048  -0.86633  -0.85132  -0.84432
 Alpha  occ. eigenvalues --   -0.82810  -0.82151  -0.77353  -0.76944  -0.75521
 Alpha  occ. eigenvalues --   -0.74544  -0.72940  -0.71706  -0.71297  -0.70952
 Alpha  occ. eigenvalues --   -0.70092  -0.69561  -0.69393  -0.68703  -0.68310
 Alpha  occ. eigenvalues --   -0.67756  -0.66754  -0.64806  -0.63410  -0.63076
 Alpha  occ. eigenvalues --   -0.62852  -0.62296  -0.61274  -0.61001  -0.60577
 Alpha  occ. eigenvalues --   -0.60299  -0.59289  -0.58617  -0.57662  -0.57375
 Alpha  occ. eigenvalues --   -0.56581  -0.56421  -0.55860  -0.55729  -0.55100
 Alpha  occ. eigenvalues --   -0.54229  -0.54212  -0.53751  -0.53294  -0.52623
 Alpha  occ. eigenvalues --   -0.52186  -0.51937  -0.51768  -0.51559  -0.50856
 Alpha  occ. eigenvalues --   -0.50572  -0.50308  -0.50287  -0.49539  -0.49302
 Alpha  occ. eigenvalues --   -0.49011  -0.48641  -0.48342  -0.48291  -0.47994
 Alpha  occ. eigenvalues --   -0.46925  -0.46158  -0.46108  -0.45578  -0.45369
 Alpha  occ. eigenvalues --   -0.45105  -0.44572  -0.44158  -0.44053  -0.43974
 Alpha  occ. eigenvalues --   -0.42950  -0.42810  -0.42445  -0.41436  -0.40491
 Alpha  occ. eigenvalues --   -0.39924  -0.39344  -0.39160  -0.38415  -0.37581
 Alpha  occ. eigenvalues --   -0.36556  -0.36480  -0.35940  -0.35330  -0.35287
 Alpha  occ. eigenvalues --   -0.34976  -0.34856  -0.34614  -0.34375  -0.33781
 Alpha  occ. eigenvalues --   -0.32584  -0.31590
 Alpha virt. eigenvalues --   -0.11357  -0.10897  -0.08759  -0.08017  -0.07786
 Alpha virt. eigenvalues --   -0.07306  -0.06802  -0.05102  -0.04785  -0.02403
 Alpha virt. eigenvalues --   -0.01840  -0.01051  -0.00615  -0.00197   0.00353

 Mulliken charges:
               1
     1  N   -0.748828
     2  H    0.409798
     3  H    0.419093
     4  H    0.400542
     5  C   -0.114170
     6  H    0.211855
     7  C    0.650679
     8  C   -0.383198
     9  H    0.232819
    10  H    0.187202
    11  O   -0.556691
    12  C    0.132146
    13  C   -0.181186
    14  H    0.150617
    15  C   -0.230933
    16  H    0.145417
    17  C   -0.125268
    18  H    0.157150
    19  C   -0.122774
    20  H    0.159962
    21  C   -0.125696
    22  H    0.161315
    23  N   -0.639931
    24  H    0.424899
    25  C   -0.066684
    26  H    0.186141
    27  C    0.650486
    28  C   -0.293697
    29  H    0.153355
    30  H    0.152149
    31  O   -0.569481
    32  C   -0.106994
    33  H    0.176043
    34  C   -0.463547
    35  H    0.143485
    36  H    0.159389
    37  H    0.148907
    38  C   -0.443587
    39  H    0.141947
    40  H    0.140150
    41  H    0.157295
    42  N   -0.619904
    43  H    0.405077
    44  C   -0.022791
    45  H    0.161613
    46  C    0.644346
    47  C   -0.406850
    48  H    0.222559
    49  H    0.162686
    50  O   -0.525753
    51  C    0.618659
    52  N   -0.739516
    53  H    0.360366
    54  H    0.353017
    55  O   -0.522831
    56  N   -0.624408
    57  H    0.359294
    58  C   -0.021338
    59  H    0.198507
    60  C    0.585465
    61  C   -0.299120
    62  H    0.195113
    63  H    0.168118
    64  O   -0.468917
    65  C   -0.311646
    66  H    0.193715
    67  H    0.150505
    68  C   -0.135280
    69  H    0.144192
    70  H    0.166507
    71  N   -0.644165
    72  H    0.379493
    73  N   -0.748593
    74  H    0.341068
    75  H    0.347492
    76  N   -0.772279
    77  H    0.282224
    78  C    0.677243
    79  O   -0.560185
    80  H    0.426142
 Sum of Mulliken charges =   1.00000

 Dipole moment (field-independent basis, Debye):
    X=             -8.8031    Y=             10.9654    Z=             10.3272  Tot=             17.4467
 Quadrupole moment (field-independent basis, Debye-Ang):
   XX=           -130.2979   YY=           -137.8644   ZZ=           -167.6856
   XY=            -49.3225   XZ=            -45.0165   YZ=             16.4304

 Normal termination of Gaussian 16 at Fri Jun 17 23:19:36 2022.
