 Gaussian 16, Revision C.01,
 Gaussian 16:  ES64L-G16RevC.01  3-Jul-2019

 -------------------------------------------------------------------
 # B3LYP/6-31G* guess=read geom=check nosymm integral(ultrafinegrid)
 -------------------------------------------------------------------

 ------------------------------------------------------
 Candidate Structure: Conf:535 Charge calc in gas phase
 ------------------------------------------------------
 Structure from the checkpoint file:  "conf-535.chk"
 Charge =  1 Multiplicity = 1

                          Input orientation:
 ---------------------------------------------------------------------
 Center     Atomic      Atomic             Coordinates (Angstroms)
 Number     Number       Type             X           Y           Z
 ---------------------------------------------------------------------
      1          7           0       -6.879812    3.483582  -13.357238
      2          1           0       -7.102439    4.181631  -12.645505
      3          1           0       -5.174191    2.987084  -13.398093
      4          1           0       -7.357930    3.728390  -14.221044
      5          6           0       -7.326418    2.171816  -12.856162
      6          1           0       -8.394399    1.994945  -13.062726
      7          6           0       -7.201096    2.227831  -11.315967
      8          6           0       -6.511228    1.054254  -13.539746
      9          1           0       -6.885632    0.058869  -13.286590
     10          1           0       -6.637911    1.160641  -14.625811
     11          8           0       -7.298074    3.305859  -10.729136
     12          6           0       -5.007128    1.089034  -13.229887
     13          8           0       -4.369813    0.086248  -13.000055
     14          8           0       -4.450783    2.308078  -13.249811
     15          7           0       -7.023699    1.053763  -10.669877
     16          1           0       -6.892289    0.176121  -11.159624
     17          6           0       -6.855909    0.986775   -9.226764
     18          1           0       -6.278750    1.860567   -8.907992
     19          6           0       -6.099583   -0.311307   -8.929854
     20          6           0       -8.229967    0.997564   -8.487384
     21          1           0       -8.837152    0.186727   -8.904108
     22          1           0       -8.714777    1.945359   -8.743982
     23          8           0       -6.330260   -1.335840   -9.574160
     24          6           0       -8.094349    0.837476   -6.989877
     25          6           0       -8.295324   -0.409191   -6.378342
     26          1           0       -8.628043   -1.250335   -6.982140
     27          6           0       -7.683236    1.904463   -6.180549
     28          1           0       -7.539639    2.889275   -6.619954
     29          6           0       -8.066289   -0.599606   -5.018268
     30          1           0       -8.226402   -1.565955   -4.549886
     31          6           0       -7.444041    1.729273   -4.817328
     32          1           0       -7.114672    2.569704   -4.209032
     33          8           0       -7.366214    0.223418   -2.911456
     34          1           0       -7.077840    1.046477   -2.486939
     35          6           0       -7.618728    0.469845   -4.237668
     36          7           0       -5.209647   -0.257462   -7.911511
     37          1           0       -5.136460    0.568337   -7.326371
     38          6           0       -4.651447   -1.471010   -7.345783
     39          1           0       -5.417638   -2.252879   -7.393115
     40          6           0       -4.323238   -1.161122   -5.880324
     41          6           0       -3.407777   -1.978700   -8.142825
     42          1           0       -2.538148   -1.359703   -7.892873
     43          1           0       -3.636957   -1.800142   -9.197606
     44          8           0       -4.245280    0.006377   -5.474554
     45          6           0       -3.114324   -3.447603   -7.927319
     46          6           0       -2.049358   -3.892225   -7.129252
     47          1           0       -1.392561   -3.164842   -6.657208
     48          6           0       -3.931471   -4.416469   -8.530050
     49          1           0       -4.756982   -4.096056   -9.161874
     50          6           0       -1.803016   -5.249713   -6.932667
     51          1           0       -0.974211   -5.588906   -6.319544
     52          6           0       -3.697488   -5.777006   -8.343421
     53          1           0       -4.339122   -6.511309   -8.827225
     54          8           0       -2.345173   -7.516219   -7.320510
     55          1           0       -2.969056   -8.065689   -7.820305
     56          6           0       -2.629029   -6.199189   -7.542911
     57          7           0       -4.127680   -2.225639   -5.069281
     58          1           0       -4.073716   -3.151633   -5.477555
     59          6           0       -3.900881   -2.080803   -3.625900
     60          1           0       -4.488399   -1.211544   -3.314097
     61          6           0       -2.407038   -1.784022   -3.356636
     62          6           0       -4.392136   -3.334098   -2.886858
     63          1           0       -5.369127   -3.596515   -3.311544
     64          1           0       -3.704588   -4.160047   -3.095594
     65          8           0       -1.628385   -2.633483   -2.912205
     66          6           0       -4.530444   -3.140735   -1.388840
     67          6           0       -3.686730   -3.812587   -0.496600
     68          1           0       -2.903749   -4.456005   -0.888070
     69          6           0       -5.530362   -2.303567   -0.871077
     70          1           0       -6.200783   -1.775907   -1.547123
     71          6           0       -3.845126   -3.664140    0.883155
     72          1           0       -3.195156   -4.211082    1.561220
     73          6           0       -5.682149   -2.145668    0.506817
     74          1           0       -6.466364   -1.498947    0.891619
     75          6           0       -4.842365   -2.828719    1.389528
     76          1           0       -4.971092   -2.718095    2.462959
     77          7           0       -2.028680   -0.523789   -3.682078
     78          1           0       -2.724189    0.058108   -4.149070
     79          6           0       -0.619741   -0.123265   -3.772334
     80          1           0       -0.054872   -1.004661   -4.102887
     81          6           0       -0.066766    0.275757   -2.384192
     82          6           0       -0.462589    1.013774   -4.777381
     83          1           0        0.591716    1.278474   -4.889543
     84          1           0       -0.854961    0.712450   -5.753541
     85          1           0       -0.991145    1.908982   -4.437976
     86          8           0        0.243360    1.442193   -2.114728
     87          7           0        0.069900   -0.751166   -1.513177
     88          1           0       -0.290123   -1.661364   -1.805848
     89          6           0        0.414845   -0.542040   -0.101400
     90          1           0       -0.047490    0.405628    0.199884
     91          6           0        1.948213   -0.374826    0.047280
     92          6           0       -0.109291   -1.700269    0.753918
     93          1           0       -1.132317   -1.933514    0.431641
     94          1           0        0.510498   -2.579841    0.546598
     95          8           0        2.666740   -1.234633    0.567924
     96          6           0       -0.107039   -1.424453    2.272839
     97          1           0        0.880058   -1.024212    2.541087
     98          6           0       -1.180459   -0.401958    2.678952
     99          1           0       -2.183587   -0.774253    2.435063
    100          1           0       -1.148976   -0.211195    3.758223
    101          1           0       -1.053735    0.563142    2.174319
    102          6           0       -0.294476   -2.738249    3.045587
    103          1           0       -1.253498   -3.208040    2.792981
    104          1           0       -0.286550   -2.563994    4.128071
    105          1           0        0.503100   -3.452549    2.811912
    106          7           0        2.433972    0.796462   -0.434680
    107          1           0        1.777134    1.383508   -0.955440
    108          6           0        3.871629    1.026013   -0.607884
    109          1           0        4.329356    0.057016   -0.845426
    110          6           0        4.500888    1.514815    0.714867
    111          6           0        4.114956    2.021285   -1.738116
    112          1           0        5.186906    2.164657   -1.896064
    113          1           0        3.682568    2.996987   -1.499250
    114          1           0        3.668204    1.650608   -2.665430
    115          8           0        4.953948    2.657866    0.851457
    116          7           0        4.531794    0.595127    1.711291
    117          1           0        4.074805   -0.311832    1.577908
    118          6           0        5.068227    0.977101    2.995264
    119          1           0        6.005063    1.512592    2.806878
    120          6           0        5.406519   -0.266394    3.818068
    121          6           0        4.127473    1.963020    3.797347
    122          1           0        3.668645    1.457840    4.653666
    123          1           0        3.311145    2.241242    3.123356
    124          8           0        5.016031   -1.389322    3.553943
    125          6           0        4.859039    3.172785    4.277656
    126          6           0        5.182433    3.639050    5.528311
    127          1           0        4.914262    3.217932    6.485209
    128          7           0        5.458580    4.059450    3.399324
    129          1           0        5.414373    3.948971    2.385990
    130          6           0        6.109704    4.995769    4.137216
    131          1           0        6.670501    5.808892    3.698085
    132          7           0        5.965498    4.771707    5.432692
    133          7           0        6.244453    0.013834    4.894944
    134          1           0        6.175938    0.972902    5.246326
    135          6           0        6.417888   -0.938312    5.996344
    136          1           0        5.576087   -1.642400    6.009338
    137          6           0        6.377753   -0.083737    7.292202
    138          6           0        7.732562   -1.745528    5.783739
    139          1           0        8.099134   -2.133914    6.738773
    140          8           0        5.914938    1.059251    7.232960
    141          6           0        7.578118   -2.905574    4.805048
    142          1           0        6.856208   -3.635222    5.187258
    143          1           0        7.213037   -2.566195    3.832732
    144          1           0        8.538995   -3.416216    4.677857
    145          8           0        8.758290   -0.826049    5.335366
    146          1           0        8.273099   -0.194749    4.758592
    147          7           0        6.848161   -0.604319    8.443290
    148          1           0        7.238138   -1.536047    8.466594
    149          6           0        6.920456    0.197103    9.685980
    150          1           0        6.055137    0.866968    9.661786
    151          6           0        8.228804    1.044537    9.617582
    152          6           0        6.849772   -0.691270   10.940204
    153          1           0        7.775361   -1.282137   10.977492
    154          8           0        9.228659    0.755907   10.270968
    155          6           0        6.802003    0.183422   12.203935
    156          1           0        5.905755    0.816870   12.209113
    157          1           0        7.684518    0.821880   12.283366
    158          1           0        6.763130   -0.449789   13.096321
    159          6           0        5.639546   -1.638299   10.901949
    160          1           0        4.699724   -1.075102   10.848153
    161          1           0        5.610665   -2.244268   11.813339
    162          1           0        5.660066   -2.328539   10.051083
    163          7           0        8.160711    2.059688    8.721461
    164          1           0        7.268930    2.236029    8.269112
    165          6           0        9.243631    2.973895    8.368856
    166          1           0        9.721552    3.339303    9.287347
    167          6           0        8.661526    4.189185    7.603524
    168          6           0       10.317677    2.348165    7.445649
    169          1           0        9.783718    1.886616    6.602718
    170          1           0       10.897964    3.177871    7.029072
    171          8           0        9.367184    4.940777    6.965392
    172          6           0       11.268999    1.339457    8.103112
    173          1           0       10.726495    0.539703    8.612496
    174          1           0       11.852433    1.839258    8.884603
    175          6           0       12.260169    0.732083    7.107046
    176          1           0       12.989634    0.112704    7.644729
    177          1           0       12.801144    1.524455    6.571694
    178          7           0       11.549464   -0.107574    6.126063
    179          1           0       10.536533   -0.198745    6.201885
    180          7           0       13.450614   -0.722424    4.937673
    181          1           0       13.870760   -1.037350    4.075615
    182          1           0       14.041056   -0.206811    5.572790
    183          7           0       11.340617   -1.370681    4.204158
    184          1           0       11.742488   -2.015640    3.539943
    185          1           0       10.331980   -1.395967    4.373152
    186          6           0       12.114182   -0.730505    5.095671
    187          8           0        7.333884    4.268597    7.684726
    188          1           0        6.955234    4.817847    6.926160
 ---------------------------------------------------------------------

 SCF Done:  E(RB3LYP) =  -4648.52788904     A.U. after    1 cycles

 Alpha  occ. eigenvalues --  -19.28768 -19.24257 -19.22715 -19.22710 -19.22304
 Alpha  occ. eigenvalues --  -19.22059 -19.19708 -19.19295 -19.19203 -19.18759
 Alpha  occ. eigenvalues --  -19.18657 -19.18042 -19.17992 -19.17769 -19.16272
 Alpha  occ. eigenvalues --  -19.15969 -19.14114 -14.51741 -14.50551 -14.50273
 Alpha  occ. eigenvalues --  -14.47214 -14.46002 -14.45268 -14.43075 -14.42749
 Alpha  occ. eigenvalues --  -14.42482 -14.41487 -14.41391 -14.41234 -14.40420
 Alpha  occ. eigenvalues --  -14.40382 -14.39393 -14.37911 -10.47379 -10.40017
 Alpha  occ. eigenvalues --  -10.38921 -10.38354 -10.36528 -10.36468 -10.35666
 Alpha  occ. eigenvalues --  -10.35379 -10.34915 -10.34675 -10.34612 -10.34481
 Alpha  occ. eigenvalues --  -10.34350 -10.33220 -10.33214 -10.33035 -10.32020
 Alpha  occ. eigenvalues --  -10.31821 -10.31693 -10.31280 -10.29690 -10.29361
 Alpha  occ. eigenvalues --  -10.29311 -10.29302 -10.29166 -10.28870 -10.28708
 Alpha  occ. eigenvalues --  -10.28701 -10.28478 -10.28141 -10.28128 -10.27897
 Alpha  occ. eigenvalues --  -10.27826 -10.27745 -10.27134 -10.26614 -10.24952
 Alpha  occ. eigenvalues --  -10.24412 -10.24022 -10.23883 -10.23875 -10.23873
 Alpha  occ. eigenvalues --  -10.23792 -10.23660 -10.23610 -10.23597 -10.23409
 Alpha  occ. eigenvalues --  -10.23396 -10.23358 -10.23338 -10.23334 -10.23327
 Alpha  occ. eigenvalues --  -10.23302 -10.23228 -10.23149 -10.23098 -10.23087
 Alpha  occ. eigenvalues --  -10.23049 -10.22903 -10.22889 -10.22889 -10.22843
 Alpha  occ. eigenvalues --  -10.21882 -10.21729  -1.16126  -1.15801  -1.15619
 Alpha  occ. eigenvalues --   -1.14700  -1.13871  -1.11012  -1.10746  -1.10562
 Alpha  occ. eigenvalues --   -1.10441  -1.10121  -1.10117  -1.09801  -1.09345
 Alpha  occ. eigenvalues --   -1.08781  -1.08394  -1.08252  -1.07635  -1.07146
 Alpha  occ. eigenvalues --   -1.05051  -1.04108  -1.03125  -1.02202  -1.02080
 Alpha  occ. eigenvalues --   -0.99900  -0.99581  -0.99142  -0.98366  -0.98084
 Alpha  occ. eigenvalues --   -0.97300  -0.97169  -0.96825  -0.94434  -0.94026
 Alpha  occ. eigenvalues --   -0.90165  -0.89850  -0.89687  -0.89610  -0.89544
 Alpha  occ. eigenvalues --   -0.87907  -0.86679  -0.85950  -0.85080  -0.84853
 Alpha  occ. eigenvalues --   -0.83705  -0.83436  -0.82580  -0.82397  -0.82273
 Alpha  occ. eigenvalues --   -0.80489  -0.80410  -0.79319  -0.79125  -0.79094
 Alpha  occ. eigenvalues --   -0.79028  -0.78680  -0.78375  -0.77975  -0.77483
 Alpha  occ. eigenvalues --   -0.76769  -0.75970  -0.75312  -0.74733  -0.73190
 Alpha  occ. eigenvalues --   -0.72800  -0.72677  -0.71961  -0.71573  -0.71437
 Alpha  occ. eigenvalues --   -0.71338  -0.70942  -0.70397  -0.69788  -0.68979
 Alpha  occ. eigenvalues --   -0.68748  -0.68272  -0.68206  -0.67634  -0.66656
 Alpha  occ. eigenvalues --   -0.66522  -0.66480  -0.65984  -0.65886  -0.65787
 Alpha  occ. eigenvalues --   -0.65738  -0.64942  -0.64705  -0.64404  -0.64285
 Alpha  occ. eigenvalues --   -0.64061  -0.63901  -0.63638  -0.63388  -0.62967
 Alpha  occ. eigenvalues --   -0.62719  -0.62555  -0.62114  -0.61987  -0.61860
 Alpha  occ. eigenvalues --   -0.61188  -0.61119  -0.60927  -0.60450  -0.59954
 Alpha  occ. eigenvalues --   -0.59692  -0.59461  -0.58978  -0.58698  -0.58664
 Alpha  occ. eigenvalues --   -0.58442  -0.57940  -0.57905  -0.57737  -0.56863
 Alpha  occ. eigenvalues --   -0.56500  -0.56296  -0.55984  -0.55852  -0.55484
 Alpha  occ. eigenvalues --   -0.55315  -0.54897  -0.54876  -0.54496  -0.54330
 Alpha  occ. eigenvalues --   -0.54056  -0.53973  -0.53711  -0.53682  -0.53564
 Alpha  occ. eigenvalues --   -0.53442  -0.53229  -0.52582  -0.52282  -0.52145
 Alpha  occ. eigenvalues --   -0.51960  -0.51654  -0.51348  -0.51308  -0.51151
 Alpha  occ. eigenvalues --   -0.51061  -0.50908  -0.50681  -0.50548  -0.50371
 Alpha  occ. eigenvalues --   -0.50333  -0.50119  -0.50088  -0.49849  -0.49603
 Alpha  occ. eigenvalues --   -0.49502  -0.49331  -0.49079  -0.48591  -0.48572
 Alpha  occ. eigenvalues --   -0.48394  -0.48310  -0.48113  -0.47929  -0.47869
 Alpha  occ. eigenvalues --   -0.47833  -0.47744  -0.47693  -0.47588  -0.47456
 Alpha  occ. eigenvalues --   -0.47371  -0.47019  -0.46955  -0.46736  -0.46666
 Alpha  occ. eigenvalues --   -0.46455  -0.46381  -0.46327  -0.46185  -0.46004
 Alpha  occ. eigenvalues --   -0.45797  -0.45644  -0.45623  -0.45499  -0.45301
 Alpha  occ. eigenvalues --   -0.45281  -0.45088  -0.45041  -0.44940  -0.44810
 Alpha  occ. eigenvalues --   -0.44777  -0.44735  -0.44635  -0.44529  -0.44182
 Alpha  occ. eigenvalues --   -0.43794  -0.43723  -0.43637  -0.43547  -0.43424
 Alpha  occ. eigenvalues --   -0.43270  -0.43146  -0.43031  -0.42993  -0.42874
 Alpha  occ. eigenvalues --   -0.42740  -0.42669  -0.42399  -0.42387  -0.42152
 Alpha  occ. eigenvalues --   -0.41941  -0.41755  -0.41657  -0.41470  -0.41316
 Alpha  occ. eigenvalues --   -0.41293  -0.41051  -0.41018  -0.40826  -0.40422
 Alpha  occ. eigenvalues --   -0.40410  -0.40233  -0.39695  -0.39650  -0.39593
 Alpha  occ. eigenvalues --   -0.39570  -0.39126  -0.38604  -0.38382  -0.38002
 Alpha  occ. eigenvalues --   -0.37896  -0.37720  -0.37616  -0.37581  -0.37447
 Alpha  occ. eigenvalues --   -0.37366  -0.37085  -0.37055  -0.36919  -0.36855
 Alpha  occ. eigenvalues --   -0.36419  -0.35931  -0.35458  -0.34827  -0.34372
 Alpha  occ. eigenvalues --   -0.34281  -0.33877  -0.33780  -0.33162  -0.32854
 Alpha  occ. eigenvalues --   -0.32709  -0.32580  -0.32024  -0.32004  -0.31213
 Alpha  occ. eigenvalues --   -0.31108  -0.30806  -0.30528  -0.30071  -0.29921
 Alpha  occ. eigenvalues --   -0.29772  -0.29713  -0.29580  -0.29445  -0.29425
 Alpha  occ. eigenvalues --   -0.29160  -0.29004  -0.28384  -0.27845  -0.26121
 Alpha  occ. eigenvalues --   -0.25901
 Alpha virt. eigenvalues --   -0.11053  -0.09374  -0.08701  -0.07272  -0.05968
 Alpha virt. eigenvalues --   -0.05521  -0.05452  -0.05243  -0.04903  -0.04726
 Alpha virt. eigenvalues --   -0.04610  -0.04481  -0.04355  -0.04264  -0.03978

 Mulliken charges:
               1
     1  N   -0.771453
     2  H    0.353693
     3  H    0.446263
     4  H    0.322637
     5  C   -0.088645
     6  H    0.170168
     7  C    0.635978
     8  C   -0.400474
     9  H    0.175815
    10  H    0.178719
    11  O   -0.539766
    12  C    0.596118
    13  O   -0.466339
    14  O   -0.590496
    15  N   -0.624140
    16  H    0.365054
    17  C   -0.019986
    18  H    0.175083
    19  C    0.616864
    20  C   -0.355010
    21  H    0.159072
    22  H    0.180948
    23  O   -0.549346
    24  C    0.152452
    25  C   -0.191834
    26  H    0.140834
    27  C   -0.204865
    28  H    0.145242
    29  C   -0.165051
    30  H    0.141300
    31  C   -0.178133
    32  H    0.126841
    33  O   -0.649620
    34  H    0.411834
    35  C    0.356956
    36  N   -0.611905
    37  H    0.362031
    38  C   -0.037980
    39  H    0.182452
    40  C    0.626145
    41  C   -0.356469
    42  H    0.151175
    43  H    0.207451
    44  O   -0.561908
    45  C    0.130498
    46  C   -0.207305
    47  H    0.130677
    48  C   -0.194585
    49  H    0.166075
    50  C   -0.158466
    51  H    0.147624
    52  C   -0.192530
    53  H    0.131192
    54  O   -0.638006
    55  H    0.411914
    56  C    0.351198
    57  N   -0.611873
    58  H    0.356456
    59  C   -0.060616
    60  H    0.193921
    61  C    0.635854
    62  C   -0.374925
    63  H    0.162693
    64  H    0.172783
    65  O   -0.549387
    66  C    0.156216
    67  C   -0.176832
    68  H    0.142171
    69  C   -0.200383
    70  H    0.157828
    71  C   -0.138513
    72  H    0.137162
    73  C   -0.134569
    74  H    0.134052
    75  C   -0.131771
    76  H    0.132739
    77  N   -0.614654
    78  H    0.381832
    79  C   -0.056109
    80  H    0.175140
    81  C    0.629705
    82  C   -0.465530
    83  H    0.167602
    84  H    0.159109
    85  H    0.178395
    86  O   -0.551313
    87  N   -0.628119
    88  H    0.385902
    89  C   -0.050872
    90  H    0.174275
    91  C    0.627131
    92  C   -0.292692
    93  H    0.157001
    94  H    0.161434
    95  O   -0.549089
    96  C   -0.072838
    97  H    0.130632
    98  C   -0.455294
    99  H    0.153172
   100  H    0.141451
   101  H    0.140711
   102  C   -0.453096
   103  H    0.145900
   104  H    0.137618
   105  H    0.150590
   106  N   -0.623002
   107  H    0.388993
   108  C   -0.053618
   109  H    0.175977
   110  C    0.632088
   111  C   -0.463236
   112  H    0.165148
   113  H    0.176482
   114  H    0.161593
   115  O   -0.559288
   116  N   -0.635808
   117  H    0.398730
   118  C   -0.025266
   119  H    0.179701
   120  C    0.577219
   121  C   -0.374324
   122  H    0.179258
   123  H    0.198747
   124  O   -0.479540
   125  C    0.282055
   126  C   -0.058032
   127  H    0.173683
   128  N   -0.605059
   129  H    0.388031
   130  C    0.231421
   131  H    0.182226
   132  N   -0.500645
   133  N   -0.679529
   134  H    0.382162
   135  C   -0.073784
   136  H    0.213364
   137  C    0.629192
   138  C    0.118897
   139  H    0.141403
   140  O   -0.538380
   141  C   -0.460536
   142  H    0.175779
   143  H    0.192560
   144  H    0.144572
   145  O   -0.668213
   146  H    0.426125
   147  N   -0.617959
   148  H    0.341614
   149  C   -0.048873
   150  H    0.187512
   151  C    0.623605
   152  C   -0.100925
   153  H    0.145641
   154  O   -0.534053
   155  C   -0.463416
   156  H    0.147508
   157  H    0.181499
   158  H    0.159209
   159  C   -0.448819
   160  H    0.155972
   161  H    0.166315
   162  H    0.126418
   163  N   -0.640599
   164  H    0.396202
   165  C   -0.043498
   166  H    0.197642
   167  C    0.595684
   168  C   -0.274104
   169  H    0.118994
   170  H    0.187627
   171  O   -0.466458
   172  C   -0.315469
   173  H    0.192904
   174  H    0.179024
   175  C   -0.155451
   176  H    0.179703
   177  H    0.175987
   178  N   -0.628809
   179  H    0.400279
   180  N   -0.763690
   181  H    0.378942
   182  H    0.389982
   183  N   -0.795718
   184  H    0.367564
   185  H    0.408872
   186  C    0.820940
   187  O   -0.603044
   188  H    0.451113
 Sum of Mulliken charges =   1.00000

 Dipole moment (field-independent basis, Debye):
    X=             34.5164    Y=             -6.5106    Z=             16.5154  Tot=             38.8140
 Quadrupole moment (field-independent basis, Debye-Ang):
   XX=             19.7220   YY=           -548.2800   ZZ=           -390.7810
   XY=            -58.2425   XZ=            291.7422   YZ=            -38.0743

 Normal termination of Gaussian 16 at Tue Aug  9 05:35:00 2022.
