 Gaussian 16, Revision C.01,
 Gaussian 16:  ES64L-G16RevC.01  3-Jul-2019

 -------------------------------------------------------------------
 # B3LYP/6-31G* guess=read geom=check nosymm integral(ultrafinegrid)
 -------------------------------------------------------------------

 -----------------------------------------------------
 Candidate Structure: Conf:18 Charge calc in gas phase
 -----------------------------------------------------
 Structure from the checkpoint file:  "conf-18.chk"
 Charge =  1 Multiplicity = 1

                          Input orientation:
 ---------------------------------------------------------------------
 Center     Atomic      Atomic             Coordinates (Angstroms)
 Number     Number       Type             X           Y           Z
 ---------------------------------------------------------------------
      1          7           0      -12.461525   -5.574314   -4.714962
      2          1           0      -13.410288   -5.459300   -4.353274
      3          1           0      -12.434726   -5.380106   -5.774600
      4          1           0      -12.134633   -6.519240   -4.502616
      5          6           0      -11.481803   -4.513189   -4.223911
      6          1           0      -11.986568   -3.881513   -3.490998
      7          6           0      -11.187141   -3.731031   -5.533482
      8          6           0      -10.235748   -5.150731   -3.599240
      9          1           0      -10.537237   -5.935555   -2.893215
     10          1           0       -9.610238   -5.604688   -4.374281
     11          8           0      -11.663644   -4.181905   -6.595427
     12          6           0       -9.346899   -4.125249   -2.792602
     13          8           0       -8.397901   -4.638825   -2.187680
     14          8           0       -9.713723   -2.911049   -2.847790
     15          7           0      -10.444322   -2.643784   -5.382425
     16          1           0      -10.065698   -2.545519   -4.401390
     17          6           0       -9.694266   -2.064877   -6.484043
     18          1           0      -10.327825   -2.063891   -7.377802
     19          6           0       -8.470617   -2.992176   -6.755661
     20          6           0       -9.317664   -0.607881   -6.092738
     21          1           0       -8.564191   -0.642814   -5.297254
     22          1           0      -10.218986   -0.177053   -5.640732
     23          8           0       -8.381743   -4.100225   -6.224369
     24          6           0       -8.847682    0.296365   -7.215698
     25          6           0       -7.522643    0.759932   -7.280469
     26          1           0       -6.801444    0.436605   -6.533185
     27          6           0       -9.738338    0.724941   -8.210509
     28          1           0      -10.774566    0.394546   -8.184707
     29          6           0       -7.099064    1.613781   -8.297506
     30          1           0       -6.074547    1.969182   -8.339801
     31          6           0       -9.330541    1.579493   -9.232258
     32          1           0      -10.042235    1.901451   -9.990422
     33          8           0       -7.543656    2.873460  -10.247475
     34          1           0       -8.267207    3.085560  -10.857629
     35          6           0       -8.005710    2.030759   -9.277673
     36          7           0       -7.527737   -2.509577   -7.597153
     37          1           0       -7.605149   -1.556630   -7.930611
     38          6           0       -6.238930   -3.187230   -7.771770
     39          1           0       -6.450040   -4.258612   -7.828714
     40          6           0       -5.361755   -2.887008   -6.531031
     41          6           0       -5.536992   -2.714451   -9.055703
     42          1           0       -4.577122   -3.241825   -9.108741
     43          1           0       -5.289465   -1.654057   -8.938435
     44          8           0       -4.647958   -1.886967   -6.472198
     45          6           0       -6.339928   -2.946868  -10.317132
     46          6           0       -7.018999   -1.896650  -10.950850
     47          1           0       -6.949320   -0.890913  -10.541640
     48          6           0       -6.437402   -4.222701  -10.886258
     49          1           0       -5.913500   -5.058127  -10.426475
     50          6           0       -7.773625   -2.104734  -12.102803
     51          1           0       -8.293491   -1.286897  -12.591969
     52          6           0       -7.188161   -4.449262  -12.038731
     53          1           0       -7.245276   -5.449374  -12.465586
     54          8           0       -8.614052   -3.541477  -13.784471
     55          1           0       -8.578618   -4.470396  -14.060617
     56          6           0       -7.861981   -3.387312  -12.650901
     57          7           0       -5.474893   -3.790661   -5.527118
     58          1           0       -6.245325   -4.448816   -5.575436
     59          6           0       -4.815289   -3.601989   -4.238785
     60          1           0       -5.182566   -2.678827   -3.770108
     61          6           0       -3.289874   -3.509091   -4.446015
     62          6           0       -5.150490   -4.808283   -3.328139
     63          1           0       -6.241238   -4.908655   -3.278649
     64          1           0       -4.736137   -5.700579   -3.812211
     65          8           0       -2.662001   -4.391308   -5.026407
     66          6           0       -4.608182   -4.668854   -1.919663
     67          6           0       -3.293541   -5.046753   -1.610020
     68          1           0       -2.661721   -5.462727   -2.391382
     69          6           0       -5.421475   -4.147241   -0.902751
     70          1           0       -6.457084   -3.901776   -1.128918
     71          6           0       -2.794679   -4.895279   -0.315380
     72          1           0       -1.775456   -5.201327   -0.090036
     73          6           0       -4.919696   -3.994738    0.391504
     74          1           0       -5.563551   -3.596177    1.171963
     75          6           0       -3.606318   -4.363709    0.689534
     76          1           0       -3.222067   -4.253287    1.701282
     77          7           0       -2.699096   -2.435634   -3.867281
     78          1           0       -3.245787   -1.694086   -3.448273
     79          6           0       -1.264284   -2.231230   -3.895643
     80          1           0       -0.793812   -3.219146   -3.854040
     81          6           0       -0.912259   -1.407184   -2.652566
     82          6           0       -0.805423   -1.510657   -5.177714
     83          1           0        0.285199   -1.399151   -5.197257
     84          1           0       -1.118402   -2.095982   -6.045955
     85          1           0       -1.263077   -0.518302   -5.238388
     86          8           0       -1.663447   -0.527864   -2.232398
     87          7           0        0.284653   -1.686638   -2.075406
     88          1           0        0.862380   -2.456012   -2.391920
     89          6           0        0.728518   -1.009175   -0.867827
     90          1           0        0.414717    0.035682   -0.945710
     91          6           0        2.255054   -1.123619   -0.836760
     92          6           0        0.088789   -1.655007    0.390735
     93          1           0       -0.984210   -1.742252    0.183483
     94          1           0        0.482594   -2.676622    0.472620
     95          8           0        2.833096   -2.118068   -1.273629
     96          6           0        0.281769   -0.914801    1.729248
     97          1           0        1.359120   -0.774000    1.904532
     98          6           0       -0.388751    0.468859    1.734090
     99          1           0       -1.461656    0.381651    1.524806
    100          1           0       -0.273989    0.953888    2.710907
    101          1           0        0.033614    1.146727    0.982998
    102          6           0       -0.266047   -1.779022    2.876168
    103          1           0       -1.339250   -1.965697    2.745260
    104          1           0       -0.130097   -1.284016    3.845463
    105          1           0        0.237628   -2.751881    2.919869
    106          7           0        2.922524   -0.079943   -0.278103
    107          1           0        2.433150    0.712995    0.120088
    108          6           0        4.357741   -0.114597   -0.069467
    109          1           0        4.636833   -1.145560    0.179864
    110          6           0        4.664373    0.806620    1.115247
    111          6           0        5.139414    0.310245   -1.329074
    112          1           0        6.221245    0.247973   -1.167294
    113          1           0        4.885167    1.336755   -1.612256
    114          1           0        4.872209   -0.360776   -2.148965
    115          8           0        3.865828    1.654672    1.513925
    116          7           0        5.890529    0.652622    1.684798
    117          1           0        6.519017   -0.098105    1.420554
    118          6           0        6.321509    1.486557    2.786408
    119          1           0        6.041677    2.523878    2.574148
    120          6           0        7.839966    1.318101    2.913796
    121          6           0        5.606173    1.038782    4.106725
    122          1           0        5.966950    0.036359    4.364809
    123          1           0        4.544329    0.960981    3.862354
    124          8           0        8.380281    0.243937    2.670975
    125          6           0        5.735555    1.950729    5.287126
    126          6           0        4.804113    2.762581    5.876483
    127          1           0        3.773440    2.951862    5.620646
    128          7           0        6.890200    2.086688    6.048215
    129          1           0        7.815619    1.635915    5.850170
    130          6           0        6.690659    2.934386    7.054419
    131          1           0        7.465824    3.215159    7.773525
    132          7           0        5.420417    3.358139    6.965343
    133          7           0        8.505032    2.394499    3.405885
    134          1           0        8.110619    3.325609    3.340876
    135          6           0        9.920103    2.343777    3.721311
    136          1           0       10.511791    2.151619    2.816055
    137          6           0       10.167554    1.236889    4.763092
    138          6           0       10.323207    3.719043    4.330212
    139          1           0        9.937738    3.757477    5.360704
    140          8           0        9.290480    0.924635    5.587607
    141          6           0       11.830293    3.959295    4.335957
    142          1           0       12.349568    3.255733    4.992719
    143          1           0       12.240162    3.888025    3.322525
    144          1           0       12.042639    4.966376    4.713594
    145          8           0        9.654258    4.692774    3.520734
    146          1           0        9.822875    5.569085    3.900253
    147          7           0       11.395890    0.703727    4.817406
    148          1           0       12.082861    0.976082    4.126254
    149          6           0       11.826492   -0.200535    5.903257
    150          1           0       10.921462   -0.733712    6.212756
    151          6           0       12.321995    0.662031    7.111407
    152          6           0       12.877118   -1.218485    5.417596
    153          1           0       13.822015   -0.677212    5.272965
    154          8           0       13.469509    0.587068    7.543330
    155          6           0       13.111082   -2.290995    6.495001
    156          1           0       12.192110   -2.861803    6.682348
    157          1           0       13.450383   -1.847507    7.432672
    158          1           0       13.875046   -2.999268    6.157391
    159          6           0       12.462442   -1.884149    4.094963
    160          1           0       11.502278   -2.404355    4.197737
    161          1           0       13.212983   -2.625720    3.802232
    162          1           0       12.363531   -1.175407    3.265675
    163          7           0       11.379049    1.503059    7.603599
    164          1           0       10.432633    1.488374    7.232225
    165          6           0       11.549369    2.384272    8.752639
    166          1           0       11.833970    1.782356    9.626210
    167          6           0       10.167215    3.043624    9.036841
    168          6           0       12.674751    3.431650    8.514643
    169          1           0       13.477661    2.903787    7.995789
    170          1           0       12.310629    4.218213    7.839117
    171          8           0        9.984194    3.562374   10.175986
    172          6           0       13.268607    4.038691    9.801218
    173          1           0       14.317441    4.308227    9.626726
    174          1           0       13.282790    3.263666   10.577733
    175          6           0       12.522897    5.276024   10.337065
    176          1           0       11.445946    5.176968   10.198330
    177          1           0       12.838812    6.184254    9.815860
    178          7           0       12.768352    5.512288   11.771494
    179          1           0       13.650817    5.941572   12.019065
    180          7           0       11.187799    3.959585   12.493456
    181          1           0       10.656314    3.581851   13.266042
    182          1           0       10.822063    3.730951   11.518817
    183          7           0       12.569784    5.036857   14.028175
    184          1           0       12.072251    4.600800   14.791038
    185          1           0       13.056560    5.891239   14.259631
    186          6           0       12.152627    4.828782   12.751190
    187          8           0        9.335982    3.038056    8.094960
    188          1           0        4.986032    4.005516    7.609591
 ---------------------------------------------------------------------

 SCF Done:  E(RB3LYP) =  -4648.46428475     A.U. after    3 cycles

 Alpha  occ. eigenvalues --  -19.25061 -19.22656 -19.21257 -19.20967 -19.19751
 Alpha  occ. eigenvalues --  -19.19490 -19.18073 -19.17816 -19.17331 -19.17219
 Alpha  occ. eigenvalues --  -19.16017 -19.14655 -19.13564 -19.12508 -19.11034
 Alpha  occ. eigenvalues --  -19.08888 -19.07994 -14.53143 -14.50622 -14.50489
 Alpha  occ. eigenvalues --  -14.49539 -14.49206 -14.47095 -14.46500 -14.45556
 Alpha  occ. eigenvalues --  -14.44069 -14.41518 -14.40864 -14.38652 -14.38448
 Alpha  occ. eigenvalues --  -14.38271 -14.36552 -14.35932 -10.45169 -10.39482
 Alpha  occ. eigenvalues --  -10.38236 -10.38112 -10.36417 -10.35286 -10.35239
 Alpha  occ. eigenvalues --  -10.34929 -10.34548 -10.34532 -10.33747 -10.33695
 Alpha  occ. eigenvalues --  -10.33189 -10.33118 -10.32138 -10.31610 -10.30840
 Alpha  occ. eigenvalues --  -10.30695 -10.30325 -10.30091 -10.29622 -10.29427
 Alpha  occ. eigenvalues --  -10.29370 -10.28422 -10.28223 -10.27579 -10.27411
 Alpha  occ. eigenvalues --  -10.27322 -10.26935 -10.26720 -10.26616 -10.26313
 Alpha  occ. eigenvalues --  -10.26108 -10.25209 -10.24534 -10.23866 -10.23799
 Alpha  occ. eigenvalues --  -10.23712 -10.22831 -10.22779 -10.22684 -10.22601
 Alpha  occ. eigenvalues --  -10.22548 -10.22374 -10.22150 -10.21701 -10.21624
 Alpha  occ. eigenvalues --  -10.21542 -10.20958 -10.20888 -10.20878 -10.20875
 Alpha  occ. eigenvalues --  -10.20829 -10.20803 -10.20743 -10.20291 -10.19199
 Alpha  occ. eigenvalues --  -10.19045 -10.18880 -10.18824 -10.18791 -10.18447
 Alpha  occ. eigenvalues --  -10.18362 -10.17465  -1.16700  -1.14706  -1.13642
 Alpha  occ. eigenvalues --   -1.13152  -1.12397  -1.11394  -1.10584  -1.09891
 Alpha  occ. eigenvalues --   -1.09636  -1.09038  -1.08053  -1.07720  -1.06503
 Alpha  occ. eigenvalues --   -1.05574  -1.04343  -1.04200  -1.03390  -1.03160
 Alpha  occ. eigenvalues --   -1.02828  -1.02425  -1.02132  -1.02050  -1.01845
 Alpha  occ. eigenvalues --   -1.00964  -1.00729  -0.98046  -0.97443  -0.96587
 Alpha  occ. eigenvalues --   -0.95111  -0.94937  -0.93354  -0.92970  -0.92568
 Alpha  occ. eigenvalues --   -0.91061  -0.88875  -0.88633  -0.87981  -0.87062
 Alpha  occ. eigenvalues --   -0.86786  -0.85727  -0.84947  -0.84479  -0.83394
 Alpha  occ. eigenvalues --   -0.82625  -0.82428  -0.81193  -0.81099  -0.80251
 Alpha  occ. eigenvalues --   -0.79557  -0.78864  -0.78370  -0.78097  -0.77981
 Alpha  occ. eigenvalues --   -0.76883  -0.76532  -0.76361  -0.76194  -0.75982
 Alpha  occ. eigenvalues --   -0.74726  -0.74338  -0.74056  -0.73692  -0.72571
 Alpha  occ. eigenvalues --   -0.72527  -0.71763  -0.71575  -0.71461  -0.71039
 Alpha  occ. eigenvalues --   -0.70972  -0.69431  -0.69083  -0.68754  -0.68630
 Alpha  occ. eigenvalues --   -0.68252  -0.67672  -0.67352  -0.67051  -0.66629
 Alpha  occ. eigenvalues --   -0.66406  -0.65446  -0.64960  -0.64549  -0.64452
 Alpha  occ. eigenvalues --   -0.64032  -0.63941  -0.63529  -0.63248  -0.62941
 Alpha  occ. eigenvalues --   -0.62819  -0.62680  -0.62454  -0.62025  -0.61765
 Alpha  occ. eigenvalues --   -0.61569  -0.61340  -0.60894  -0.60640  -0.60269
 Alpha  occ. eigenvalues --   -0.59915  -0.59724  -0.59513  -0.58852  -0.58501
 Alpha  occ. eigenvalues --   -0.58320  -0.58060  -0.57818  -0.57615  -0.57353
 Alpha  occ. eigenvalues --   -0.57348  -0.57209  -0.56732  -0.56436  -0.56254
 Alpha  occ. eigenvalues --   -0.56229  -0.56096  -0.55639  -0.54952  -0.54646
 Alpha  occ. eigenvalues --   -0.54535  -0.54116  -0.53940  -0.53471  -0.53331
 Alpha  occ. eigenvalues --   -0.53037  -0.53006  -0.52313  -0.52105  -0.51825
 Alpha  occ. eigenvalues --   -0.51639  -0.51523  -0.51137  -0.51003  -0.50879
 Alpha  occ. eigenvalues --   -0.50702  -0.50666  -0.50356  -0.50175  -0.50141
 Alpha  occ. eigenvalues --   -0.49864  -0.49736  -0.49607  -0.49407  -0.49261
 Alpha  occ. eigenvalues --   -0.49157  -0.48901  -0.48765  -0.48513  -0.48265
 Alpha  occ. eigenvalues --   -0.48186  -0.48082  -0.48016  -0.47753  -0.47577
 Alpha  occ. eigenvalues --   -0.47350  -0.47247  -0.47037  -0.46984  -0.46712
 Alpha  occ. eigenvalues --   -0.46494  -0.46446  -0.46264  -0.46097  -0.45909
 Alpha  occ. eigenvalues --   -0.45649  -0.45448  -0.45250  -0.45205  -0.45170
 Alpha  occ. eigenvalues --   -0.45063  -0.44796  -0.44676  -0.44591  -0.44360
 Alpha  occ. eigenvalues --   -0.44302  -0.44071  -0.44026  -0.43808  -0.43747
 Alpha  occ. eigenvalues --   -0.43725  -0.43551  -0.43339  -0.43195  -0.43067
 Alpha  occ. eigenvalues --   -0.42980  -0.42901  -0.42474  -0.42358  -0.42337
 Alpha  occ. eigenvalues --   -0.42203  -0.41949  -0.41865  -0.41642  -0.41519
 Alpha  occ. eigenvalues --   -0.41413  -0.41231  -0.41059  -0.40874  -0.40713
 Alpha  occ. eigenvalues --   -0.40675  -0.40251  -0.39998  -0.39918  -0.39830
 Alpha  occ. eigenvalues --   -0.39763  -0.39693  -0.39470  -0.39420  -0.39253
 Alpha  occ. eigenvalues --   -0.38876  -0.38718  -0.38525  -0.38112  -0.38046
 Alpha  occ. eigenvalues --   -0.37825  -0.37705  -0.37514  -0.37466  -0.37187
 Alpha  occ. eigenvalues --   -0.36768  -0.36639  -0.36589  -0.36508  -0.36398
 Alpha  occ. eigenvalues --   -0.36299  -0.36003  -0.35835  -0.35725  -0.35629
 Alpha  occ. eigenvalues --   -0.35587  -0.35486  -0.35296  -0.35234  -0.34577
 Alpha  occ. eigenvalues --   -0.34286  -0.33340  -0.33303  -0.33255  -0.33214
 Alpha  occ. eigenvalues --   -0.32897  -0.32506  -0.32452  -0.31948  -0.31099
 Alpha  occ. eigenvalues --   -0.30588  -0.30356  -0.30305  -0.30066  -0.29645
 Alpha  occ. eigenvalues --   -0.28492  -0.28321  -0.27772  -0.27603  -0.27000
 Alpha  occ. eigenvalues --   -0.26947  -0.25676  -0.24999  -0.24948  -0.24670
 Alpha  occ. eigenvalues --   -0.24304  -0.24195  -0.23794  -0.23587  -0.23430
 Alpha  occ. eigenvalues --   -0.22369
 Alpha virt. eigenvalues --   -0.11055  -0.09270  -0.08913  -0.08565  -0.07372
 Alpha virt. eigenvalues --   -0.06380  -0.05091  -0.04810  -0.03808  -0.03567
 Alpha virt. eigenvalues --   -0.03126  -0.02644  -0.02619  -0.02497  -0.02314

 Mulliken charges:
               1
     1  N   -0.767760
     2  H    0.392680
     3  H    0.420985
     4  H    0.398198
     5  C   -0.104328
     6  H    0.213112
     7  C    0.642547
     8  C   -0.407812
     9  H    0.149702
    10  H    0.196539
    11  O   -0.571905
    12  C    0.614078
    13  O   -0.537346
    14  O   -0.609157
    15  N   -0.602167
    16  H    0.412400
    17  C   -0.086144
    18  H    0.192132
    19  C    0.636502
    20  C   -0.374677
    21  H    0.181371
    22  H    0.176939
    23  O   -0.541249
    24  C    0.124002
    25  C   -0.221374
    26  H    0.168150
    27  C   -0.177052
    28  H    0.134786
    29  C   -0.158106
    30  H    0.156078
    31  C   -0.191554
    32  H    0.127618
    33  O   -0.637254
    34  H    0.410710
    35  C    0.351896
    36  N   -0.607625
    37  H    0.360964
    38  C   -0.048928
    39  H    0.170626
    40  C    0.639186
    41  C   -0.401288
    42  H    0.170173
    43  H    0.174081
    44  O   -0.550202
    45  C    0.185324
    46  C   -0.205589
    47  H    0.135516
    48  C   -0.186275
    49  H    0.129942
    50  C   -0.158409
    51  H    0.133810
    52  C   -0.192231
    53  H    0.119168
    54  O   -0.644268
    55  H    0.407179
    56  C    0.349401
    57  N   -0.615601
    58  H    0.361535
    59  C   -0.004794
    60  H    0.150568
    61  C    0.658703
    62  C   -0.420180
    63  H    0.202068
    64  H    0.162346
    65  O   -0.560857
    66  C    0.135722
    67  C   -0.181841
    68  H    0.139944
    69  C   -0.190858
    70  H    0.190618
    71  C   -0.138392
    72  H    0.111911
    73  C   -0.136911
    74  H    0.121517
    75  C   -0.133254
    76  H    0.110142
    77  N   -0.594953
    78  H    0.348816
    79  C   -0.034114
    80  H    0.164792
    81  C    0.625947
    82  C   -0.439472
    83  H    0.135071
    84  H    0.188669
    85  H    0.162789
    86  O   -0.546328
    87  N   -0.623109
    88  H    0.348213
    89  C   -0.045999
    90  H    0.172112
    91  C    0.618051
    92  C   -0.261722
    93  H    0.182879
    94  H    0.142870
    95  O   -0.542216
    96  C   -0.083812
    97  H    0.110153
    98  C   -0.444924
    99  H    0.166347
   100  H    0.131713
   101  H    0.136597
   102  C   -0.444943
   103  H    0.157749
   104  H    0.130405
   105  H    0.142995
   106  N   -0.618006
   107  H    0.357100
   108  C   -0.039800
   109  H    0.182144
   110  C    0.621300
   111  C   -0.445257
   112  H    0.144798
   113  H    0.162512
   114  H    0.198599
   115  O   -0.542482
   116  N   -0.625226
   117  H    0.360226
   118  C   -0.017872
   119  H    0.176207
   120  C    0.612163
   121  C   -0.364111
   122  H    0.196860
   123  H    0.211555
   124  O   -0.522535
   125  C    0.314541
   126  C   -0.012869
   127  H    0.218021
   128  N   -0.628207
   129  H    0.457758
   130  C    0.284030
   131  H    0.287620
   132  N   -0.558209
   133  N   -0.642338
   134  H    0.363751
   135  C   -0.029199
   136  H    0.177567
   137  C    0.674553
   138  C    0.101805
   139  H    0.165686
   140  O   -0.581609
   141  C   -0.484629
   142  H    0.170162
   143  H    0.170833
   144  H    0.157380
   145  O   -0.638743
   146  H    0.411283
   147  N   -0.598460
   148  H    0.347495
   149  C   -0.055651
   150  H    0.191451
   151  C    0.620490
   152  C   -0.098958
   153  H    0.147207
   154  O   -0.527988
   155  C   -0.462305
   156  H    0.140122
   157  H    0.183120
   158  H    0.155677
   159  C   -0.447360
   160  H    0.155989
   161  H    0.162658
   162  H    0.132578
   163  N   -0.664616
   164  H    0.389024
   165  C   -0.012034
   166  H    0.154004
   167  C    0.583840
   168  C   -0.289992
   169  H    0.193816
   170  H    0.131990
   171  O   -0.603126
   172  C   -0.274933
   173  H    0.152408
   174  H    0.156114
   175  C   -0.194508
   176  H    0.218696
   177  H    0.171682
   178  N   -0.592016
   179  H    0.351436
   180  N   -0.783249
   181  H    0.354283
   182  H    0.449122
   183  N   -0.765168
   184  H    0.369097
   185  H    0.369096
   186  C    0.797410
   187  O   -0.578770
   188  H    0.382908
 Sum of Mulliken charges =   1.00000

 Dipole moment (field-independent basis, Debye):
    X=             36.3560    Y=             19.9532    Z=             39.7008  Tot=             57.4112
 Quadrupole moment (field-independent basis, Debye-Ang):
   XX=            214.6362   YY=           -412.5632   ZZ=              6.1983
   XY=            323.1136   XZ=            585.0791   YZ=            253.6233

 Normal termination of Gaussian 16 at Tue Aug  9 05:36:55 2022.
