 Gaussian 16, Revision C.01,
 Gaussian 16:  ES64L-G16RevC.01  3-Jul-2019

 -------------------------------------------------------------------
 # B3LYP/6-31G* guess=read geom=check nosymm integral(ultrafinegrid)
 -------------------------------------------------------------------

 ------------------------------------------------------
 Candidate Structure: Conf:204 Charge calc in gas phase
 ------------------------------------------------------
 Structure from the checkpoint file:  "conf-204.chk"
 Charge =  1 Multiplicity = 1

                          Input orientation:
 ---------------------------------------------------------------------
 Center     Atomic      Atomic             Coordinates (Angstroms)
 Number     Number       Type             X           Y           Z
 ---------------------------------------------------------------------
      1          7           0        0.768889    7.522860   -5.615766
      2          1           0       -0.086610    7.969445   -5.292757
      3          1           0        1.679494    6.864436   -4.336284
      4          1           0        1.258429    8.163187   -6.236681
      5          6           0        0.483246    6.241618   -6.291910
      6          1           0        0.355834    6.373695   -7.374616
      7          6           0       -0.810689    5.642399   -5.718088
      8          6           0        1.666672    5.259165   -6.063984
      9          1           0        1.470499    4.294657   -6.538407
     10          1           0        2.571392    5.675847   -6.525399
     11          8           0       -1.157890    5.877125   -4.552572
     12          6           0        2.010861    5.006362   -4.597600
     13          8           0        2.262015    3.890503   -4.170247
     14          8           0        2.043635    6.078655   -3.811317
     15          7           0       -1.501215    4.847711   -6.563893
     16          1           0       -1.092114    4.595442   -7.457778
     17          6           0       -2.606840    3.994398   -6.135508
     18          1           0       -2.798346    4.235480   -5.088543
     19          6           0       -2.139298    2.538306   -6.301838
     20          6           0       -3.899825    4.245436   -6.951785
     21          1           0       -3.694870    4.019214   -8.004377
     22          1           0       -4.137208    5.313070   -6.882913
     23          8           0       -1.612021    2.176693   -7.353000
     24          6           0       -5.044532    3.398819   -6.434948
     25          6           0       -5.326964    2.141719   -6.991526
     26          1           0       -4.764143    1.802294   -7.858014
     27          6           0       -5.800215    3.813074   -5.330963
     28          1           0       -5.620268    4.791579   -4.889897
     29          6           0       -6.310752    1.316058   -6.455680
     30          1           0       -6.534303    0.348137   -6.893114
     31          6           0       -6.789726    2.997758   -4.781931
     32          1           0       -7.366106    3.340719   -3.924976
     33          8           0       -7.972506    0.876702   -4.835371
     34          1           0       -8.467844    1.312598   -4.124105
     35          6           0       -7.039626    1.738528   -5.337659
     36          7           0       -2.337543    1.744692   -5.226707
     37          1           0       -2.899403    2.080245   -4.453290
     38          6           0       -2.126988    0.302502   -5.239643
     39          1           0       -2.606000   -0.116878   -6.132066
     40          6           0       -2.819261   -0.217022   -3.968767
     41          6           0       -0.613800   -0.073996   -5.278399
     42          1           0       -0.184962    0.061374   -4.278519
     43          1           0       -0.133838    0.651209   -5.941127
     44          8           0       -2.970212    0.531624   -2.990586
     45          6           0       -0.366122   -1.474202   -5.793843
     46          6           0       -0.082802   -2.544730   -4.933793
     47          1           0       -0.027798   -2.369296   -3.862191
     48          6           0       -0.428272   -1.734643   -7.170541
     49          1           0       -0.637387   -0.918512   -7.858965
     50          6           0        0.134224   -3.830453   -5.421336
     51          1           0        0.357250   -4.657012   -4.754640
     52          6           0       -0.215525   -3.016314   -7.673952
     53          1           0       -0.261250   -3.195487   -8.746477
     54          8           0        0.293426   -5.347338   -7.221260
     55          1           0        0.226170   -5.385045   -8.188287
     56          6           0        0.069051   -4.071524   -6.798323
     57          7           0       -3.244871   -1.494324   -3.996632
     58          1           0       -3.044258   -2.059498   -4.813563
     59          6           0       -4.022897   -2.108240   -2.911842
     60          1           0       -4.186208   -1.311614   -2.183239
     61          6           0       -3.190592   -3.249111   -2.278760
     62          6           0       -5.377634   -2.623902   -3.443616
     63          1           0       -5.776136   -1.862023   -4.122405
     64          1           0       -5.189720   -3.532959   -4.025053
     65          8           0       -3.273362   -4.407106   -2.680652
     66          6           0       -6.385691   -2.893563   -2.343454
     67          6           0       -6.388320   -4.102971   -1.634061
     68          1           0       -5.664013   -4.870708   -1.889665
     69          6           0       -7.334214   -1.916237   -2.011143
     70          1           0       -7.360487   -0.986904   -2.577414
     71          6           0       -7.312837   -4.323133   -0.611822
     72          1           0       -7.306801   -5.268551   -0.075742
     73          6           0       -8.258464   -2.135658   -0.989115
     74          1           0       -8.992664   -1.370884   -0.748917
     75          6           0       -8.248148   -3.340158   -0.283652
     76          1           0       -8.970214   -3.515144    0.509226
     77          7           0       -2.349706   -2.859467   -1.290822
     78          1           0       -2.325611   -1.901350   -0.954379
     79          6           0       -1.514226   -3.789921   -0.548435
     80          1           0       -2.143447   -4.607773   -0.172530
     81          6           0       -0.934204   -2.995920    0.634725
     82          6           0       -0.389590   -4.394775   -1.412208
     83          1           0        0.169697   -5.158398   -0.860977
     84          1           0       -0.834305   -4.865920   -2.290959
     85          1           0        0.312542   -3.616755   -1.730281
     86          8           0       -1.082904   -1.770188    0.710097
     87          7           0       -0.228191   -3.699708    1.546716
     88          1           0       -0.095008   -4.693969    1.413819
     89          6           0        0.440143   -3.071868    2.699497
     90          1           0       -0.183091   -2.214149    2.968625
     91          6           0        1.837905   -2.542888    2.270579
     92          6           0        0.532408   -4.068241    3.859566
     93          1           0       -0.444436   -4.561393    3.960261
     94          1           0        1.267761   -4.837125    3.592256
     95          8           0        2.886527   -3.010508    2.702534
     96          6           0        0.928464   -3.457680    5.220809
     97          1           0        1.865326   -2.906054    5.076741
     98          6           0       -0.135739   -2.491388    5.764054
     99          1           0       -1.094807   -3.004713    5.913078
    100          1           0        0.173642   -2.082947    6.732728
    101          1           0       -0.313818   -1.639804    5.096779
    102          6           0        1.198800   -4.583128    6.230570
    103          1           0        0.299020   -5.189854    6.397627
    104          1           0        1.506597   -4.174447    7.199557
    105          1           0        1.994692   -5.249942    5.879911
    106          7           0        1.785736   -1.525839    1.369633
    107          1           0        0.885541   -1.227530    0.997165
    108          6           0        2.977655   -0.954644    0.763588
    109          1           0        3.667861   -0.645327    1.558061
    110          6           0        2.520275    0.263923   -0.038721
    111          6           0        3.712596   -1.942955   -0.167550
    112          1           0        4.616393   -1.487793   -0.586643
    113          1           0        3.058051   -2.248063   -0.990537
    114          1           0        4.000138   -2.822951    0.411099
    115          8           0        1.374730    0.287009   -0.524407
    116          7           0        3.413577    1.249417   -0.219808
    117          1           0        4.349520    1.212349    0.181319
    118          6           0        3.188713    2.403891   -1.075488
    119          1           0        2.733745    2.072840   -2.013766
    120          6           0        4.587991    2.989554   -1.372372
    121          6           0        2.255329    3.481400   -0.404371
    122          1           0        2.734172    4.464368   -0.429204
    123          1           0        2.135941    3.216109    0.651816
    124          8           0        5.537622    2.719143   -0.631106
    125          6           0        0.927602    3.606023   -1.079715
    126          6           0        0.330735    4.663955   -1.702098
    127          1           0        0.672018    5.673243   -1.855598
    128          7           0        0.088254    2.521738   -1.282674
    129          1           0        0.359404    1.563193   -0.985572
    130          6           0       -0.961974    2.884385   -2.018172
    131          1           0       -1.752178    2.218732   -2.348859
    132          7           0       -0.834924    4.194334   -2.274074
    133          7           0        4.660047    3.788297   -2.451562
    134          1           0        3.828104    3.952838   -3.024263
    135          6           0        5.912475    4.436057   -2.849598
    136          1           0        6.728434    3.762907   -2.567756
    137          6           0        6.071593    5.772746   -2.085204
    138          6           0        5.954644    4.677471   -4.376987
    139          1           0        6.924075    5.161582   -4.577922
    140          8           0        5.700581    6.846365   -2.582215
    141          6           0        5.866362    3.392203   -5.190235
    142          1           0        6.672528    2.700358   -4.923466
    143          1           0        4.905073    2.894095   -5.030778
    144          1           0        5.953655    3.630366   -6.254671
    145          8           0        4.892002    5.532171   -4.783237
    146          1           0        4.976273    6.315133   -4.193722
    147          7           0        6.602507    5.663115   -0.854133
    148          1           0        6.974495    4.770914   -0.538188
    149          6           0        6.912290    6.798638    0.004572
    150          1           0        6.978857    7.684221   -0.634719
    151          6           0        8.281621    6.505254    0.648919
    152          6           0        5.829115    7.056408    1.095287
    153          1           0        6.209877    7.890429    1.701269
    154          8           0        8.693486    5.344297    0.754650
    155          6           0        4.501384    7.502941    0.468115
    156          1           0        4.069174    6.707695   -0.151297
    157          1           0        4.631142    8.380579   -0.173206
    158          1           0        3.776810    7.753362    1.251798
    159          6           0        5.632654    5.845901    2.020305
    160          1           0        5.275425    4.974326    1.458061
    161          1           0        4.891775    6.076583    2.794148
    162          1           0        6.562859    5.554699    2.517724
    163          7           0        8.949178    7.583995    1.091964
    164          1           0        8.539117    8.519277    1.116570
    165          6           0       10.150797    7.506614    1.907436
    166          1           0        9.972834    6.778427    2.711559
    167          6           0       10.305480    8.908889    2.589382
    168          6           0       11.395129    7.031734    1.089169
    169          1           0       11.045890    6.809143    0.078130
    170          1           0       12.119308    7.850874    0.992038
    171          8           0        9.434652    9.755946    2.373905
    172          6           0       12.086606    5.761165    1.635559
    173          1           0       12.553972    5.216078    0.806517
    174          1           0       11.319961    5.095933    2.048616
    175          6           0       13.196819    6.003033    2.675738
    176          1           0       14.090331    6.404380    2.178732
    177          1           0       13.481728    5.047254    3.134670
    178          7           0       12.768448    6.952372    3.694335
    179          1           0       12.196751    7.832404    3.382438
    180          7           0       13.769641    6.032724    5.622684
    181          1           0       13.566691    5.789462    6.582063
    182          1           0       14.229963    5.319525    5.077190
    183          7           0       12.260327    7.801433    5.760645
    184          1           0       12.696541    8.121246    6.614865
    185          1           0       11.731801    8.501979    5.229238
    186          6           0       12.944287    6.911902    4.994249
    187          8           0       11.339070    9.035211    3.343883
    188          1           0       -1.375380    4.741251   -2.947503
 ---------------------------------------------------------------------

 SCF Done:  E(RB3LYP) =  -4648.54347960     A.U. after    1 cycles

 Alpha  occ. eigenvalues --  -19.25346 -19.25019 -19.23819 -19.23316 -19.21963
 Alpha  occ. eigenvalues --  -19.21348 -19.21289 -19.20611 -19.20099 -19.19979
 Alpha  occ. eigenvalues --  -19.18918 -19.18096 -19.17923 -19.17576 -19.15612
 Alpha  occ. eigenvalues --  -19.13450 -19.12312 -14.51273 -14.50065 -14.47149
 Alpha  occ. eigenvalues --  -14.45393 -14.45308 -14.45258 -14.45031 -14.44564
 Alpha  occ. eigenvalues --  -14.44346 -14.43367 -14.42811 -14.42532 -14.42078
 Alpha  occ. eigenvalues --  -14.41559 -14.41351 -14.38885 -10.40295 -10.39999
 Alpha  occ. eigenvalues --  -10.39977 -10.38498 -10.38212 -10.37940 -10.37701
 Alpha  occ. eigenvalues --  -10.37023 -10.36985 -10.35341 -10.34810 -10.34633
 Alpha  occ. eigenvalues --  -10.34475 -10.33633 -10.33062 -10.32981 -10.32721
 Alpha  occ. eigenvalues --  -10.32539 -10.32262 -10.32225 -10.31270 -10.31102
 Alpha  occ. eigenvalues --  -10.31062 -10.30765 -10.30521 -10.30125 -10.29889
 Alpha  occ. eigenvalues --  -10.29830 -10.29604 -10.29417 -10.29408 -10.27933
 Alpha  occ. eigenvalues --  -10.27744 -10.26945 -10.26818 -10.26765 -10.26431
 Alpha  occ. eigenvalues --  -10.26386 -10.25867 -10.25816 -10.25770 -10.25637
 Alpha  occ. eigenvalues --  -10.25618 -10.25349 -10.25325 -10.25066 -10.24940
 Alpha  occ. eigenvalues --  -10.24796 -10.24589 -10.24516 -10.24237 -10.24065
 Alpha  occ. eigenvalues --  -10.23787 -10.23702 -10.23647 -10.23495 -10.23438
 Alpha  occ. eigenvalues --  -10.23210 -10.23187 -10.23033 -10.22346 -10.22213
 Alpha  occ. eigenvalues --  -10.22016 -10.21698  -1.17077  -1.15767  -1.14810
 Alpha  occ. eigenvalues --   -1.13538  -1.13116  -1.12987  -1.12203  -1.12032
 Alpha  occ. eigenvalues --   -1.11954  -1.11739  -1.09920  -1.09720  -1.09299
 Alpha  occ. eigenvalues --   -1.08775  -1.08712  -1.07379  -1.06364  -1.06007
 Alpha  occ. eigenvalues --   -1.03399  -1.02296  -1.01913  -1.01604  -1.01296
 Alpha  occ. eigenvalues --   -1.00760  -1.00451  -0.99852  -0.99014  -0.98766
 Alpha  occ. eigenvalues --   -0.98378  -0.97732  -0.97323  -0.96681  -0.95367
 Alpha  occ. eigenvalues --   -0.92999  -0.91977  -0.90424  -0.90299  -0.88649
 Alpha  occ. eigenvalues --   -0.87171  -0.86760  -0.86318  -0.85967  -0.85430
 Alpha  occ. eigenvalues --   -0.84953  -0.84356  -0.83960  -0.83463  -0.82636
 Alpha  occ. eigenvalues --   -0.82140  -0.81764  -0.81159  -0.80413  -0.79825
 Alpha  occ. eigenvalues --   -0.79205  -0.78895  -0.78422  -0.78338  -0.77352
 Alpha  occ. eigenvalues --   -0.76967  -0.76437  -0.75008  -0.74369  -0.73730
 Alpha  occ. eigenvalues --   -0.73303  -0.73126  -0.72776  -0.72671  -0.72023
 Alpha  occ. eigenvalues --   -0.71411  -0.71065  -0.70144  -0.69934  -0.69606
 Alpha  occ. eigenvalues --   -0.69309  -0.68586  -0.68541  -0.67824  -0.67665
 Alpha  occ. eigenvalues --   -0.67277  -0.66879  -0.66818  -0.66369  -0.66200
 Alpha  occ. eigenvalues --   -0.65940  -0.65425  -0.65386  -0.65262  -0.65054
 Alpha  occ. eigenvalues --   -0.64901  -0.64484  -0.64426  -0.64103  -0.63505
 Alpha  occ. eigenvalues --   -0.63084  -0.62666  -0.62151  -0.62099  -0.61659
 Alpha  occ. eigenvalues --   -0.61472  -0.61362  -0.61196  -0.60677  -0.60627
 Alpha  occ. eigenvalues --   -0.60056  -0.59394  -0.58672  -0.58244  -0.58106
 Alpha  occ. eigenvalues --   -0.58015  -0.57517  -0.57460  -0.57075  -0.56959
 Alpha  occ. eigenvalues --   -0.56748  -0.56552  -0.56319  -0.56158  -0.55934
 Alpha  occ. eigenvalues --   -0.55786  -0.55680  -0.55436  -0.55258  -0.55107
 Alpha  occ. eigenvalues --   -0.54928  -0.54807  -0.54646  -0.54509  -0.53966
 Alpha  occ. eigenvalues --   -0.53722  -0.53652  -0.53529  -0.53446  -0.53341
 Alpha  occ. eigenvalues --   -0.52881  -0.52668  -0.52317  -0.52076  -0.51986
 Alpha  occ. eigenvalues --   -0.51939  -0.51756  -0.51745  -0.51597  -0.51225
 Alpha  occ. eigenvalues --   -0.50994  -0.50813  -0.50628  -0.50397  -0.50310
 Alpha  occ. eigenvalues --   -0.50201  -0.50116  -0.50049  -0.49945  -0.49635
 Alpha  occ. eigenvalues --   -0.49559  -0.49427  -0.49303  -0.49203  -0.49126
 Alpha  occ. eigenvalues --   -0.48924  -0.48703  -0.48628  -0.48439  -0.48097
 Alpha  occ. eigenvalues --   -0.48038  -0.47803  -0.47608  -0.47449  -0.47258
 Alpha  occ. eigenvalues --   -0.47168  -0.47040  -0.46967  -0.46941  -0.46761
 Alpha  occ. eigenvalues --   -0.46686  -0.46533  -0.46259  -0.46158  -0.45893
 Alpha  occ. eigenvalues --   -0.45876  -0.45574  -0.45470  -0.45459  -0.45398
 Alpha  occ. eigenvalues --   -0.45091  -0.44925  -0.44755  -0.44584  -0.44444
 Alpha  occ. eigenvalues --   -0.44402  -0.44300  -0.44258  -0.44098  -0.44026
 Alpha  occ. eigenvalues --   -0.43804  -0.43571  -0.43342  -0.43225  -0.43187
 Alpha  occ. eigenvalues --   -0.43125  -0.42982  -0.42823  -0.42642  -0.42630
 Alpha  occ. eigenvalues --   -0.42429  -0.42283  -0.42246  -0.42120  -0.42103
 Alpha  occ. eigenvalues --   -0.41934  -0.41106  -0.41060  -0.40493  -0.40313
 Alpha  occ. eigenvalues --   -0.40183  -0.39966  -0.39761  -0.39417  -0.39233
 Alpha  occ. eigenvalues --   -0.39065  -0.38989  -0.38818  -0.38718  -0.38413
 Alpha  occ. eigenvalues --   -0.38367  -0.38157  -0.38138  -0.37523  -0.37428
 Alpha  occ. eigenvalues --   -0.37352  -0.37314  -0.37217  -0.36475  -0.36174
 Alpha  occ. eigenvalues --   -0.36004  -0.35997  -0.35813  -0.35555  -0.35266
 Alpha  occ. eigenvalues --   -0.34977  -0.34897  -0.34430  -0.34336  -0.33914
 Alpha  occ. eigenvalues --   -0.33786  -0.33490  -0.32634  -0.32583  -0.32246
 Alpha  occ. eigenvalues --   -0.32215  -0.31681  -0.31409  -0.31330  -0.31299
 Alpha  occ. eigenvalues --   -0.30376  -0.30292  -0.29542  -0.29523  -0.29407
 Alpha  occ. eigenvalues --   -0.29168  -0.28971  -0.28586  -0.28108  -0.27770
 Alpha  occ. eigenvalues --   -0.26489
 Alpha virt. eigenvalues --   -0.10810  -0.09396  -0.08159  -0.07946  -0.07633
 Alpha virt. eigenvalues --   -0.07257  -0.06739  -0.06630  -0.06520  -0.06400
 Alpha virt. eigenvalues --   -0.06080  -0.05449  -0.05275  -0.05237  -0.05010

 Mulliken charges:
               1
     1  N   -0.777376
     2  H    0.352068
     3  H    0.461817
     4  H    0.346510
     5  C   -0.083230
     6  H    0.167952
     7  C    0.628149
     8  C   -0.380993
     9  H    0.189213
    10  H    0.220656
    11  O   -0.561827
    12  C    0.670500
    13  O   -0.525233
    14  O   -0.601620
    15  N   -0.584647
    16  H    0.357091
    17  C   -0.065371
    18  H    0.157121
    19  C    0.643611
    20  C   -0.354802
    21  H    0.171269
    22  H    0.167057
    23  O   -0.546952
    24  C    0.147245
    25  C   -0.192853
    26  H    0.148696
    27  C   -0.201026
    28  H    0.133808
    29  C   -0.163470
    30  H    0.154996
    31  C   -0.186546
    32  H    0.134689
    33  O   -0.635151
    34  H    0.416535
    35  C    0.353816
    36  N   -0.628622
    37  H    0.351414
    38  C   -0.016777
    39  H    0.179375
    40  C    0.607406
    41  C   -0.361978
    42  H    0.151708
    43  H    0.192048
    44  O   -0.558689
    45  C    0.135318
    46  C   -0.202368
    47  H    0.133905
    48  C   -0.197706
    49  H    0.153020
    50  C   -0.159158
    51  H    0.151272
    52  C   -0.190961
    53  H    0.133450
    54  O   -0.632412
    55  H    0.414347
    56  C    0.354676
    57  N   -0.595963
    58  H    0.357778
    59  C   -0.066500
    60  H    0.190191
    61  C    0.643451
    62  C   -0.364326
    63  H    0.156752
    64  H    0.177629
    65  O   -0.528208
    66  C    0.148386
    67  C   -0.188329
    68  H    0.159804
    69  C   -0.184496
    70  H    0.119936
    71  C   -0.131516
    72  H    0.136562
    73  C   -0.127794
    74  H    0.127566
    75  C   -0.127188
    76  H    0.136628
    77  N   -0.627637
    78  H    0.361937
    79  C   -0.024440
    80  H    0.184921
    81  C    0.622859
    82  C   -0.469110
    83  H    0.148045
    84  H    0.208796
    85  H    0.161580
    86  O   -0.554472
    87  N   -0.612016
    88  H    0.342890
    89  C   -0.065453
    90  H    0.187370
    91  C    0.630757
    92  C   -0.275662
    93  H    0.136461
    94  H    0.154725
    95  O   -0.524827
    96  C   -0.080736
    97  H    0.155117
    98  C   -0.452026
    99  H    0.143468
   100  H    0.152445
   101  H    0.138108
   102  C   -0.447418
   103  H    0.140102
   104  H    0.148724
   105  H    0.151485
   106  N   -0.655017
   107  H    0.393822
   108  C   -0.011254
   109  H    0.177657
   110  C    0.626850
   111  C   -0.458844
   112  H    0.156073
   113  H    0.156930
   114  H    0.204752
   115  O   -0.581028
   116  N   -0.615959
   117  H    0.373571
   118  C   -0.052307
   119  H    0.204389
   120  C    0.603042
   121  C   -0.369994
   122  H    0.211038
   123  H    0.197280
   124  O   -0.543758
   125  C    0.315513
   126  C    0.003165
   127  H    0.222434
   128  N   -0.613180
   129  H    0.432385
   130  C    0.281336
   131  H    0.266415
   132  N   -0.576245
   133  N   -0.640490
   134  H    0.410648
   135  C   -0.077999
   136  H    0.178985
   137  C    0.641711
   138  C    0.122226
   139  H    0.137175
   140  O   -0.563903
   141  C   -0.458448
   142  H    0.148817
   143  H    0.157133
   144  H    0.162568
   145  O   -0.673519
   146  H    0.426544
   147  N   -0.599487
   148  H    0.372281
   149  C   -0.066618
   150  H    0.179437
   151  C    0.623223
   152  C   -0.075501
   153  H    0.150841
   154  O   -0.563311
   155  C   -0.451380
   156  H    0.139223
   157  H    0.161778
   158  H    0.141527
   159  C   -0.467368
   160  H    0.142499
   161  H    0.142619
   162  H    0.168388
   163  N   -0.624742
   164  H    0.358303
   165  C   -0.046576
   166  H    0.154190
   167  C    0.605984
   168  C   -0.293157
   169  H    0.169652
   170  H    0.158603
   171  O   -0.534672
   172  C   -0.275224
   173  H    0.148976
   174  H    0.172477
   175  C   -0.154246
   176  H    0.174038
   177  H    0.136324
   178  N   -0.617006
   179  H    0.450231
   180  N   -0.756602
   181  H    0.361632
   182  H    0.363930
   183  N   -0.775077
   184  H    0.349032
   185  H    0.401414
   186  C    0.744544
   187  O   -0.647031
   188  H    0.409004
 Sum of Mulliken charges =   1.00000

 Dipole moment (field-independent basis, Debye):
    X=              8.6021    Y=             11.4882    Z=             -8.6381  Tot=             16.7508
 Quadrupole moment (field-independent basis, Debye-Ang):
   XX=           -285.8394   YY=           -508.6745   ZZ=           -379.2671
   XY=             21.6417   XZ=            120.8595   YZ=            -40.2425

 Normal termination of Gaussian 16 at Tue Aug  9 05:35:25 2022.
