 Gaussian 16, Revision C.01,
 Gaussian 16:  ES64L-G16RevC.01  3-Jul-2019

 -------------------------------------------------------------------
 # B3LYP/6-31G* guess=read geom=check nosymm integral(ultrafinegrid)
 -------------------------------------------------------------------

 ------------------------------------------------------
 Candidate Structure: Conf:746 Charge calc in gas phase
 ------------------------------------------------------
 Structure from the checkpoint file:  "conf-746.chk"
 Charge =  1 Multiplicity = 1

                          Input orientation:
 ---------------------------------------------------------------------
 Center     Atomic      Atomic             Coordinates (Angstroms)
 Number     Number       Type             X           Y           Z
 ---------------------------------------------------------------------
      1          7           0       -5.327377   -3.407314    0.654632
      2          1           0       -5.625014   -2.637805    0.049655
      3          1           0       -6.069824   -3.512350    1.345420
      4          6           0       -4.091282   -2.980763    1.320645
      5          1           0       -3.951371   -3.602027    2.214017
      6          6           0       -4.150683   -1.490468    1.716676
      7          6           0       -2.873715   -3.169878    0.376488
      8          1           0       -3.066209   -2.602738   -0.544445
      9          1           0       -1.980915   -2.724091    0.821330
     10          8           0       -4.810087   -0.697398    1.057878
     11          6           0       -2.547907   -4.609177   -0.013258
     12          7           0       -3.594896   -5.406541   -0.251627
     13          1           0       -3.431816   -6.362711   -0.538623
     14          1           0       -4.538163   -5.022563   -0.125360
     15          8           0       -1.372783   -5.009152   -0.134501
     16          7           0       -3.421694   -1.131742    2.817631
     17          1           0       -2.760762   -1.815748    3.163166
     18          6           0       -3.060067    0.262846    3.029667
     19          1           0       -3.974275    0.844079    2.872292
     20          6           0       -2.046660    0.679693    1.929345
     21          6           0       -2.576690    0.474246    4.494519
     22          1           0       -3.317889   -0.065533    5.099909
     23          8           0       -1.522558   -0.170116    1.200054
     24          6           0       -2.631219    1.954392    4.935331
     25          1           0       -3.554307    2.408180    4.546583
     26          1           0       -1.790302    2.505997    4.493444
     27          6           0       -1.194817   -0.148106    4.754911
     28          1           0       -0.412965    0.377761    4.194172
     29          1           0       -0.937375   -0.092537    5.816293
     30          1           0       -1.150403   -1.208338    4.475956
     31          6           0       -2.603183    2.147091    6.457078
     32          1           0       -2.689758    3.208370    6.711225
     33          1           0       -3.436427    1.620681    6.936780
     34          1           0       -1.672035    1.780394    6.901353
     35          7           0       -1.789397    2.002807    1.804944
     36          1           0       -2.297401    2.644347    2.399627
     37          6           0       -1.109640    2.602638    0.640737
     38          1           0       -1.461253    2.055508   -0.244092
     39          6           0        0.433381    2.440563    0.666621
     40          6           0       -1.496223    4.074031    0.528786
     41          1           0       -1.024886    4.516335   -0.350809
     42          1           0       -2.582210    4.176238    0.434803
     43          1           0       -1.149267    4.638058    1.400364
     44          8           0        1.194362    3.404068    0.642938
     45          7           0        0.869473    1.152475    0.638480
     46          1           0        0.177552    0.402735    0.598720
     47          6           0        2.275252    0.844614    0.432309
     48          1           0        2.873085    1.575348    0.984664
     49          6           0        2.600453    0.950957   -1.071845
     50          6           0        2.612595   -0.573509    0.934036
     51          1           0        3.664546   -0.764847    0.679619
     52          8           0        2.375101   -0.017273   -1.832408
     53          6           0        2.395846   -0.757424    2.427122
     54          1           0        3.015996   -0.056716    2.995115
     55          1           0        2.677850   -1.772595    2.727564
     56          1           0        1.347371   -0.592140    2.691088
     57          8           0        1.779421   -1.519472    0.229236
     58          1           0        1.876467   -1.247720   -0.721792
     59          7           0        3.105123    2.117721   -1.489251
     60          1           0        2.985169    2.916364   -0.868799
     61          6           0        3.367221    2.428918   -2.903765
     62          1           0        2.511809    2.076440   -3.493046
     63          6           0        4.659423    1.729375   -3.403512
     64          6           0        3.512200    3.940552   -3.054133
     65          1           0        3.601622    4.178249   -4.122353
     66          1           0        4.439511    4.262483   -2.564021
     67          8           0        5.703146    2.345677   -3.565611
     68          8           0        2.359429    4.529872   -2.464797
     69          1           0        2.508915    5.484662   -2.396940
     70          7           0        4.494750    0.403879   -3.678897
     71          1           0        3.646654   -0.021083   -3.312005
     72          6           0        5.621651   -0.455487   -3.954570
     73          1           0        5.466720   -1.005650   -4.891535
     74          1           0        6.495599    0.191682   -4.087296
     75          6           0        5.902706   -1.421192   -2.790534
     76          8           0        5.723686   -1.101714   -1.618987
     77          7           0        6.363880   -2.639723   -3.188432
     78          1           0        6.473020   -2.841729   -4.176416
     79          6           0        6.877168   -3.673807   -2.302013
     80          1           0        7.800584   -3.325517   -1.815674
     81          6           0        7.273408   -4.848480   -3.192946
     82          6           0        5.910705   -4.081349   -1.164360
     83          1           0        6.387219   -4.885744   -0.594201
     84          1           0        5.832990   -3.208930   -0.512104
     85          8           0        7.156918   -4.866538   -4.399526
     86          6           0        4.502337   -4.497157   -1.614841
     87          1           0        4.154995   -3.811688   -2.397523
     88          1           0        4.512185   -5.503676   -2.053937
     89          6           0        3.527061   -4.430090   -0.430490
     90          1           0        3.601149   -3.426707    0.005497
     91          1           0        3.827821   -5.144017    0.349557
     92          6           0        2.065504   -4.669361   -0.808643
     93          1           0        1.777869   -4.082527   -1.685286
     94          1           0        1.839049   -5.718907   -1.012477
     95          7           0        1.164024   -4.213238    0.308699
     96          1           0        0.137835   -4.404665    0.113434
     97          1           0        1.317349   -3.184997    0.450569
     98          1           0        1.400967   -4.696263    1.179532
     99          8           0        7.785944   -5.866892   -2.478958
    100          1           0        8.043048   -6.560878   -3.116134
 ---------------------------------------------------------------------

 SCF Done:  E(RB3LYP) =  -2418.49021481     A.U. after    3 cycles

 Alpha  occ. eigenvalues --  -19.28624 -19.25227 -19.23174 -19.22567 -19.22520
 Alpha  occ. eigenvalues --  -19.22177 -19.21921 -19.20996 -19.20131 -19.19168
 Alpha  occ. eigenvalues --  -19.18304 -14.53186 -14.46237 -14.45362 -14.45288
 Alpha  occ. eigenvalues --  -14.44584 -14.43945 -14.43885 -14.42277 -14.42227
 Alpha  occ. eigenvalues --  -10.41107 -10.39613 -10.38794 -10.38591 -10.37724
 Alpha  occ. eigenvalues --  -10.37070 -10.36548 -10.35547 -10.35263 -10.34142
 Alpha  occ. eigenvalues --  -10.33057 -10.32780 -10.32769 -10.32575 -10.32541
 Alpha  occ. eigenvalues --  -10.31076 -10.30518 -10.29869 -10.29763 -10.29592
 Alpha  occ. eigenvalues --  -10.29209 -10.28255 -10.27409 -10.27386 -10.27337
 Alpha  occ. eigenvalues --  -10.27119 -10.26196 -10.25378  -1.19694  -1.14401
 Alpha  occ. eigenvalues --   -1.14042  -1.13548  -1.12663  -1.11745  -1.11606
 Alpha  occ. eigenvalues --   -1.11200  -1.10661  -1.10078  -1.09180  -1.08487
 Alpha  occ. eigenvalues --   -1.02325  -1.01943  -1.01666  -1.00735  -1.00567
 Alpha  occ. eigenvalues --   -1.00447  -0.98850  -0.98510  -0.90693  -0.90500
 Alpha  occ. eigenvalues --   -0.87792  -0.86689  -0.86202  -0.85575  -0.84742
 Alpha  occ. eigenvalues --   -0.82373  -0.81491  -0.80217  -0.79809  -0.78920
 Alpha  occ. eigenvalues --   -0.75442  -0.74442  -0.73724  -0.72304  -0.71784
 Alpha  occ. eigenvalues --   -0.70747  -0.70304  -0.69683  -0.68767  -0.68487
 Alpha  occ. eigenvalues --   -0.67936  -0.67627  -0.67512  -0.66634  -0.65915
 Alpha  occ. eigenvalues --   -0.65553  -0.64801  -0.64604  -0.63701  -0.62691
 Alpha  occ. eigenvalues --   -0.61931  -0.61605  -0.61156  -0.60566  -0.59969
 Alpha  occ. eigenvalues --   -0.59315  -0.59118  -0.58194  -0.57933  -0.57780
 Alpha  occ. eigenvalues --   -0.57625  -0.57566  -0.56816  -0.56152  -0.55850
 Alpha  occ. eigenvalues --   -0.55455  -0.55322  -0.55081  -0.54845  -0.54647
 Alpha  occ. eigenvalues --   -0.54445  -0.53805  -0.53543  -0.53262  -0.52875
 Alpha  occ. eigenvalues --   -0.52299  -0.52124  -0.51461  -0.50786  -0.50679
 Alpha  occ. eigenvalues --   -0.50529  -0.50461  -0.49950  -0.49854  -0.49311
 Alpha  occ. eigenvalues --   -0.49073  -0.49007  -0.48690  -0.48456  -0.48222
 Alpha  occ. eigenvalues --   -0.48028  -0.47762  -0.47363  -0.47215  -0.47092
 Alpha  occ. eigenvalues --   -0.46937  -0.46618  -0.46478  -0.46323  -0.46300
 Alpha  occ. eigenvalues --   -0.46079  -0.45560  -0.45503  -0.45077  -0.44875
 Alpha  occ. eigenvalues --   -0.44463  -0.44238  -0.44026  -0.43866  -0.43521
 Alpha  occ. eigenvalues --   -0.43139  -0.42528  -0.42246  -0.41828  -0.41380
 Alpha  occ. eigenvalues --   -0.40932  -0.40766  -0.38234  -0.37305  -0.37153
 Alpha  occ. eigenvalues --   -0.37116  -0.36849  -0.36693  -0.36501  -0.36224
 Alpha  occ. eigenvalues --   -0.36030  -0.35029  -0.34482  -0.33803  -0.33598
 Alpha  occ. eigenvalues --   -0.33465  -0.33234  -0.32876  -0.31746  -0.31276
 Alpha virt. eigenvalues --   -0.08451  -0.08355  -0.08113  -0.07970  -0.06735
 Alpha virt. eigenvalues --   -0.06273  -0.05791  -0.05589  -0.04501  -0.03008
 Alpha virt. eigenvalues --   -0.02266  -0.00898  -0.00772  -0.00430  -0.00019

 Mulliken charges:
               1
     1  N   -0.737278
     2  H    0.340393
     3  H    0.329601
     4  C   -0.104329
     5  H    0.154431
     6  C    0.625785
     7  C   -0.359760
     8  H    0.201418
     9  H    0.177879
    10  O   -0.514174
    11  C    0.603753
    12  N   -0.723804
    13  H    0.350551
    14  H    0.399273
    15  O   -0.582301
    16  N   -0.595385
    17  H    0.329819
    18  C   -0.079302
    19  H    0.194262
    20  C    0.642192
    21  C   -0.082295
    22  H    0.158114
    23  O   -0.560414
    24  C   -0.286189
    25  H    0.142499
    26  H    0.142378
    27  C   -0.479938
    28  H    0.166371
    29  H    0.175396
    30  H    0.131707
    31  C   -0.453519
    32  H    0.165326
    33  H    0.157750
    34  H    0.156942
    35  N   -0.602703
    36  H    0.351470
    37  C   -0.055531
    38  H    0.188855
    39  C    0.625133
    40  C   -0.478242
    41  H    0.195489
    42  H    0.160062
    43  H    0.173684
    44  O   -0.519072
    45  N   -0.627636
    46  H    0.387948
    47  C   -0.077318
    48  H    0.187525
    49  C    0.678176
    50  C    0.110190
    51  H    0.176345
    52  O   -0.602271
    53  C   -0.469285
    54  H    0.173113
    55  H    0.144565
    56  H    0.170062
    57  O   -0.701109
    58  H    0.442078
    59  N   -0.593762
    60  H    0.385904
    61  C   -0.072473
    62  H    0.184791
    63  C    0.622534
    64  C   -0.069285
    65  H    0.161057
    66  H    0.169836
    67  O   -0.506068
    68  O   -0.626251
    69  H    0.411429
    70  N   -0.595103
    71  H    0.368912
    72  C   -0.241547
    73  H    0.163012
    74  H    0.227594
    75  C    0.605763
    76  O   -0.525075
    77  N   -0.633692
    78  H    0.360112
    79  C   -0.015916
    80  H    0.199725
    81  C    0.581953
    82  C   -0.289598
    83  H    0.168374
    84  H    0.188359
    85  O   -0.460437
    86  C   -0.270311
    87  H    0.156722
    88  H    0.153069
    89  C   -0.294518
    90  H    0.175439
    91  H    0.153229
    92  C   -0.181541
    93  H    0.198477
    94  H    0.203245
    95  N   -0.802992
    96  H    0.442147
    97  H    0.435154
    98  H    0.377717
    99  O   -0.562972
   100  H    0.428307
 Sum of Mulliken charges =   1.00000

 Dipole moment (field-independent basis, Debye):
    X=              0.8910    Y=            -13.1529    Z=              4.8488  Tot=             14.0465
 Quadrupole moment (field-independent basis, Debye-Ang):
   XX=           -216.5494   YY=           -172.3676   ZZ=           -242.3088
   XY=            -29.5100   XZ=            -28.8945   YZ=              4.9508

 Normal termination of Gaussian 16 at Fri May 27 02:49:44 2022.
