 Gaussian 16, Revision C.01,
 Gaussian 16:  ES64L-G16RevC.01  3-Jul-2019

 -------------------------------------------------------------------
 # B3LYP/6-31G* guess=read geom=check nosymm integral(ultrafinegrid)
 -------------------------------------------------------------------

 ------------------------------------------------------
 Candidate Structure: Conf:137 Charge calc in gas phase
 ------------------------------------------------------
 Structure from the checkpoint file:  "conf-137.chk"
 Charge =  1 Multiplicity = 1

                          Input orientation:
 ---------------------------------------------------------------------
 Center     Atomic      Atomic             Coordinates (Angstroms)
 Number     Number       Type             X           Y           Z
 ---------------------------------------------------------------------
      1          7           0       -6.775738   -1.068175    5.000071
      2          1           0       -7.396975   -0.684166    4.288356
      3          1           0       -6.483459   -0.289792    5.587816
      4          6           0       -5.621360   -1.711289    4.360111
      5          1           0       -4.920057   -2.006027    5.148121
      6          6           0       -4.929970   -0.755186    3.371277
      7          6           0       -6.114012   -2.966066    3.637220
      8          1           0       -6.722652   -3.548809    4.338652
      9          1           0       -6.761967   -2.670479    2.803755
     10          8           0       -5.331046   -0.604082    2.220811
     11          6           0       -4.987288   -3.835883    3.108186
     12          7           0       -5.350694   -4.833286    2.275289
     13          1           0       -4.651369   -5.483818    1.944061
     14          1           0       -6.314390   -4.996909    2.021201
     15          8           0       -3.807687   -3.655136    3.439798
     16          7           0       -3.893681   -0.007690    3.868748
     17          1           0       -3.673791   -0.070741    4.854147
     18          6           0       -3.432117    1.176341    3.149917
     19          1           0       -4.314987    1.762711    2.870109
     20          6           0       -2.717156    0.771006    1.854368
     21          6           0       -2.527428    2.051825    4.071041
     22          1           0       -3.136601    2.215313    4.974394
     23          8           0       -1.918422   -0.185700    1.799092
     24          6           0       -2.222034    3.442133    3.470840
     25          1           0       -1.658232    3.331039    2.536138
     26          1           0       -1.540436    3.943736    4.168743
     27          6           0       -1.223131    1.353013    4.493279
     28          1           0       -0.525846    1.246239    3.656776
     29          1           0       -0.724220    1.946615    5.265982
     30          1           0       -1.399289    0.355896    4.916690
     31          6           0       -3.440236    4.349550    3.256984
     32          1           0       -3.120888    5.343699    2.928594
     33          1           0       -4.133681    3.971510    2.494228
     34          1           0       -4.015082    4.475531    4.182553
     35          7           0       -2.946502    1.548589    0.786391
     36          1           0       -3.575073    2.334902    0.883237
     37          6           0       -2.224073    1.405235   -0.478105
     38          1           0       -2.384604    0.383536   -0.840495
     39          6           0       -0.718251    1.647174   -0.220338
     40          6           0       -2.759851    2.418833   -1.491621
     41          1           0       -2.260893    2.287751   -2.456005
     42          1           0       -3.835844    2.285142   -1.644962
     43          1           0       -2.563724    3.438646   -1.144919
     44          8           0       -0.332891    2.629409    0.400771
     45          7           0        0.101808    0.683524   -0.715983
     46          1           0       -0.255512   -0.060156   -1.306536
     47          6           0        1.548032    0.690158   -0.563362
     48          1           0        1.871104    1.722873   -0.403546
     49          6           0        2.118242    0.064830   -1.843766
     50          6           0        1.973013   -0.194442    0.661864
     51          1           0        1.887387   -1.243105    0.338409
     52          8           0        1.453726   -0.801605   -2.432783
     53          6           0        3.400679    0.067640    1.118041
     54          1           0        4.117590   -0.223978    0.347093
     55          1           0        3.610745   -0.529586    2.010088
     56          1           0        3.536325    1.123782    1.377255
     57          8           0        1.117184    0.036231    1.778664
     58          1           0        0.195237    0.057492    1.463749
     59          7           0        3.354080    0.441163   -2.217084
     60          1           0        3.739461    1.293885   -1.828433
     61          6           0        4.015837   -0.046804   -3.436674
     62          1           0        3.267668   -0.062953   -4.238336
     63          6           0        4.590283   -1.476383   -3.242057
     64          6           0        5.152103    0.912270   -3.791222
     65          1           0        5.511579    0.670578   -4.799477
     66          1           0        5.985368    0.756166   -3.095064
     67          8           0        5.794547   -1.682296   -3.181239
     68          8           0        4.630985    2.236144   -3.707713
     69          1           0        5.357024    2.854046   -3.881539
     70          7           0        3.642516   -2.457463   -3.191147
     71          1           0        2.680054   -2.143488   -3.075401
     72          6           0        3.988881   -3.785358   -2.747247
     73          1           0        3.408759   -4.533204   -3.300714
     74          1           0        5.049314   -3.941203   -2.973501
     75          6           0        3.794633   -3.957621   -1.230547
     76          8           0        3.818831   -3.007706   -0.456165
     77          7           0        3.599988   -5.248301   -0.819662
     78          1           0        3.714947   -5.991803   -1.496252
     79          6           0        3.679335   -5.621246    0.589541
     80          1           0        4.277629   -4.848117    1.088072
     81          6           0        4.420470   -6.940537    0.799988
     82          6           0        2.310470   -5.689416    1.311697
     83          1           0        1.692492   -6.473327    0.853507
     84          1           0        2.511456   -6.001713    2.342493
     85          8           0        4.563802   -7.456752    1.882555
     86          6           0        1.577462   -4.345166    1.285042
     87          1           0        2.281744   -3.548900    1.548923
     88          1           0        1.258235   -4.129592    0.257615
     89          6           0        0.361662   -4.255840    2.222618
     90          1           0        0.691246   -4.371758    3.264937
     91          1           0       -0.356239   -5.062515    2.022072
     92          6           0       -0.291084   -2.891081    2.024937
     93          1           0        0.443369   -2.085002    2.097630
     94          1           0       -0.774551   -2.816620    1.047212
     95          7           0       -1.354640   -2.549064    3.031552
     96          1           0       -1.711158   -1.586112    2.804555
     97          1           0       -0.973063   -2.542319    3.980975
     98          1           0       -2.177639   -3.185271    3.033116
     99          8           0        4.889931   -7.482006   -0.349136
    100          1           0        5.342363   -8.312091   -0.103835
 ---------------------------------------------------------------------

 SCF Done:  E(RB3LYP) =  -2418.47500359     A.U. after    2 cycles

 Alpha  occ. eigenvalues --  -19.28287 -19.23957 -19.23584 -19.22280 -19.22234
 Alpha  occ. eigenvalues --  -19.21978 -19.21518 -19.21163 -19.20118 -19.19674
 Alpha  occ. eigenvalues --  -19.18266 -14.53286 -14.47325 -14.47042 -14.46523
 Alpha  occ. eigenvalues --  -14.45148 -14.44942 -14.44276 -14.42065 -14.41627
 Alpha  occ. eigenvalues --  -10.40885 -10.40425 -10.40236 -10.38227 -10.37996
 Alpha  occ. eigenvalues --  -10.37547 -10.36734 -10.35477 -10.34078 -10.33784
 Alpha  occ. eigenvalues --  -10.33442 -10.32515 -10.32367 -10.31803 -10.31770
 Alpha  occ. eigenvalues --  -10.31050 -10.30610 -10.30131 -10.29660 -10.29600
 Alpha  occ. eigenvalues --  -10.29421 -10.27750 -10.27570 -10.27531 -10.26509
 Alpha  occ. eigenvalues --  -10.26369 -10.25813 -10.24257  -1.18950  -1.15313
 Alpha  occ. eigenvalues --   -1.14909  -1.13311  -1.13118  -1.11999  -1.11544
 Alpha  occ. eigenvalues --   -1.10129  -1.09874  -1.09589  -1.09405  -1.08555
 Alpha  occ. eigenvalues --   -1.03529  -1.02604  -1.01875  -1.01258  -1.00944
 Alpha  occ. eigenvalues --   -1.00732  -0.98771  -0.98759  -0.90595  -0.90463
 Alpha  occ. eigenvalues --   -0.87905  -0.86468  -0.86237  -0.85917  -0.83514
 Alpha  occ. eigenvalues --   -0.82579  -0.81077  -0.80465  -0.79000  -0.78667
 Alpha  occ. eigenvalues --   -0.76187  -0.74519  -0.74095  -0.71965  -0.71477
 Alpha  occ. eigenvalues --   -0.71055  -0.70264  -0.69481  -0.68890  -0.68674
 Alpha  occ. eigenvalues --   -0.67938  -0.67776  -0.67622  -0.66728  -0.66504
 Alpha  occ. eigenvalues --   -0.65956  -0.65417  -0.64600  -0.64415  -0.63020
 Alpha  occ. eigenvalues --   -0.61994  -0.61728  -0.61046  -0.60498  -0.60089
 Alpha  occ. eigenvalues --   -0.59700  -0.59540  -0.58957  -0.58780  -0.58003
 Alpha  occ. eigenvalues --   -0.57459  -0.57122  -0.56713  -0.56199  -0.56008
 Alpha  occ. eigenvalues --   -0.55899  -0.55612  -0.54894  -0.54808  -0.54244
 Alpha  occ. eigenvalues --   -0.53808  -0.53514  -0.53209  -0.52624  -0.52390
 Alpha  occ. eigenvalues --   -0.51738  -0.51533  -0.51208  -0.50986  -0.50784
 Alpha  occ. eigenvalues --   -0.50414  -0.50342  -0.50117  -0.49875  -0.49654
 Alpha  occ. eigenvalues --   -0.49461  -0.48943  -0.48720  -0.48464  -0.48379
 Alpha  occ. eigenvalues --   -0.48054  -0.47525  -0.47466  -0.47064  -0.46789
 Alpha  occ. eigenvalues --   -0.46459  -0.46313  -0.46257  -0.45873  -0.45783
 Alpha  occ. eigenvalues --   -0.45580  -0.45424  -0.45338  -0.44766  -0.44321
 Alpha  occ. eigenvalues --   -0.44206  -0.44135  -0.43562  -0.43240  -0.43069
 Alpha  occ. eigenvalues --   -0.42233  -0.42145  -0.41535  -0.41373  -0.41305
 Alpha  occ. eigenvalues --   -0.40722  -0.39923  -0.38483  -0.38031  -0.37859
 Alpha  occ. eigenvalues --   -0.37697  -0.36851  -0.36410  -0.36054  -0.35984
 Alpha  occ. eigenvalues --   -0.35777  -0.35516  -0.34774  -0.33994  -0.33607
 Alpha  occ. eigenvalues --   -0.33400  -0.33067  -0.32494  -0.31874  -0.31064
 Alpha virt. eigenvalues --   -0.09531  -0.08843  -0.07985  -0.07400  -0.07284
 Alpha virt. eigenvalues --   -0.06551  -0.05860  -0.05737  -0.04622  -0.03014
 Alpha virt. eigenvalues --   -0.02861  -0.02372  -0.01351  -0.00908  -0.00041

 Mulliken charges:
               1
     1  N   -0.701147
     2  H    0.318581
     3  H    0.308847
     4  C   -0.070950
     5  H    0.153732
     6  C    0.621538
     7  C   -0.371955
     8  H    0.207409
     9  H    0.192315
    10  O   -0.532114
    11  C    0.642676
    12  N   -0.732558
    13  H    0.353818
    14  H    0.364458
    15  O   -0.573565
    16  N   -0.637183
    17  H    0.334150
    18  C   -0.042483
    19  H    0.167223
    20  C    0.709248
    21  C   -0.118747
    22  H    0.137860
    23  O   -0.610921
    24  C   -0.290565
    25  H    0.186947
    26  H    0.157841
    27  C   -0.471108
    28  H    0.193235
    29  H    0.170611
    30  H    0.109555
    31  C   -0.461024
    32  H    0.173706
    33  H    0.124671
    34  H    0.155524
    35  N   -0.581564
    36  H    0.358231
    37  C   -0.030631
    38  H    0.164457
    39  C    0.611885
    40  C   -0.493640
    41  H    0.183887
    42  H    0.175129
    43  H    0.187686
    44  O   -0.510030
    45  N   -0.632390
    46  H    0.352658
    47  C   -0.061318
    48  H    0.186372
    49  C    0.644685
    50  C    0.131754
    51  H    0.140102
    52  O   -0.570835
    53  C   -0.463470
    54  H    0.178868
    55  H    0.164663
    56  H    0.155461
    57  O   -0.663147
    58  H    0.441759
    59  N   -0.591771
    60  H    0.359836
    61  C   -0.074271
    62  H    0.189890
    63  C    0.627339
    64  C   -0.070289
    65  H    0.163361
    66  H    0.170953
    67  O   -0.509704
    68  O   -0.633352
    69  H    0.412663
    70  N   -0.596010
    71  H    0.373334
    72  C   -0.252906
    73  H    0.165183
    74  H    0.224913
    75  C    0.613193
    76  O   -0.514150
    77  N   -0.611925
    78  H    0.351820
    79  C   -0.057859
    80  H    0.211995
    81  C    0.594244
    82  C   -0.264116
    83  H    0.143988
    84  H    0.175898
    85  O   -0.447185
    86  C   -0.275782
    87  H    0.180541
    88  H    0.151669
    89  C   -0.275378
    90  H    0.151713
    91  H    0.151961
    92  C   -0.210727
    93  H    0.227813
    94  H    0.191015
    95  N   -0.788247
    96  H    0.441233
    97  H    0.383221
    98  H    0.426427
    99  O   -0.579166
   100  H    0.428439
 Sum of Mulliken charges =   1.00000

 Dipole moment (field-independent basis, Debye):
    X=             -9.3759    Y=             -9.7822    Z=              6.6710  Tot=             15.1030
 Quadrupole moment (field-independent basis, Debye-Ang):
   XX=           -201.1389   YY=           -185.8882   ZZ=           -227.8430
   XY=             13.2208   XZ=            -53.2614   YZ=             -4.7884

 Normal termination of Gaussian 16 at Fri May 27 02:49:57 2022.
