 Gaussian 16, Revision C.01,
 Gaussian 16:  ES64L-G16RevC.01  3-Jul-2019

 -------------------------------------------------------------------
 # B3LYP/6-31G* guess=read geom=check nosymm integral(ultrafinegrid)
 -------------------------------------------------------------------

 ------------------------------------------------------
 Candidate Structure: Conf:102 Charge calc in gas phase
 ------------------------------------------------------
 Structure from the checkpoint file:  "conf-102.chk"
 Charge =  1 Multiplicity = 1

                          Input orientation:
 ---------------------------------------------------------------------
 Center     Atomic      Atomic             Coordinates (Angstroms)
 Number     Number       Type             X           Y           Z
 ---------------------------------------------------------------------
      1          7           0       -5.867066    1.926095    3.208833
      2          1           0       -5.546931    2.162364    2.269086
      3          1           0       -5.527183    2.691254    3.789833
      4          6           0       -5.223087    0.690107    3.631525
      5          1           0       -5.403355    0.578166    4.707952
      6          6           0       -3.683600    0.723645    3.438664
      7          6           0       -5.903611   -0.506551    2.908275
      8          1           0       -6.909088   -0.171844    2.637650
      9          1           0       -5.382034   -0.744443    1.971110
     10          8           0       -3.129261    1.726651    2.967256
     11          6           0       -5.967980   -1.784726    3.737986
     12          7           0       -7.131494   -2.470367    3.673740
     13          1           0       -7.221625   -3.321205    4.213558
     14          1           0       -7.945620   -2.116270    3.194416
     15          8           0       -5.017434   -2.194078    4.414291
     16          7           0       -3.000045   -0.372817    3.841460
     17          1           0       -3.548697   -1.184780    4.151821
     18          6           0       -1.539512   -0.382323    3.919313
     19          1           0       -1.233332    0.640905    4.164375
     20          6           0       -0.988705   -0.701155    2.505440
     21          6           0       -1.009661   -1.344932    5.000539
     22          1           0       -1.141870   -2.365443    4.615132
     23          8           0       -0.607116   -1.837406    2.156818
     24          6           0       -1.789436   -1.260466    6.335173
     25          1           0       -1.334083   -1.987529    7.020670
     26          1           0       -2.816508   -1.608266    6.177978
     27          6           0        0.494354   -1.097823    5.216035
     28          1           0        0.676912   -0.119351    5.672079
     29          1           0        0.918188   -1.855105    5.885593
     30          1           0        1.056501   -1.114599    4.275340
     31          6           0       -1.822772    0.115474    7.013123
     32          1           0       -2.391630    0.058966    7.947004
     33          1           0       -0.821742    0.480317    7.267087
     34          1           0       -2.305458    0.871408    6.383337
     35          7           0       -1.009536    0.357885    1.677838
     36          1           0       -1.523422    1.172682    2.028496
     37          6           0       -0.714272    0.324047    0.250654
     38          1           0       -1.571245   -0.113093   -0.283523
     39          6           0        0.536569   -0.526583   -0.033094
     40          6           0       -0.484559    1.758497   -0.246987
     41          1           0       -0.320213    1.767800   -1.328935
     42          1           0       -1.358274    2.382764   -0.033395
     43          1           0        0.391012    2.189857    0.246052
     44          8           0        1.576038   -0.408752    0.603412
     45          7           0        0.398019   -1.381534   -1.093361
     46          1           0       -0.470618   -1.376584   -1.614224
     47          6           0        1.427427   -2.336220   -1.499316
     48          1           0        2.282665   -2.158822   -0.839876
     49          6           0        1.904933   -2.073092   -2.940598
     50          6           0        0.914343   -3.777713   -1.276532
     51          1           0        0.063908   -3.963010   -1.946393
     52          8           0        1.829115   -2.925832   -3.820622
     53          6           0        1.966511   -4.856126   -1.489062
     54          1           0        2.168995   -4.968491   -2.554454
     55          1           0        1.594240   -5.807332   -1.096681
     56          1           0        2.905905   -4.600134   -0.987162
     57          8           0        0.446086   -3.893346    0.086095
     58          1           0       -0.165453   -3.155355    0.273568
     59          7           0        2.408982   -0.819584   -3.151086
     60          1           0        2.699990   -0.313230   -2.318980
     61          6           0        3.184301   -0.514419   -4.371157
     62          1           0        2.726674   -1.091656   -5.177744
     63          6           0        4.634296   -0.965318   -4.123253
     64          6           0        3.079931    0.977741   -4.691103
     65          1           0        3.675359    1.198459   -5.580258
     66          1           0        3.504991    1.565128   -3.863504
     67          8           0        5.513408   -0.184588   -3.784978
     68          8           0        1.746370    1.352589   -4.987295
     69          1           0        1.199043    1.065953   -4.239030
     70          7           0        4.836097   -2.315848   -4.239990
     71          1           0        4.007291   -2.893405   -4.335084
     72          6           0        5.988516   -2.893410   -3.587684
     73          1           0        6.066693   -3.948500   -3.870119
     74          1           0        6.891982   -2.384325   -3.935243
     75          6           0        5.888519   -2.775998   -2.049350
     76          8           0        4.825770   -2.507741   -1.484215
     77          7           0        7.045569   -3.015999   -1.391624
     78          1           0        7.905256   -3.175280   -1.908469
     79          6           0        7.228992   -2.832482    0.042738
     80          1           0        7.055918   -1.776445    0.297849
     81          6           0        8.707781   -3.091721    0.318805
     82          6           0        6.282728   -3.704437    0.924555
     83          1           0        5.827990   -4.456696    0.272666
     84          1           0        6.864754   -4.243563    1.678606
     85          8           0        9.522442   -3.393462   -0.525435
     86          6           0        5.191118   -2.862718    1.605383
     87          1           0        5.617298   -2.326048    2.463539
     88          1           0        4.842036   -2.114541    0.887619
     89          6           0        3.980334   -3.696710    2.046271
     90          1           0        4.260971   -4.432921    2.812029
     91          1           0        3.620921   -4.262904    1.176753
     92          6           0        2.850928   -2.799855    2.552572
     93          1           0        3.034882   -2.427105    3.563403
     94          1           0        2.688595   -1.944827    1.891241
     95          7           0        1.533170   -3.534213    2.574204
     96          1           0        0.737952   -2.894824    2.790911
     97          1           0        1.534944   -4.321962    3.226991
     98          1           0        1.298431   -3.879362    1.610418
     99          8           0        9.005328   -2.917860    1.618918
    100          1           0        9.963921   -3.076726    1.717261
 ---------------------------------------------------------------------

 SCF Done:  E(RB3LYP) =  -2418.47088348     A.U. after    3 cycles

 Alpha  occ. eigenvalues --  -19.28854 -19.26922 -19.24096 -19.23412 -19.22897
 Alpha  occ. eigenvalues --  -19.22101 -19.21600 -19.21293 -19.21138 -19.20578
 Alpha  occ. eigenvalues --  -19.19178 -14.54488 -14.48064 -14.46624 -14.45833
 Alpha  occ. eigenvalues --  -14.45489 -14.44629 -14.44485 -14.43187 -14.39436
 Alpha  occ. eigenvalues --  -10.41403 -10.40357 -10.40112 -10.39150 -10.39118
 Alpha  occ. eigenvalues --  -10.37554 -10.37544 -10.36076 -10.34977 -10.34862
 Alpha  occ. eigenvalues --  -10.34768 -10.33714 -10.33294 -10.32950 -10.31648
 Alpha  occ. eigenvalues --  -10.30948 -10.30927 -10.30122 -10.30090 -10.29158
 Alpha  occ. eigenvalues --  -10.28931 -10.28721 -10.28209 -10.27852 -10.27364
 Alpha  occ. eigenvalues --  -10.26587 -10.26468 -10.25042  -1.19932  -1.15618
 Alpha  occ. eigenvalues --   -1.14475  -1.13868  -1.13521  -1.13221  -1.12566
 Alpha  occ. eigenvalues --   -1.12311  -1.11094  -1.10796  -1.09517  -1.08693
 Alpha  occ. eigenvalues --   -1.04066  -1.03548  -1.01593  -1.01384  -1.01296
 Alpha  occ. eigenvalues --   -1.00140  -0.99588  -0.97151  -0.90978  -0.90435
 Alpha  occ. eigenvalues --   -0.89439  -0.87275  -0.87049  -0.85087  -0.84640
 Alpha  occ. eigenvalues --   -0.82276  -0.81791  -0.80748  -0.79918  -0.79156
 Alpha  occ. eigenvalues --   -0.75641  -0.74878  -0.74198  -0.73120  -0.72436
 Alpha  occ. eigenvalues --   -0.71372  -0.70818  -0.70212  -0.70140  -0.69192
 Alpha  occ. eigenvalues --   -0.68721  -0.68543  -0.67653  -0.66452  -0.66217
 Alpha  occ. eigenvalues --   -0.65820  -0.65679  -0.64997  -0.63851  -0.63490
 Alpha  occ. eigenvalues --   -0.62934  -0.62332  -0.61468  -0.60905  -0.60425
 Alpha  occ. eigenvalues --   -0.60019  -0.59795  -0.59289  -0.58904  -0.58129
 Alpha  occ. eigenvalues --   -0.58071  -0.57556  -0.57316  -0.57141  -0.56429
 Alpha  occ. eigenvalues --   -0.56133  -0.55521  -0.55376  -0.54804  -0.54503
 Alpha  occ. eigenvalues --   -0.54366  -0.53925  -0.53275  -0.52992  -0.52817
 Alpha  occ. eigenvalues --   -0.52474  -0.52023  -0.51942  -0.51704  -0.51511
 Alpha  occ. eigenvalues --   -0.51313  -0.50332  -0.50292  -0.50142  -0.49950
 Alpha  occ. eigenvalues --   -0.49556  -0.49417  -0.49288  -0.48948  -0.48888
 Alpha  occ. eigenvalues --   -0.48656  -0.48361  -0.47959  -0.47602  -0.47432
 Alpha  occ. eigenvalues --   -0.47295  -0.47135  -0.46989  -0.46859  -0.46490
 Alpha  occ. eigenvalues --   -0.46375  -0.46154  -0.46135  -0.45993  -0.45358
 Alpha  occ. eigenvalues --   -0.45266  -0.44649  -0.44338  -0.43894  -0.43622
 Alpha  occ. eigenvalues --   -0.43530  -0.42690  -0.41358  -0.41105  -0.40931
 Alpha  occ. eigenvalues --   -0.40914  -0.40166  -0.39721  -0.38655  -0.38213
 Alpha  occ. eigenvalues --   -0.37658  -0.37173  -0.36990  -0.36659  -0.36455
 Alpha  occ. eigenvalues --   -0.35712  -0.35025  -0.34941  -0.34616  -0.34401
 Alpha  occ. eigenvalues --   -0.34263  -0.34163  -0.32985  -0.32391  -0.31535
 Alpha virt. eigenvalues --   -0.10023  -0.09759  -0.08897  -0.08329  -0.07285
 Alpha virt. eigenvalues --   -0.06914  -0.06444  -0.06224  -0.05188  -0.03881
 Alpha virt. eigenvalues --   -0.02714  -0.01224  -0.01008  -0.00890  -0.00765

 Mulliken charges:
               1
     1  N   -0.689255
     2  H    0.306781
     3  H    0.319505
     4  C   -0.077492
     5  H    0.183909
     6  C    0.567420
     7  C   -0.381470
     8  H    0.188007
     9  H    0.178555
    10  O   -0.551681
    11  C    0.623505
    12  N   -0.733110
    13  H    0.360720
    14  H    0.358860
    15  O   -0.535997
    16  N   -0.635703
    17  H    0.408034
    18  C   -0.048179
    19  H    0.181945
    20  C    0.651113
    21  C   -0.105898
    22  H    0.133050
    23  O   -0.607367
    24  C   -0.272243
    25  H    0.143753
    26  H    0.162170
    27  C   -0.485260
    28  H    0.174363
    29  H    0.152828
    30  H    0.139532
    31  C   -0.460170
    32  H    0.164856
    33  H    0.153182
    34  H    0.151388
    35  N   -0.604153
    36  H    0.392800
    37  C   -0.025320
    38  H    0.151810
    39  C    0.627493
    40  C   -0.479595
    41  H    0.164927
    42  H    0.186234
    43  H    0.196839
    44  O   -0.524913
    45  N   -0.634178
    46  H    0.343845
    47  C   -0.109765
    48  H    0.222118
    49  C    0.640783
    50  C    0.148337
    51  H    0.153308
    52  O   -0.522765
    53  C   -0.492756
    54  H    0.199683
    55  H    0.166385
    56  H    0.166474
    57  O   -0.673722
    58  H    0.427361
    59  N   -0.611466
    60  H    0.352752
    61  C   -0.113414
    62  H    0.200710
    63  C    0.624760
    64  C   -0.031246
    65  H    0.180045
    66  H    0.144934
    67  O   -0.514751
    68  O   -0.608555
    69  H    0.385909
    70  N   -0.579452
    71  H    0.358187
    72  C   -0.254261
    73  H    0.189816
    74  H    0.207011
    75  C    0.635861
    76  O   -0.554695
    77  N   -0.628987
    78  H    0.364578
    79  C   -0.000634
    80  H    0.201215
    81  C    0.568520
    82  C   -0.278168
    83  H    0.164713
    84  H    0.171884
    85  O   -0.454259
    86  C   -0.282365
    87  H    0.153196
    88  H    0.188900
    89  C   -0.298426
    90  H    0.155824
    91  H    0.163922
    92  C   -0.218755
    93  H    0.195331
    94  H    0.248672
    95  N   -0.796952
    96  H    0.444645
    97  H    0.385261
    98  H    0.430242
    99  O   -0.562328
   100  H    0.430944
 Sum of Mulliken charges =   1.00000

 Dipole moment (field-independent basis, Debye):
    X=              0.5433    Y=            -13.4535    Z=             11.0413  Tot=             17.4127
 Quadrupole moment (field-independent basis, Debye-Ang):
   XX=           -153.8804   YY=           -236.2202   ZZ=           -241.5377
   XY=            -28.3579   XZ=             -3.6758   YZ=            -20.9142

 Normal termination of Gaussian 16 at Fri May 27 02:44:52 2022.
