 Gaussian 16, Revision C.01,
 Gaussian 16:  ES64L-G16RevC.01  3-Jul-2019

 -------------------------------------------------------------------
 # B3LYP/6-31G* guess=read geom=check nosymm integral(ultrafinegrid)
 -------------------------------------------------------------------

 ------------------------------------------------------
 Candidate Structure: Conf:962 Charge calc in gas phase
 ------------------------------------------------------
 Structure from the checkpoint file:  "conf-962.chk"
 Charge =  1 Multiplicity = 1

                          Input orientation:
 ---------------------------------------------------------------------
 Center     Atomic      Atomic             Coordinates (Angstroms)
 Number     Number       Type             X           Y           Z
 ---------------------------------------------------------------------
      1          7           0       -7.345323    1.896555    1.309368
      2          1           0       -8.190988    1.842307    0.743439
      3          1           0       -7.649969    2.066124    2.268568
      4          6           0       -6.565861    3.039170    0.823910
      5          1           0       -6.484043    2.908753   -0.263077
      6          6           0       -5.120720    3.003428    1.354382
      7          6           0       -7.185527    4.422503    1.070597
      8          1           0       -7.395934    4.556659    2.141766
      9          1           0       -6.456821    5.196715    0.803593
     10          8           0       -4.381664    3.987334    1.303783
     11          6           0       -8.478639    4.613344    0.280132
     12          7           0       -9.057785    5.841194    0.410542
     13          1           0       -9.891846    6.036779   -0.125545
     14          1           0       -8.606471    6.602312    0.895313
     15          8           0       -8.977019    3.730248   -0.411264
     16          7           0       -4.732696    1.796580    1.835476
     17          1           0       -5.398621    1.030142    1.786997
     18          6           0       -3.373342    1.545183    2.276032
     19          1           0       -2.732456    2.239440    1.723577
     20          6           0       -3.035776    0.098894    1.900816
     21          6           0       -3.191586    1.837453    3.801267
     22          1           0       -3.552290    2.869229    3.912534
     23          8           0       -3.864328   -0.806083    1.967389
     24          6           0       -1.719582    1.810577    4.261911
     25          1           0       -1.301634    0.804089    4.117594
     26          1           0       -1.714497    1.978101    5.346854
     27          6           0       -4.060199    0.926766    4.680004
     28          1           0       -3.729814   -0.116901    4.636982
     29          1           0       -4.012336    1.253649    5.724850
     30          1           0       -5.108922    0.953540    4.368416
     31          6           0       -0.804908    2.854975    3.608063
     32          1           0        0.185900    2.849568    4.075859
     33          1           0       -0.654458    2.678987    2.535684
     34          1           0       -1.220477    3.863819    3.712319
     35          7           0       -1.755476   -0.125168    1.487976
     36          1           0       -1.066729    0.616644    1.461520
     37          6           0       -1.282409   -1.459735    1.175957
     38          1           0       -1.637050   -2.147448    1.953623
     39          6           0        0.247364   -1.419297    1.184148
     40          6           0       -1.811189   -1.959259   -0.186161
     41          1           0       -1.487224   -2.985418   -0.393359
     42          1           0       -2.902479   -1.940489   -0.158979
     43          1           0       -1.463329   -1.307419   -0.995150
     44          8           0        0.869796   -0.346795    1.136607
     45          7           0        0.875937   -2.615522    1.208551
     46          1           0        0.359384   -3.487523    1.154036
     47          6           0        2.329022   -2.758507    1.254361
     48          1           0        2.726796   -1.981949    1.917813
     49          6           0        2.921531   -2.546907   -0.154684
     50          6           0        2.678553   -4.164548    1.791841
     51          1           0        3.762320   -4.299182    1.671485
     52          8           0        3.363553   -3.480038   -0.840188
     53          6           0        2.307838   -4.348967    3.257411
     54          1           0        2.855040   -3.642791    3.890749
     55          1           0        2.560878   -5.365871    3.568605
     56          1           0        1.235589   -4.201727    3.420764
     57          8           0        1.970839   -5.138347    1.030598
     58          1           0        2.370925   -5.120471    0.142045
     59          7           0        2.916426   -1.260870   -0.580812
     60          1           0        2.423314   -0.595328    0.022764
     61          6           0        3.188662   -0.890238   -1.965657
     62          1           0        2.796890   -1.686706   -2.614624
     63          6           0        4.697196   -0.788637   -2.296987
     64          6           0        2.462699    0.434189   -2.271216
     65          1           0        2.702029    1.178035   -1.501374
     66          1           0        1.381211    0.280243   -2.268567
     67          8           0        5.187012    0.229578   -2.820029
     68          8           0        2.833855    0.960925   -3.550280
     69          1           0        3.819872    1.051475   -3.458745
     70          7           0        5.427552   -1.887146   -2.054695
     71          1           0        4.929737   -2.725172   -1.752876
     72          6           0        6.761754   -1.988074   -2.610424
     73          1           0        7.366756   -1.140438   -2.275935
     74          1           0        7.222655   -2.906503   -2.234385
     75          6           0        6.709283   -2.055153   -4.150944
     76          8           0        5.744852   -2.540606   -4.737713
     77          7           0        7.804194   -1.559548   -4.777764
     78          1           0        8.569716   -1.206398   -4.218406
     79          6           0        8.079026   -1.779518   -6.196053
     80          1           0        7.700140   -2.777422   -6.453253
     81          6           0        9.589362   -1.833563   -6.456877
     82          6           0        7.435481   -0.766020   -7.178923
     83          1           0        7.626071    0.253939   -6.821551
     84          1           0        7.982713   -0.879538   -8.118779
     85          8           0       10.068143   -1.961742   -7.556561
     86          6           0        5.934136   -0.987669   -7.458473
     87          1           0        5.736835   -0.761114   -8.513624
     88          1           0        5.701791   -2.048776   -7.317036
     89          6           0        4.966449   -0.143942   -6.604078
     90          1           0        4.958616    0.891084   -6.975911
     91          1           0        5.284611   -0.118082   -5.558333
     92          6           0        3.569346   -0.750777   -6.692315
     93          1           0        3.273329   -0.938415   -7.728470
     94          1           0        3.526291   -1.688515   -6.133455
     95          7           0        2.506207    0.159777   -6.103620
     96          1           0        1.568111   -0.231668   -6.235899
     97          1           0        2.516116    1.075531   -6.565284
     98          1           0        2.634951    0.345479   -5.058129
     99          8           0       10.332345   -1.724668   -5.329633
    100          1           0       11.269168   -1.770353   -5.602631
 ---------------------------------------------------------------------

 SCF Done:  E(RB3LYP) =  -2418.46126243     A.U. after    1 cycles

 Alpha  occ. eigenvalues --  -19.30042 -19.28619 -19.24648 -19.24175 -19.23690
 Alpha  occ. eigenvalues --  -19.22810 -19.22721 -19.22283 -19.17549 -19.15732
 Alpha  occ. eigenvalues --  -19.14816 -14.58635 -14.47569 -14.47230 -14.46780
 Alpha  occ. eigenvalues --  -14.46712 -14.42667 -14.40059 -14.39202 -14.35932
 Alpha  occ. eigenvalues --  -10.42204 -10.40973 -10.40481 -10.39587 -10.39329
 Alpha  occ. eigenvalues --  -10.37967 -10.36463 -10.35966 -10.34696 -10.34535
 Alpha  occ. eigenvalues --  -10.33914 -10.33572 -10.33408 -10.33098 -10.32001
 Alpha  occ. eigenvalues --  -10.31973 -10.31456 -10.29564 -10.29128 -10.27873
 Alpha  occ. eigenvalues --  -10.26458 -10.26356 -10.25582 -10.24064 -10.23639
 Alpha  occ. eigenvalues --  -10.23297 -10.22739 -10.21487  -1.20712  -1.17203
 Alpha  occ. eigenvalues --   -1.15723  -1.14806  -1.14189  -1.13882  -1.12921
 Alpha  occ. eigenvalues --   -1.11661  -1.10519  -1.09648  -1.07460  -1.06615
 Alpha  occ. eigenvalues --   -1.04666  -1.03586  -1.03277  -1.02661  -0.99244
 Alpha  occ. eigenvalues --   -0.96343  -0.94679  -0.92882  -0.92674  -0.89666
 Alpha  occ. eigenvalues --   -0.88695  -0.87046  -0.85659  -0.84285  -0.84053
 Alpha  occ. eigenvalues --   -0.82155  -0.80261  -0.79966  -0.78542  -0.77006
 Alpha  occ. eigenvalues --   -0.76709  -0.75967  -0.73871  -0.73001  -0.71913
 Alpha  occ. eigenvalues --   -0.71502  -0.70705  -0.70292  -0.69810  -0.69090
 Alpha  occ. eigenvalues --   -0.68881  -0.68620  -0.68172  -0.67562  -0.65421
 Alpha  occ. eigenvalues --   -0.65240  -0.64330  -0.63640  -0.63274  -0.62850
 Alpha  occ. eigenvalues --   -0.62636  -0.62412  -0.61660  -0.60387  -0.60092
 Alpha  occ. eigenvalues --   -0.59828  -0.59318  -0.59016  -0.58500  -0.58264
 Alpha  occ. eigenvalues --   -0.57797  -0.57169  -0.56850  -0.56636  -0.55674
 Alpha  occ. eigenvalues --   -0.55477  -0.55210  -0.54569  -0.54332  -0.53736
 Alpha  occ. eigenvalues --   -0.53475  -0.53109  -0.52720  -0.52454  -0.52231
 Alpha  occ. eigenvalues --   -0.52129  -0.51985  -0.51814  -0.51267  -0.51213
 Alpha  occ. eigenvalues --   -0.50399  -0.50296  -0.50106  -0.49628  -0.49553
 Alpha  occ. eigenvalues --   -0.49376  -0.48636  -0.48517  -0.47953  -0.47798
 Alpha  occ. eigenvalues --   -0.47726  -0.47183  -0.46994  -0.46727  -0.46513
 Alpha  occ. eigenvalues --   -0.46397  -0.45855  -0.45520  -0.45117  -0.45030
 Alpha  occ. eigenvalues --   -0.44928  -0.44809  -0.44720  -0.44429  -0.44141
 Alpha  occ. eigenvalues --   -0.43647  -0.42733  -0.42361  -0.41995  -0.41636
 Alpha  occ. eigenvalues --   -0.41462  -0.41365  -0.40694  -0.40160  -0.40071
 Alpha  occ. eigenvalues --   -0.39333  -0.39029  -0.38314  -0.38052  -0.38036
 Alpha  occ. eigenvalues --   -0.37108  -0.37017  -0.36863  -0.36600  -0.36051
 Alpha  occ. eigenvalues --   -0.35958  -0.35459  -0.34847  -0.32101  -0.31486
 Alpha  occ. eigenvalues --   -0.31221  -0.30402  -0.29234  -0.28705  -0.27597
 Alpha virt. eigenvalues --   -0.11183  -0.10554  -0.09902  -0.09193  -0.08190
 Alpha virt. eigenvalues --   -0.08110  -0.04867  -0.03952  -0.03379  -0.02553
 Alpha virt. eigenvalues --   -0.02060  -0.01877  -0.01207  -0.00570  -0.00122

 Mulliken charges:
               1
     1  N   -0.748881
     2  H    0.338379
     3  H    0.298186
     4  C   -0.061941
     5  H    0.181504
     6  C    0.606557
     7  C   -0.387129
     8  H    0.160911
     9  H    0.192250
    10  O   -0.555463
    11  C    0.606546
    12  N   -0.749648
    13  H    0.346406
    14  H    0.341338
    15  O   -0.515883
    16  N   -0.618479
    17  H    0.373324
    18  C   -0.041326
    19  H    0.164990
    20  C    0.626423
    21  C   -0.074720
    22  H    0.153155
    23  O   -0.536723
    24  C   -0.264175
    25  H    0.124484
    26  H    0.145242
    27  C   -0.456639
    28  H    0.153229
    29  H    0.145438
    30  H    0.152478
    31  C   -0.452892
    32  H    0.146853
    33  H    0.129706
    34  H    0.164586
    35  N   -0.634138
    36  H    0.359575
    37  C   -0.024735
    38  H    0.190004
    39  C    0.623938
    40  C   -0.452378
    41  H    0.145132
    42  H    0.215713
    43  H    0.139550
    44  O   -0.566612
    45  N   -0.608190
    46  H    0.363897
    47  C   -0.071703
    48  H    0.191199
    49  C    0.635784
    50  C    0.102783
    51  H    0.147529
    52  O   -0.560885
    53  C   -0.451307
    54  H    0.155875
    55  H    0.184055
    56  H    0.158622
    57  O   -0.637235
    58  H    0.418368
    59  N   -0.626840
    60  H    0.396555
    61  C   -0.085291
    62  H    0.186728
    63  C    0.646880
    64  C   -0.076522
    65  H    0.185774
    66  H    0.181504
    67  O   -0.574351
    68  O   -0.668501
    69  H    0.450600
    70  N   -0.575915
    71  H    0.393450
    72  C   -0.249597
    73  H    0.195621
    74  H    0.204939
    75  C    0.634227
    76  O   -0.542831
    77  N   -0.610207
    78  H    0.361386
    79  C   -0.045151
    80  H    0.208580
    81  C    0.589859
    82  C   -0.279123
    83  H    0.155440
    84  H    0.197514
    85  O   -0.435995
    86  C   -0.278069
    87  H    0.155758
    88  H    0.175100
    89  C   -0.287225
    90  H    0.148578
    91  H    0.194090
    92  C   -0.204153
    93  H    0.201751
    94  H    0.233158
    95  N   -0.767577
    96  H    0.404034
    97  H    0.403200
    98  H    0.438494
    99  O   -0.582687
   100  H    0.433887
 Sum of Mulliken charges =   1.00000

 Dipole moment (field-independent basis, Debye):
    X=             18.1141    Y=             -0.8053    Z=            -18.1211  Tot=             25.6348
 Quadrupole moment (field-independent basis, Debye-Ang):
   XX=           -142.7548   YY=           -255.6313   ZZ=           -142.1961
   XY=            -54.1496   XZ=            -84.3463   YZ=              2.5089

 Normal termination of Gaussian 16 at Fri May 27 02:48:56 2022.
