 Gaussian 16, Revision C.01,
 Gaussian 16:  ES64L-G16RevC.01  3-Jul-2019

 -------------------------------------------------------------------
 # B3LYP/6-31G* guess=read geom=check nosymm integral(ultrafinegrid)
 -------------------------------------------------------------------

 -----------------------------------------------------
 Candidate Structure: Conf:14 Charge calc in gas phase
 -----------------------------------------------------
 Structure from the checkpoint file:  "conf-14.chk"
 Charge =  1 Multiplicity = 1

                          Input orientation:
 ---------------------------------------------------------------------
 Center     Atomic      Atomic             Coordinates (Angstroms)
 Number     Number       Type             X           Y           Z
 ---------------------------------------------------------------------
      1          7           0       -7.576130    2.592863    3.309854
      2          1           0       -8.455408    2.102321    3.464622
      3          1           0       -7.764038    3.348904    2.652180
      4          6           0       -6.581706    1.687425    2.726456
      5          1           0       -6.348807    0.921125    3.475386
      6          6           0       -5.339327    2.547640    2.454911
      7          6           0       -7.033893    0.998279    1.422488
      8          1           0       -8.017791    0.536544    1.573761
      9          1           0       -7.146044    1.773946    0.653820
     10          8           0       -5.323657    3.327765    1.496794
     11          6           0       -6.026195   -0.027416    0.915915
     12          7           0       -6.542431   -1.037002    0.160137
     13          1           0       -5.907925   -1.715084   -0.238499
     14          1           0       -7.522578   -1.099386   -0.069415
     15          8           0       -4.826123    0.052970    1.164674
     16          7           0       -4.332503    2.460585    3.355386
     17          1           0       -4.335879    1.685498    4.005401
     18          6           0       -3.079793    3.212496    3.209495
     19          1           0       -3.351796    4.154356    2.722016
     20          6           0       -2.181488    2.394664    2.254595
     21          6           0       -2.416161    3.502198    4.569449
     22          1           0       -2.128985    2.533334    5.004160
     23          8           0       -1.279803    1.653842    2.639472
     24          6           0       -3.396950    4.211093    5.527947
     25          1           0       -4.356683    3.681082    5.527462
     26          1           0       -3.610896    5.216399    5.136561
     27          6           0       -1.131951    4.321367    4.358081
     28          1           0       -1.361134    5.296707    3.908741
     29          1           0       -0.626812    4.506410    5.310738
     30          1           0       -0.429301    3.794889    3.708036
     31          6           0       -2.894873    4.319130    6.972691
     32          1           0       -3.657796    4.776093    7.612604
     33          1           0       -2.664049    3.329542    7.386791
     34          1           0       -1.990731    4.931672    7.053925
     35          7           0       -2.513249    2.516424    0.939907
     36          1           0       -3.399245    2.968912    0.723587
     37          6           0       -1.982687    1.553674   -0.010900
     38          1           0       -2.244082    0.539606    0.318898
     39          6           0       -0.453210    1.684347   -0.081509
     40          6           0       -2.588312    1.803337   -1.396788
     41          1           0       -2.199141    1.081297   -2.121285
     42          1           0       -3.675982    1.689662   -1.347623
     43          1           0       -2.349747    2.811233   -1.749481
     44          8           0        0.085894    2.785421   -0.271891
     45          7           0        0.227046    0.512058   -0.027624
     46          1           0       -0.237892   -0.250505    0.457246
     47          6           0        1.690252    0.422186    0.075319
     48          1           0        2.034639    1.147195    0.825989
     49          6           0        2.361462    0.751900   -1.283036
     50          6           0        2.072510   -1.001907    0.520886
     51          1           0        1.945531   -1.665176   -0.344816
     52          8           0        2.842576   -0.120626   -2.016894
     53          6           0        3.514840   -1.078553    1.015871
     54          1           0        4.215736   -0.799670    0.223570
     55          1           0        3.755233   -2.102958    1.324174
     56          1           0        3.660257   -0.420524    1.879247
     57          8           0        1.145422   -1.353310    1.552628
     58          1           0        1.287731   -2.285154    1.777937
     59          7           0        2.381953    2.069227   -1.579513
     60          1           0        1.803516    2.644533   -0.963128
     61          6           0        2.594600    2.573374   -2.939774
     62          1           0        2.197810    1.825946   -3.639869
     63          6           0        4.092933    2.754623   -3.243514
     64          6           0        1.806682    3.881527   -3.124965
     65          1           0        2.012445    4.270603   -4.125099
     66          1           0        2.169621    4.632207   -2.407980
     67          8           0        4.584508    3.858710   -3.505525
     68          8           0        0.412031    3.675616   -3.031055
     69          1           0        0.170991    3.565182   -2.091846
     70          7           0        4.811444    1.606463   -3.226404
     71          1           0        4.313711    0.755279   -2.957658
     72          6           0        6.268664    1.594462   -3.289546
     73          1           0        6.663184    2.401871   -2.659670
     74          1           0        6.624415    0.638609   -2.904305
     75          6           0        6.850429    1.748259   -4.704922
     76          8           0        7.567940    0.893813   -5.219652
     77          7           0        6.532845    2.917130   -5.327546
     78          1           0        5.956125    3.592365   -4.821295
     79          6           0        7.098128    3.211456   -6.629422
     80          1           0        8.151045    2.889480   -6.601832
     81          6           0        7.109262    4.712278   -6.905994
     82          6           0        6.397988    2.427731   -7.761723
     83          1           0        6.215688    1.421169   -7.373650
     84          1           0        5.427394    2.890242   -7.978096
     85          8           0        7.006450    5.205154   -8.010906
     86          6           0        7.238697    2.332334   -9.041296
     87          1           0        7.437700    3.339420   -9.420169
     88          1           0        8.205223    1.867376   -8.802372
     89          6           0        6.533084    1.498612  -10.124488
     90          1           0        5.564067    1.957912  -10.366060
     91          1           0        6.332628    0.487608   -9.742272
     92          6           0        7.388683    1.416065  -11.379883
     93          1           0        7.574982    2.396764  -11.824161
     94          1           0        8.344558    0.916558  -11.204384
     95          7           0        6.682300    0.592900  -12.465718
     96          1           0        7.239242    0.520793  -13.326007
     97          1           0        5.777936    1.013894  -12.711833
     98          1           0        6.491756   -0.360811  -12.134271
     99          8           0        7.279608    5.441413   -5.789445
    100          1           0        7.283882    6.380161   -6.059123
 ---------------------------------------------------------------------

 SCF Done:  E(RB3LYP) =  -2418.41923563     A.U. after    1 cycles

 Alpha  occ. eigenvalues --  -19.27550 -19.22072 -19.20533 -19.18375 -19.18164
 Alpha  occ. eigenvalues --  -19.17912 -19.17665 -19.17649 -19.16656 -19.16032
 Alpha  occ. eigenvalues --  -19.15129 -14.65070 -14.41748 -14.41622 -14.41431
 Alpha  occ. eigenvalues --  -14.41191 -14.41187 -14.40592 -14.38750 -14.36376
 Alpha  occ. eigenvalues --  -10.41816 -10.40265 -10.34946 -10.34786 -10.34685
 Alpha  occ. eigenvalues --  -10.34437 -10.34387 -10.34089 -10.33067 -10.31797
 Alpha  occ. eigenvalues --  -10.31745 -10.29834 -10.29692 -10.29145 -10.28847
 Alpha  occ. eigenvalues --  -10.28550 -10.27841 -10.27796 -10.27602 -10.27456
 Alpha  occ. eigenvalues --  -10.26646 -10.24506 -10.22964 -10.22862 -10.22521
 Alpha  occ. eigenvalues --  -10.21012 -10.20254 -10.20070  -1.18904  -1.18659
 Alpha  occ. eigenvalues --   -1.10336  -1.09794  -1.09551  -1.09214  -1.08987
 Alpha  occ. eigenvalues --   -1.08477  -1.07924  -1.07788  -1.06631  -1.05316
 Alpha  occ. eigenvalues --   -0.98926  -0.98479  -0.97931  -0.97258  -0.96889
 Alpha  occ. eigenvalues --   -0.95724  -0.95556  -0.95200  -0.93554  -0.88114
 Alpha  occ. eigenvalues --   -0.84533  -0.84137  -0.83378  -0.81562  -0.81121
 Alpha  occ. eigenvalues --   -0.80709  -0.79056  -0.77546  -0.77514  -0.77109
 Alpha  occ. eigenvalues --   -0.75682  -0.75490  -0.73807  -0.71159  -0.70334
 Alpha  occ. eigenvalues --   -0.69708  -0.68927  -0.68021  -0.67237  -0.66786
 Alpha  occ. eigenvalues --   -0.65855  -0.64654  -0.64405  -0.63461  -0.63164
 Alpha  occ. eigenvalues --   -0.62909  -0.62660  -0.62430  -0.61139  -0.60534
 Alpha  occ. eigenvalues --   -0.59865  -0.59041  -0.58839  -0.58661  -0.57166
 Alpha  occ. eigenvalues --   -0.56612  -0.56521  -0.56465  -0.55993  -0.55928
 Alpha  occ. eigenvalues --   -0.55261  -0.54854  -0.54570  -0.54191  -0.53331
 Alpha  occ. eigenvalues --   -0.53179  -0.52744  -0.52540  -0.52054  -0.51874
 Alpha  occ. eigenvalues --   -0.51051  -0.50139  -0.49683  -0.49448  -0.49339
 Alpha  occ. eigenvalues --   -0.48981  -0.48626  -0.48569  -0.48399  -0.47767
 Alpha  occ. eigenvalues --   -0.47528  -0.47266  -0.47119  -0.46675  -0.46324
 Alpha  occ. eigenvalues --   -0.46228  -0.46117  -0.45745  -0.45598  -0.44976
 Alpha  occ. eigenvalues --   -0.44729  -0.44501  -0.44242  -0.44068  -0.44029
 Alpha  occ. eigenvalues --   -0.43816  -0.43647  -0.43410  -0.43335  -0.42833
 Alpha  occ. eigenvalues --   -0.42312  -0.42154  -0.41882  -0.41714  -0.41590
 Alpha  occ. eigenvalues --   -0.41175  -0.40945  -0.40538  -0.40435  -0.39658
 Alpha  occ. eigenvalues --   -0.39057  -0.38677  -0.38429  -0.36934  -0.36060
 Alpha  occ. eigenvalues --   -0.35689  -0.35583  -0.35196  -0.34238  -0.33771
 Alpha  occ. eigenvalues --   -0.33438  -0.32605  -0.32322  -0.32118  -0.31739
 Alpha  occ. eigenvalues --   -0.31474  -0.31362  -0.30993  -0.30596  -0.30079
 Alpha  occ. eigenvalues --   -0.29972  -0.29424  -0.28912  -0.28139  -0.27417
 Alpha virt. eigenvalues --   -0.15475  -0.08777  -0.08706  -0.07326  -0.06282
 Alpha virt. eigenvalues --   -0.05105  -0.04396  -0.03940  -0.03552  -0.03178
 Alpha virt. eigenvalues --   -0.02690  -0.02240  -0.01312  -0.00606   0.00071

 Mulliken charges:
               1
     1  N   -0.713912
     2  H    0.303998
     3  H    0.315261
     4  C   -0.050730
     5  H    0.142703
     6  C    0.674600
     7  C   -0.385425
     8  H    0.139060
     9  H    0.196741
    10  O   -0.564667
    11  C    0.616965
    12  N   -0.751431
    13  H    0.344445
    14  H    0.343549
    15  O   -0.522439
    16  N   -0.598413
    17  H    0.339911
    18  C   -0.066033
    19  H    0.176580
    20  C    0.640750
    21  C   -0.088049
    22  H    0.137527
    23  O   -0.542981
    24  C   -0.256781
    25  H    0.144462
    26  H    0.133660
    27  C   -0.470304
    28  H    0.139132
    29  H    0.151316
    30  H    0.174900
    31  C   -0.449079
    32  H    0.148819
    33  H    0.141199
    34  H    0.149617
    35  N   -0.607249
    36  H    0.371077
    37  C   -0.022198
    38  H    0.171193
    39  C    0.665263
    40  C   -0.490836
    41  H    0.160562
    42  H    0.171762
    43  H    0.180122
    44  O   -0.576619
    45  N   -0.614387
    46  H    0.373298
    47  C   -0.053538
    48  H    0.184823
    49  C    0.631197
    50  C    0.121404
    51  H    0.154204
    52  O   -0.555301
    53  C   -0.471652
    54  H    0.162960
    55  H    0.147140
    56  H    0.165989
    57  O   -0.635844
    58  H    0.404919
    59  N   -0.615978
    60  H    0.379298
    61  C   -0.075929
    62  H    0.179485
    63  C    0.627984
    64  C   -0.057127
    65  H    0.157121
    66  H    0.150279
    67  O   -0.552878
    68  O   -0.651958
    69  H    0.430896
    70  N   -0.608042
    71  H    0.383439
    72  C   -0.235752
    73  H    0.192380
    74  H    0.186058
    75  C    0.597819
    76  O   -0.529345
    77  N   -0.630234
    78  H    0.391607
    79  C   -0.017289
    80  H    0.194998
    81  C    0.574840
    82  C   -0.262129
    83  H    0.175419
    84  H    0.151980
    85  O   -0.472069
    86  C   -0.288003
    87  H    0.191143
    88  H    0.159974
    89  C   -0.293385
    90  H    0.169539
    91  H    0.170398
    92  C   -0.207726
    93  H    0.232774
    94  H    0.230681
    95  N   -0.732005
    96  H    0.431107
    97  H    0.427683
    98  H    0.427803
    99  O   -0.543403
   100  H    0.425307
 Sum of Mulliken charges =   1.00000

 Dipole moment (field-independent basis, Debye):
    X=             19.8766    Y=             -0.8680    Z=            -47.7224  Tot=             51.7036
 Quadrupole moment (field-independent basis, Debye-Ang):
   XX=            -29.2058   YY=           -274.2201   ZZ=            348.1094
   XY=             37.7541   XZ=           -337.9533   YZ=            -30.4783

 Normal termination of Gaussian 16 at Fri May 27 02:44:05 2022.
