 Gaussian 16, Revision C.01,
 Gaussian 16:  ES64L-G16RevC.01  3-Jul-2019

 -------------------------------------------------------------------
 # B3LYP/6-31G* guess=read geom=check nosymm integral(ultrafinegrid)
 -------------------------------------------------------------------

 ------------------------------------------------------
 Candidate Structure: Conf:496 Charge calc in gas phase
 ------------------------------------------------------
 Structure from the checkpoint file:  "conf-496.chk"
 Charge =  1 Multiplicity = 1

                          Input orientation:
 ---------------------------------------------------------------------
 Center     Atomic      Atomic             Coordinates (Angstroms)
 Number     Number       Type             X           Y           Z
 ---------------------------------------------------------------------
      1          7           0       -7.478962    2.735758    4.971650
      2          1           0       -7.639306    3.698678    4.666827
      3          1           0       -6.904986    2.816299    5.810607
      4          6           0       -6.699804    2.080807    3.913597
      5          1           0       -6.212552    1.196783    4.343933
      6          6           0       -5.626413    3.032986    3.347055
      7          6           0       -7.622693    1.624670    2.756904
      8          1           0       -8.200020    2.494195    2.413748
      9          1           0       -7.026291    1.276134    1.909922
     10          8           0       -5.770871    4.252991    3.397099
     11          6           0       -8.591353    0.479830    3.090296
     12          7           0       -9.271381    0.629251    4.257372
     13          1           0       -9.889251   -0.115902    4.546715
     14          1           0       -9.008141    1.382089    4.891826
     15          8           0       -8.742301   -0.465110    2.325681
     16          7           0       -4.547487    2.437983    2.773724
     17          1           0       -4.490814    1.430055    2.684922
     18          6           0       -3.532049    3.194734    2.056552
     19          1           0       -4.022715    4.085706    1.653370
     20          6           0       -3.039656    2.301859    0.916768
     21          6           0       -2.376810    3.663153    3.004852
     22          1           0       -2.907854    4.203157    3.800495
     23          8           0       -3.058925    1.066913    1.009078
     24          6           0       -1.392030    4.653615    2.348232
     25          1           0       -0.830888    4.150369    1.549452
     26          1           0       -0.644013    4.908765    3.110070
     27          6           0       -1.622296    2.484367    3.636076
     28          1           0       -1.023525    1.932750    2.903309
     29          1           0       -0.939581    2.852138    4.410356
     30          1           0       -2.308352    1.776054    4.111833
     31          6           0       -2.012541    5.960502    1.834178
     32          1           0       -1.232885    6.654635    1.501914
     33          1           0       -2.693141    5.814475    0.984221
     34          1           0       -2.593981    6.458997    2.618353
     35          7           0       -2.582383    2.926429   -0.192761
     36          1           0       -2.491335    3.933587   -0.182371
     37          6           0       -1.925986    2.189598   -1.270821
     38          1           0       -2.637349    1.444504   -1.644676
     39          6           0       -0.670190    1.486824   -0.705227
     40          6           0       -1.534044    3.154217   -2.390702
     41          1           0       -1.102372    2.602681   -3.231308
     42          1           0       -2.409145    3.702259   -2.755180
     43          1           0       -0.783289    3.864009   -2.028599
     44          8           0        0.216489    2.127723   -0.153417
     45          7           0       -0.638325    0.138933   -0.887186
     46          1           0       -1.430128   -0.326765   -1.311909
     47          6           0        0.347668   -0.721452   -0.255487
     48          1           0        1.138883   -0.067361    0.120481
     49          6           0        0.855321   -1.707906   -1.304862
     50          6           0       -0.295775   -1.477292    0.954317
     51          1           0       -1.083912   -2.127971    0.539948
     52          8           0        0.082436   -2.303218   -2.051351
     53          6           0        0.716502   -2.332921    1.709839
     54          1           0        1.147126   -3.114114    1.075072
     55          1           0        0.219574   -2.810722    2.558580
     56          1           0        1.526036   -1.707315    2.103510
     57          8           0       -0.831073   -0.559738    1.879342
     58          1           0       -1.609772   -0.112347    1.494443
     59          7           0        2.205563   -1.906030   -1.349484
     60          1           0        2.834746   -1.441333   -0.705104
     61          6           0        2.787689   -2.916729   -2.203236
     62          1           0        2.089044   -3.757397   -2.282025
     63          6           0        4.119789   -3.356187   -1.598287
     64          6           0        3.026509   -2.360193   -3.623474
     65          1           0        3.680251   -1.480720   -3.559695
     66          1           0        2.056130   -2.060472   -4.033168
     67          8           0        4.770387   -2.636317   -0.852859
     68          8           0        3.623858   -3.386660   -4.427410
     69          1           0        3.970900   -2.966083   -5.233624
     70          7           0        4.553481   -4.594207   -2.003500
     71          1           0        3.993039   -5.087274   -2.686132
     72          6           0        5.902190   -5.028343   -1.748080
     73          1           0        6.274880   -4.461415   -0.888924
     74          1           0        5.928961   -6.089650   -1.474919
     75          6           0        6.905658   -4.818355   -2.883346
     76          8           0        8.084045   -5.211930   -2.732641
     77          7           0        6.486657   -4.222778   -4.008551
     78          1           0        5.513337   -3.893453   -4.070685
     79          6           0        7.413153   -3.858811   -5.083336
     80          1           0        8.379664   -3.630452   -4.625602
     81          6           0        6.903939   -2.589017   -5.765263
     82          6           0        7.632606   -4.938828   -6.184570
     83          1           0        6.657959   -5.300457   -6.534566
     84          1           0        8.100485   -4.426826   -7.032055
     85          8           0        5.740570   -2.255012   -5.858014
     86          6           0        8.546447   -6.115416   -5.781035
     87          1           0        9.041127   -6.499215   -6.680939
     88          1           0        9.343462   -5.712382   -5.143644
     89          6           0        7.817233   -7.283297   -5.087724
     90          1           0        7.328749   -7.910861   -5.842576
     91          1           0        7.015429   -6.914244   -4.442923
     92          6           0        8.717232   -8.208576   -4.268465
     93          1           0        8.133308   -8.999478   -3.792599
     94          1           0        9.501874   -8.674781   -4.869896
     95          7           0        9.411626   -7.452319   -3.142125
     96          1           0       10.271533   -7.003014   -3.469877
     97          1           0        9.671487   -8.073640   -2.370642
     98          1           0        8.800464   -6.656473   -2.781964
     99          8           0        7.916949   -1.902925   -6.308329
    100          1           0        7.541966   -1.131209   -6.777292
 ---------------------------------------------------------------------

 SCF Done:  E(RB3LYP) =  -2418.44817466     A.U. after    1 cycles

 Alpha  occ. eigenvalues --  -19.32610 -19.27611 -19.26459 -19.25470 -19.22432
 Alpha  occ. eigenvalues --  -19.18629 -19.18344 -19.17655 -19.16774 -19.15404
 Alpha  occ. eigenvalues --  -19.12103 -14.60170 -14.49989 -14.47373 -14.43872
 Alpha  occ. eigenvalues --  -14.42647 -14.41808 -14.39987 -14.36284 -14.35917
 Alpha  occ. eigenvalues --  -10.45657 -10.43263 -10.40530 -10.39386 -10.37508
 Alpha  occ. eigenvalues --  -10.35781 -10.35254 -10.35053 -10.34235 -10.34125
 Alpha  occ. eigenvalues --  -10.33076 -10.32960 -10.32809 -10.32612 -10.32234
 Alpha  occ. eigenvalues --  -10.30091 -10.29712 -10.29075 -10.28684 -10.27863
 Alpha  occ. eigenvalues --  -10.26777 -10.24610 -10.23410 -10.22704 -10.22298
 Alpha  occ. eigenvalues --  -10.22046 -10.21846 -10.20455  -1.23912  -1.17896
 Alpha  occ. eigenvalues --   -1.15054  -1.14731  -1.14561  -1.12195  -1.10766
 Alpha  occ. eigenvalues --   -1.10247  -1.08570  -1.07208  -1.06504  -1.05657
 Alpha  occ. eigenvalues --   -1.03873  -1.03594  -1.00338  -0.98883  -0.97931
 Alpha  occ. eigenvalues --   -0.96509  -0.95329  -0.93487  -0.91845  -0.90677
 Alpha  occ. eigenvalues --   -0.87535  -0.85981  -0.85415  -0.84157  -0.83130
 Alpha  occ. eigenvalues --   -0.81603  -0.79573  -0.79409  -0.77395  -0.76738
 Alpha  occ. eigenvalues --   -0.75643  -0.74974  -0.74289  -0.73845  -0.73407
 Alpha  occ. eigenvalues --   -0.72848  -0.71209  -0.70888  -0.69725  -0.68581
 Alpha  occ. eigenvalues --   -0.67109  -0.66768  -0.66215  -0.65556  -0.65156
 Alpha  occ. eigenvalues --   -0.64739  -0.64102  -0.63788  -0.63360  -0.62759
 Alpha  occ. eigenvalues --   -0.61546  -0.60859  -0.60493  -0.60169  -0.59765
 Alpha  occ. eigenvalues --   -0.59595  -0.59303  -0.58639  -0.58153  -0.57610
 Alpha  occ. eigenvalues --   -0.57523  -0.56720  -0.56551  -0.56235  -0.55645
 Alpha  occ. eigenvalues --   -0.55379  -0.54846  -0.54479  -0.54359  -0.54114
 Alpha  occ. eigenvalues --   -0.53726  -0.53193  -0.52892  -0.52544  -0.52092
 Alpha  occ. eigenvalues --   -0.51726  -0.51441  -0.51375  -0.50325  -0.49663
 Alpha  occ. eigenvalues --   -0.49617  -0.48668  -0.48373  -0.48268  -0.48204
 Alpha  occ. eigenvalues --   -0.47894  -0.47666  -0.47609  -0.47369  -0.47130
 Alpha  occ. eigenvalues --   -0.46984  -0.46719  -0.46001  -0.45823  -0.45219
 Alpha  occ. eigenvalues --   -0.44971  -0.44871  -0.44693  -0.44340  -0.43803
 Alpha  occ. eigenvalues --   -0.43742  -0.43659  -0.43326  -0.42932  -0.42338
 Alpha  occ. eigenvalues --   -0.42174  -0.41937  -0.41471  -0.40913  -0.40836
 Alpha  occ. eigenvalues --   -0.40753  -0.40470  -0.40324  -0.39977  -0.39140
 Alpha  occ. eigenvalues --   -0.38190  -0.37737  -0.37143  -0.37018  -0.36755
 Alpha  occ. eigenvalues --   -0.36512  -0.36102  -0.35852  -0.33394  -0.33257
 Alpha  occ. eigenvalues --   -0.32975  -0.32441  -0.32042  -0.30535  -0.30190
 Alpha  occ. eigenvalues --   -0.29168  -0.29066  -0.28589  -0.27509  -0.25817
 Alpha virt. eigenvalues --   -0.13252  -0.12218  -0.11373  -0.08460  -0.06977
 Alpha virt. eigenvalues --   -0.04975  -0.04942  -0.04663  -0.04019  -0.03243
 Alpha virt. eigenvalues --   -0.03000  -0.01994  -0.01557  -0.01367  -0.00952

 Mulliken charges:
               1
     1  N   -0.723817
     2  H    0.328269
     3  H    0.313312
     4  C   -0.094310
     5  H    0.151082
     6  C    0.602452
     7  C   -0.348093
     8  H    0.173817
     9  H    0.167139
    10  O   -0.533365
    11  C    0.568512
    12  N   -0.748738
    13  H    0.330168
    14  H    0.374268
    15  O   -0.515117
    16  N   -0.612628
    17  H    0.351498
    18  C   -0.060905
    19  H    0.179926
    20  C    0.647470
    21  C   -0.071528
    22  H    0.155370
    23  O   -0.577049
    24  C   -0.286972
    25  H    0.158801
    26  H    0.146160
    27  C   -0.474693
    28  H    0.177324
    29  H    0.146407
    30  H    0.145233
    31  C   -0.462138
    32  H    0.153790
    33  H    0.125864
    34  H    0.167044
    35  N   -0.598672
    36  H    0.353536
    37  C   -0.026716
    38  H    0.161421
    39  C    0.625389
    40  C   -0.489057
    41  H    0.168131
    42  H    0.168943
    43  H    0.182100
    44  O   -0.525409
    45  N   -0.603711
    46  H    0.347070
    47  C   -0.074699
    48  H    0.181926
    49  C    0.631724
    50  C    0.141265
    51  H    0.129353
    52  O   -0.539200
    53  C   -0.460905
    54  H    0.133908
    55  H    0.174527
    56  H    0.156007
    57  O   -0.650965
    58  H    0.448533
    59  N   -0.624205
    60  H    0.359440
    61  C   -0.053497
    62  H    0.192506
    63  C    0.598716
    64  C   -0.043585
    65  H    0.155516
    66  H    0.189384
    67  O   -0.506297
    68  O   -0.663047
    69  H    0.440054
    70  N   -0.601504
    71  H    0.351231
    72  C   -0.231661
    73  H    0.246690
    74  H    0.179609
    75  C    0.623455
    76  O   -0.604120
    77  N   -0.627560
    78  H    0.408881
    79  C   -0.025262
    80  H    0.206523
    81  C    0.584132
    82  C   -0.287018
    83  H    0.173446
    84  H    0.189637
    85  O   -0.472400
    86  C   -0.275758
    87  H    0.176083
    88  H    0.135354
    89  C   -0.290013
    90  H    0.195504
    91  H    0.168962
    92  C   -0.196022
    93  H    0.215328
    94  H    0.214846
    95  N   -0.759271
    96  H    0.411238
    97  H    0.411553
    98  H    0.449056
    99  O   -0.543738
   100  H    0.438762
 Sum of Mulliken charges =   1.00000

 Dipole moment (field-independent basis, Debye):
    X=             42.2327    Y=            -28.3107    Z=            -21.0957  Tot=             55.0466
 Quadrupole moment (field-independent basis, Debye-Ang):
   XX=             36.8624   YY=            -44.2162   ZZ=           -158.7557
   XY=           -291.0057   XZ=           -183.3457   YZ=            114.8943

 Normal termination of Gaussian 16 at Fri May 27 02:48:51 2022.
