 Gaussian 16, Revision C.01,
 Gaussian 16:  ES64L-G16RevC.01  3-Jul-2019

 -------------------------------------------------------------------
 # B3LYP/6-31G* guess=read geom=check nosymm integral(ultrafinegrid)
 -------------------------------------------------------------------

 ------------------------------------------------------
 Candidate Structure: Conf:553 Charge calc in gas phase
 ------------------------------------------------------
 Structure from the checkpoint file:  "conf-553.chk"
 Charge =  1 Multiplicity = 1

                          Input orientation:
 ---------------------------------------------------------------------
 Center     Atomic      Atomic             Coordinates (Angstroms)
 Number     Number       Type             X           Y           Z
 ---------------------------------------------------------------------
      1          7           0       -5.278265    4.236500    3.837551
      2          1           0       -4.486976    4.835408    4.079066
      3          1           0       -5.619016    3.848911    4.716621
      4          6           0       -4.784004    3.161618    2.969767
      5          1           0       -5.560355    2.388806    2.915719
      6          6           0       -3.474209    2.562693    3.504130
      7          6           0       -4.504141    3.698804    1.547616
      8          1           0       -3.815193    4.550541    1.634622
      9          1           0       -3.997177    2.936047    0.948977
     10          8           0       -2.582450    3.302422    3.941157
     11          6           0       -5.718115    4.138261    0.711573
     12          7           0       -6.719781    4.732302    1.407173
     13          1           0       -7.517473    5.081671    0.894510
     14          1           0       -6.616436    4.893313    2.406747
     15          8           0       -5.726451    3.964989   -0.499829
     16          7           0       -3.336212    1.215757    3.434528
     17          1           0       -4.072003    0.665173    3.010940
     18          6           0       -2.127864    0.511838    3.890303
     19          1           0       -1.753310    1.079553    4.748568
     20          6           0       -1.077310    0.601618    2.760657
     21          6           0       -2.427356   -0.941587    4.309325
     22          1           0       -2.697378   -1.489231    3.396029
     23          8           0       -0.811973   -0.331127    2.001825
     24          6           0       -3.620721   -1.043408    5.289420
     25          1           0       -3.780144   -2.110051    5.491202
     26          1           0       -4.539654   -0.699236    4.796517
     27          6           0       -1.162593   -1.605906    4.882173
     28          1           0       -0.765892   -1.049802    5.740269
     29          1           0       -1.398611   -2.617788    5.228616
     30          1           0       -0.373812   -1.692438    4.130902
     31          6           0       -3.464474   -0.297814    6.621004
     32          1           0       -4.346259   -0.457653    7.250546
     33          1           0       -2.593866   -0.647157    7.185806
     34          1           0       -3.358728    0.784312    6.477903
     35          7           0       -0.474588    1.820277    2.646237
     36          1           0       -0.865397    2.574663    3.213566
     37          6           0        0.258920    2.182542    1.431272
     38          1           0       -0.187793    1.610095    0.605530
     39          6           0        1.741779    1.748223    1.489408
     40          6           0        0.111964    3.681000    1.167459
     41          1           0        0.544395    3.952236    0.200289
     42          1           0       -0.947427    3.950418    1.145830
     43          1           0        0.609848    4.272874    1.941735
     44          8           0        2.673579    2.514219    1.145890
     45          7           0        1.967742    0.500601    1.908419
     46          1           0        1.173027   -0.130873    2.050616
     47          6           0        3.303042   -0.067866    2.085156
     48          1           0        3.973362    0.741489    2.391055
     49          6           0        3.799910   -0.663924    0.749088
     50          6           0        3.250441   -1.163798    3.175663
     51          1           0        4.228816   -1.666369    3.171940
     52          8           0        3.712951   -1.862430    0.486626
     53          6           0        2.982632   -0.598308    4.564289
     54          1           0        3.787383    0.077159    4.874241
     55          1           0        2.921690   -1.419917    5.283052
     56          1           0        2.036041   -0.049172    4.592002
     57          8           0        2.217308   -2.086861    2.866619
     58          1           0        2.486752   -2.516451    2.031871
     59          7           0        4.330754    0.246906   -0.107755
     60          1           0        4.371060    1.218275    0.177483
     61          6           0        4.908232   -0.115796   -1.386048
     62          1           0        5.490123   -1.035931   -1.267342
     63          6           0        5.797209    1.020364   -1.865308
     64          6           0        3.825870   -0.394045   -2.483345
     65          1           0        3.147064    0.470742   -2.534234
     66          1           0        3.252040   -1.264120   -2.156223
     67          8           0        5.617591    2.200789   -1.512297
     68          8           0        4.405999   -0.691004   -3.732038
     69          1           0        4.592942    0.154333   -4.189034
     70          7           0        6.750525    0.660845   -2.752020
     71          1           0        6.663134   -0.278984   -3.124345
     72          6           0        7.400785    1.649610   -3.589108
     73          1           0        7.950913    2.358337   -2.963639
     74          1           0        8.123976    1.136362   -4.229964
     75          6           0        6.365987    2.404063   -4.449576
     76          8           0        5.229949    1.958496   -4.634692
     77          7           0        6.783214    3.595016   -4.929292
     78          1           0        7.755126    3.876159   -4.852163
     79          6           0        5.912970    4.504824   -5.661494
     80          1           0        5.140956    3.907197   -6.153190
     81          6           0        6.763781    5.212541   -6.708919
     82          6           0        5.233486    5.555305   -4.731826
     83          1           0        5.959189    6.336086   -4.467674
     84          1           0        4.434298    6.041313   -5.302665
     85          8           0        7.974789    5.231764   -6.692909
     86          6           0        4.694394    4.907734   -3.450933
     87          1           0        4.097676    4.031704   -3.730838
     88          1           0        5.543908    4.521885   -2.876062
     89          6           0        3.866065    5.835911   -2.551035
     90          1           0        2.876912    6.018398   -2.992139
     91          1           0        4.344323    6.818658   -2.456872
     92          6           0        3.710306    5.281649   -1.130330
     93          1           0        4.651510    5.327144   -0.576764
     94          1           0        2.950676    5.824307   -0.562741
     95          7           0        3.312637    3.824734   -1.130558
     96          1           0        2.967891    3.486067   -0.192025
     97          1           0        4.122572    3.209404   -1.373187
     98          1           0        2.567858    3.648213   -1.810889
     99          8           0        6.003324    5.850168   -7.612406
    100          1           0        6.603772    6.312715   -8.229258
 ---------------------------------------------------------------------

 SCF Done:  E(RB3LYP) =  -2418.48642091     A.U. after    1 cycles

 Alpha  occ. eigenvalues --  -19.29975 -19.25339 -19.24486 -19.24201 -19.23903
 Alpha  occ. eigenvalues --  -19.23198 -19.21808 -19.21519 -19.21206 -19.21106
 Alpha  occ. eigenvalues --  -19.15787 -14.55494 -14.48404 -14.47731 -14.46479
 Alpha  occ. eigenvalues --  -14.46249 -14.45893 -14.44993 -14.40737 -14.39738
 Alpha  occ. eigenvalues --  -10.42579 -10.41493 -10.41003 -10.40285 -10.38740
 Alpha  occ. eigenvalues --  -10.37842 -10.37703 -10.37135 -10.34971 -10.34887
 Alpha  occ. eigenvalues --  -10.34093 -10.33976 -10.33812 -10.33169 -10.32672
 Alpha  occ. eigenvalues --  -10.32172 -10.31845 -10.31808 -10.31407 -10.30467
 Alpha  occ. eigenvalues --  -10.30217 -10.28940 -10.26779 -10.26695 -10.25247
 Alpha  occ. eigenvalues --  -10.25105 -10.23944 -10.23647  -1.21020  -1.16826
 Alpha  occ. eigenvalues --   -1.15285  -1.15144  -1.13581  -1.13282  -1.12435
 Alpha  occ. eigenvalues --   -1.12213  -1.10861  -1.10661  -1.09284  -1.07668
 Alpha  occ. eigenvalues --   -1.04824  -1.04313  -1.03256  -1.02547  -1.01979
 Alpha  occ. eigenvalues --   -1.01200  -0.97908  -0.94553  -0.92780  -0.89520
 Alpha  occ. eigenvalues --   -0.89013  -0.88258  -0.87182  -0.85672  -0.84094
 Alpha  occ. eigenvalues --   -0.83667  -0.82303  -0.81067  -0.79875  -0.77809
 Alpha  occ. eigenvalues --   -0.76621  -0.75582  -0.74805  -0.73211  -0.72774
 Alpha  occ. eigenvalues --   -0.71796  -0.71356  -0.70479  -0.70107  -0.69820
 Alpha  occ. eigenvalues --   -0.69082  -0.68407  -0.68292  -0.67626  -0.67379
 Alpha  occ. eigenvalues --   -0.67010  -0.65228  -0.63755  -0.63452  -0.63074
 Alpha  occ. eigenvalues --   -0.62455  -0.61911  -0.61758  -0.61249  -0.60589
 Alpha  occ. eigenvalues --   -0.60457  -0.59942  -0.59424  -0.59079  -0.58766
 Alpha  occ. eigenvalues --   -0.58571  -0.58192  -0.57934  -0.57705  -0.57490
 Alpha  occ. eigenvalues --   -0.56978  -0.56605  -0.55900  -0.55395  -0.55265
 Alpha  occ. eigenvalues --   -0.54304  -0.54171  -0.53988  -0.53562  -0.53320
 Alpha  occ. eigenvalues --   -0.52744  -0.52498  -0.52307  -0.51813  -0.51548
 Alpha  occ. eigenvalues --   -0.51379  -0.51225  -0.51111  -0.50655  -0.50607
 Alpha  occ. eigenvalues --   -0.50214  -0.50132  -0.49911  -0.49522  -0.49355
 Alpha  occ. eigenvalues --   -0.48416  -0.48067  -0.47739  -0.47502  -0.47417
 Alpha  occ. eigenvalues --   -0.47227  -0.46841  -0.46456  -0.46229  -0.46098
 Alpha  occ. eigenvalues --   -0.45940  -0.45789  -0.45604  -0.45023  -0.44923
 Alpha  occ. eigenvalues --   -0.44684  -0.44348  -0.44275  -0.44122  -0.43053
 Alpha  occ. eigenvalues --   -0.42439  -0.42066  -0.41706  -0.41038  -0.40036
 Alpha  occ. eigenvalues --   -0.39959  -0.39448  -0.39254  -0.39140  -0.39006
 Alpha  occ. eigenvalues --   -0.38595  -0.38247  -0.37871  -0.37122  -0.37100
 Alpha  occ. eigenvalues --   -0.36903  -0.35993  -0.35145  -0.34666  -0.34325
 Alpha  occ. eigenvalues --   -0.33701  -0.33366  -0.32921  -0.31239  -0.29675
 Alpha virt. eigenvalues --   -0.11183  -0.10202  -0.09744  -0.09199  -0.08436
 Alpha virt. eigenvalues --   -0.08277  -0.07331  -0.06461  -0.02647  -0.02590
 Alpha virt. eigenvalues --   -0.02207  -0.01716  -0.01202  -0.01180  -0.00874

 Mulliken charges:
               1
     1  N   -0.721958
     2  H    0.328881
     3  H    0.321704
     4  C   -0.083605
     5  H    0.155985
     6  C    0.617574
     7  C   -0.358661
     8  H    0.174020
     9  H    0.166277
    10  O   -0.560381
    11  C    0.579035
    12  N   -0.751449
    13  H    0.341055
    14  H    0.377282
    15  O   -0.509578
    16  N   -0.609113
    17  H    0.348221
    18  C   -0.051701
    19  H    0.184441
    20  C    0.619547
    21  C   -0.103839
    22  H    0.153262
    23  O   -0.533007
    24  C   -0.259036
    25  H    0.154382
    26  H    0.119697
    27  C   -0.485611
    28  H    0.142867
    29  H    0.160181
    30  H    0.192101
    31  C   -0.459027
    32  H    0.159655
    33  H    0.159453
    34  H    0.144177
    35  N   -0.616668
    36  H    0.384287
    37  C   -0.056131
    38  H    0.195992
    39  C    0.638865
    40  C   -0.470511
    41  H    0.123571
    42  H    0.186913
    43  H    0.179482
    44  O   -0.606544
    45  N   -0.594184
    46  H    0.409249
    47  C   -0.082382
    48  H    0.174614
    49  C    0.638508
    50  C    0.119461
    51  H    0.147320
    52  O   -0.527466
    53  C   -0.456290
    54  H    0.148683
    55  H    0.181523
    56  H    0.154175
    57  O   -0.633566
    58  H    0.424926
    59  N   -0.635916
    60  H    0.350301
    61  C   -0.054946
    62  H    0.200447
    63  C    0.615106
    64  C   -0.032348
    65  H    0.110494
    66  H    0.201058
    67  O   -0.582730
    68  O   -0.638760
    69  H    0.433851
    70  N   -0.556973
    71  H    0.367641
    72  C   -0.255338
    73  H    0.205390
    74  H    0.214249
    75  C    0.642448
    76  O   -0.544342
    77  N   -0.599833
    78  H    0.360549
    79  C   -0.047887
    80  H    0.214232
    81  C    0.589380
    82  C   -0.275964
    83  H    0.160729
    84  H    0.179815
    85  O   -0.454675
    86  C   -0.299596
    87  H    0.157829
    88  H    0.167007
    89  C   -0.290726
    90  H    0.166794
    91  H    0.183831
    92  C   -0.184657
    93  H    0.212589
    94  H    0.204143
    95  N   -0.821161
    96  H    0.451311
    97  H    0.446602
    98  H    0.386051
    99  O   -0.555694
   100  H    0.433039
 Sum of Mulliken charges =   1.00000

 Dipole moment (field-independent basis, Debye):
    X=             15.2213    Y=             18.1098    Z=             -2.0943  Tot=             23.7495
 Quadrupole moment (field-independent basis, Debye-Ang):
   XX=           -146.0750   YY=           -200.3599   ZZ=           -202.4000
   XY=             62.6698   XZ=            -96.2626   YZ=            -40.3476

 Normal termination of Gaussian 16 at Fri May 27 02:48:57 2022.
