 Gaussian 16, Revision C.01,
 Gaussian 16:  ES64L-G16RevC.01  3-Jul-2019

 -------------------------------------------------------------------
 # B3LYP/6-31G* guess=read geom=check nosymm integral(ultrafinegrid)
 -------------------------------------------------------------------

 ------------------------------------------------------
 Candidate Structure: Conf:950 Charge calc in gas phase
 ------------------------------------------------------
 Structure from the checkpoint file:  "conf-950.chk"
 Charge =  1 Multiplicity = 1

                          Input orientation:
 ---------------------------------------------------------------------
 Center     Atomic      Atomic             Coordinates (Angstroms)
 Number     Number       Type             X           Y           Z
 ---------------------------------------------------------------------
      1          7           0       -6.129679    3.400091    2.387350
      2          1           0       -5.798038    2.558162    2.855895
      3          1           0       -7.143705    3.416777    2.507726
      4          6           0       -5.892722    3.302707    0.936993
      5          1           0       -6.310931    2.380901    0.490413
      6          6           0       -4.376629    3.297615    0.688017
      7          6           0       -6.530750    4.504476    0.236851
      8          1           0       -6.191556    5.417569    0.741322
      9          1           0       -6.175731    4.568400   -0.796952
     10          8           0       -3.771165    4.203687    0.120126
     11          6           0       -8.056347    4.455735    0.273552
     12          7           0       -8.679858    5.258610   -0.634857
     13          1           0       -9.685534    5.345521   -0.581552
     14          1           0       -8.172636    5.904917   -1.220472
     15          8           0       -8.688617    3.750908    1.055436
     16          7           0       -3.723015    2.196998    1.167169
     17          1           0       -4.214831    1.392425    1.537262
     18          6           0       -2.287872    2.058998    1.019779
     19          1           0       -2.023151    2.462966    0.035990
     20          6           0       -1.971769    0.560810    1.064148
     21          6           0       -1.526575    2.889315    2.107472
     22          1           0       -2.020989    3.867359    2.070801
     23          8           0       -2.716670   -0.255940    1.596232
     24          6           0       -0.034417    3.136323    1.800661
     25          1           0        0.526755    2.191741    1.853260
     26          1           0        0.358337    3.758426    2.614673
     27          6           0       -1.710102    2.308184    3.515139
     28          1           0       -1.201186    1.343113    3.630091
     29          1           0       -1.303102    2.992409    4.267529
     30          1           0       -2.769203    2.157766    3.742985
     31          6           0        0.244663    3.853174    0.468922
     32          1           0        1.272897    4.246782    0.442004
     33          1           0        0.098639    3.206061   -0.407834
     34          1           0       -0.422010    4.710863    0.330283
     35          7           0       -0.793683    0.196683    0.478337
     36          1           0       -0.194011    0.894022    0.063093
     37          6           0       -0.300814   -1.164876    0.500284
     38          1           0       -0.707414   -1.640551    1.399544
     39          6           0        1.228480   -1.121971    0.591866
     40          6           0       -0.760277   -1.970578   -0.735212
     41          1           0       -0.399020   -3.004386   -0.711922
     42          1           0       -1.852706   -1.988764   -0.750544
     43          1           0       -0.403996   -1.502436   -1.658835
     44          8           0        1.860856   -0.080954    0.340506
     45          7           0        1.830662   -2.277132    0.940530
     46          1           0        1.266807   -3.121364    0.915017
     47          6           0        3.274571   -2.507217    0.843539
     48          1           0        3.753123   -1.526369    0.846941
     49          6           0        3.533518   -3.263536   -0.468897
     50          6           0        3.764838   -3.279764    2.097871
     51          1           0        3.213523   -4.232543    2.142834
     52          8           0        2.799264   -4.209699   -0.773351
     53          6           0        5.260032   -3.567801    2.062300
     54          1           0        5.525132   -4.223881    1.228297
     55          1           0        5.550143   -4.058634    2.994667
     56          1           0        5.832435   -2.636606    1.980573
     57          8           0        3.520904   -2.494345    3.253063
     58          1           0        2.562156   -2.440400    3.390675
     59          7           0        4.563739   -2.802270   -1.202629
     60          1           0        5.064348   -1.971785   -0.900060
     61          6           0        5.006232   -3.284192   -2.508037
     62          1           0        5.479505   -4.270292   -2.412010
     63          6           0        6.052241   -2.260222   -2.978257
     64          6           0        3.844934   -3.447317   -3.541220
     65          1           0        4.244008   -3.334630   -4.553910
     66          1           0        3.136256   -2.617455   -3.384348
     67          8           0        6.189578   -1.172443   -2.406654
     68          8           0        3.244170   -4.709178   -3.476174
     69          1           0        2.886021   -4.800803   -2.570235
     70          7           0        6.809837   -2.626895   -4.037223
     71          1           0        6.553749   -3.464219   -4.543397
     72          6           0        7.622652   -1.641647   -4.727922
     73          1           0        8.351691   -1.219273   -4.030044
     74          1           0        8.171018   -2.149883   -5.526373
     75          6           0        6.732894   -0.534268   -5.331200
     76          8           0        5.574768   -0.758568   -5.659859
     77          7           0        7.325638    0.685896   -5.433430
     78          1           0        8.294459    0.800279   -5.167937
     79          6           0        6.603514    1.859458   -5.903974
     80          1           0        5.785226    1.492088   -6.532499
     81          6           0        7.459471    2.771750   -6.778902
     82          6           0        5.999287    2.689683   -4.740115
     83          1           0        6.819576    3.049416   -4.102819
     84          1           0        5.517210    3.572388   -5.173264
     85          8           0        7.042731    3.790648   -7.275030
     86          6           0        5.014423    1.863597   -3.907175
     87          1           0        4.154617    1.582943   -4.528350
     88          1           0        5.496972    0.929683   -3.606729
     89          6           0        4.523818    2.559954   -2.626922
     90          1           0        3.940143    3.460690   -2.859487
     91          1           0        5.388696    2.876801   -2.026299
     92          6           0        3.686533    1.563022   -1.833139
     93          1           0        2.760599    1.298572   -2.349691
     94          1           0        4.245765    0.642377   -1.647965
     95          7           0        3.263045    2.075278   -0.470751
     96          1           0        2.744820    1.311896    0.025830
     97          1           0        2.641294    2.890058   -0.536196
     98          1           0        4.073721    2.352319    0.091941
     99          8           0        8.734071    2.338841   -6.913060
    100          1           0        9.193418    2.991275   -7.476895
 ---------------------------------------------------------------------

 SCF Done:  E(RB3LYP) =  -2418.43624640     A.U. after    1 cycles

 Alpha  occ. eigenvalues --  -19.29232 -19.26865 -19.24359 -19.24108 -19.23463
 Alpha  occ. eigenvalues --  -19.22982 -19.21395 -19.21249 -19.20952 -19.17440
 Alpha  occ. eigenvalues --  -19.16173 -14.59412 -14.49624 -14.47778 -14.47621
 Alpha  occ. eigenvalues --  -14.46307 -14.46037 -14.42164 -14.40535 -14.35760
 Alpha  occ. eigenvalues --  -10.43113 -10.41460 -10.40715 -10.40561 -10.38928
 Alpha  occ. eigenvalues --  -10.38536 -10.38066 -10.34910 -10.34910 -10.34730
 Alpha  occ. eigenvalues --  -10.34373 -10.34201 -10.33913 -10.33846 -10.33830
 Alpha  occ. eigenvalues --  -10.32751 -10.32538 -10.31127 -10.29415 -10.29376
 Alpha  occ. eigenvalues --  -10.28664 -10.28638 -10.27901 -10.27633 -10.27390
 Alpha  occ. eigenvalues --  -10.27144 -10.24601 -10.24144  -1.19925  -1.18013
 Alpha  occ. eigenvalues --   -1.15997  -1.15018  -1.14056  -1.13369  -1.13050
 Alpha  occ. eigenvalues --   -1.12163  -1.10895  -1.09401  -1.09295  -1.07921
 Alpha  occ. eigenvalues --   -1.05716  -1.04135  -1.03728  -1.02790  -1.02691
 Alpha  occ. eigenvalues --   -0.98894  -0.95164  -0.93369  -0.93314  -0.90560
 Alpha  occ. eigenvalues --   -0.89413  -0.88871  -0.87497  -0.86435  -0.83761
 Alpha  occ. eigenvalues --   -0.82942  -0.81886  -0.80956  -0.80656  -0.78992
 Alpha  occ. eigenvalues --   -0.77345  -0.76343  -0.75088  -0.73606  -0.73257
 Alpha  occ. eigenvalues --   -0.72385  -0.72111  -0.71491  -0.70900  -0.70191
 Alpha  occ. eigenvalues --   -0.69804  -0.69577  -0.68815  -0.68694  -0.68177
 Alpha  occ. eigenvalues --   -0.67755  -0.66433  -0.64422  -0.63751  -0.62948
 Alpha  occ. eigenvalues --   -0.62771  -0.62399  -0.61951  -0.61165  -0.60954
 Alpha  occ. eigenvalues --   -0.60757  -0.60020  -0.59309  -0.59183  -0.58603
 Alpha  occ. eigenvalues --   -0.58053  -0.57350  -0.57177  -0.56923  -0.56382
 Alpha  occ. eigenvalues --   -0.56250  -0.56037  -0.55659  -0.55513  -0.54677
 Alpha  occ. eigenvalues --   -0.54386  -0.54069  -0.53781  -0.53576  -0.53248
 Alpha  occ. eigenvalues --   -0.52826  -0.52324  -0.52242  -0.52087  -0.51684
 Alpha  occ. eigenvalues --   -0.51414  -0.51367  -0.50819  -0.50512  -0.50441
 Alpha  occ. eigenvalues --   -0.50034  -0.50002  -0.49860  -0.49479  -0.49317
 Alpha  occ. eigenvalues --   -0.49042  -0.48885  -0.48318  -0.48244  -0.48043
 Alpha  occ. eigenvalues --   -0.47618  -0.47355  -0.46999  -0.46842  -0.46143
 Alpha  occ. eigenvalues --   -0.45925  -0.45829  -0.45407  -0.45290  -0.45094
 Alpha  occ. eigenvalues --   -0.44582  -0.44475  -0.44185  -0.43306  -0.43072
 Alpha  occ. eigenvalues --   -0.42440  -0.41831  -0.41621  -0.40916  -0.40914
 Alpha  occ. eigenvalues --   -0.40736  -0.40607  -0.40193  -0.39918  -0.38641
 Alpha  occ. eigenvalues --   -0.38063  -0.37906  -0.37649  -0.37139  -0.35854
 Alpha  occ. eigenvalues --   -0.35423  -0.35396  -0.34760  -0.34597  -0.34221
 Alpha  occ. eigenvalues --   -0.31787  -0.31673  -0.31404  -0.30042  -0.28068
 Alpha virt. eigenvalues --   -0.11952  -0.11130  -0.10170  -0.09344  -0.08360
 Alpha virt. eigenvalues --   -0.07510  -0.06931  -0.05705  -0.04532  -0.03725
 Alpha virt. eigenvalues --   -0.03499  -0.03176  -0.02368  -0.02156  -0.01962

 Mulliken charges:
               1
     1  N   -0.736022
     2  H    0.288287
     3  H    0.342720
     4  C   -0.075545
     5  H    0.138175
     6  C    0.652941
     7  C   -0.363193
     8  H    0.196744
     9  H    0.164164
    10  O   -0.543030
    11  C    0.608461
    12  N   -0.748043
    13  H    0.348578
    14  H    0.341795
    15  O   -0.516327
    16  N   -0.633564
    17  H    0.349847
    18  C   -0.049210
    19  H    0.167260
    20  C    0.623929
    21  C   -0.076120
    22  H    0.181973
    23  O   -0.528040
    24  C   -0.275898
    25  H    0.115812
    26  H    0.158195
    27  C   -0.461355
    28  H    0.140493
    29  H    0.156236
    30  H    0.171190
    31  C   -0.484403
    32  H    0.116298
    33  H    0.125317
    34  H    0.210811
    35  N   -0.613905
    36  H    0.331375
    37  C   -0.060916
    38  H    0.205089
    39  C    0.646936
    40  C   -0.450898
    41  H    0.167613
    42  H    0.206704
    43  H    0.158202
    44  O   -0.599348
    45  N   -0.599373
    46  H    0.366116
    47  C   -0.079434
    48  H    0.155019
    49  C    0.651687
    50  C    0.124439
    51  H    0.147070
    52  O   -0.556669
    53  C   -0.461813
    54  H    0.164086
    55  H    0.192623
    56  H    0.151602
    57  O   -0.608340
    58  H    0.401528
    59  N   -0.635424
    60  H    0.356099
    61  C   -0.055810
    62  H    0.197967
    63  C    0.613534
    64  C   -0.024594
    65  H    0.171471
    66  H    0.126281
    67  O   -0.553973
    68  O   -0.624094
    69  H    0.429224
    70  N   -0.568892
    71  H    0.359572
    72  C   -0.248050
    73  H    0.190191
    74  H    0.204850
    75  C    0.632937
    76  O   -0.520929
    77  N   -0.603161
    78  H    0.347065
    79  C   -0.064348
    80  H    0.221175
    81  C    0.595943
    82  C   -0.267902
    83  H    0.141966
    84  H    0.184855
    85  O   -0.443347
    86  C   -0.291976
    87  H    0.165587
    88  H    0.194132
    89  C   -0.282750
    90  H    0.166630
    91  H    0.154919
    92  C   -0.204446
    93  H    0.210919
    94  H    0.222896
    95  N   -0.772983
    96  H    0.459900
    97  H    0.408288
    98  H    0.403883
    99  O   -0.574788
   100  H    0.429309
 Sum of Mulliken charges =   1.00000

 Dipole moment (field-independent basis, Debye):
    X=             21.7591    Y=              4.2913    Z=             -7.4309  Tot=             23.3900
 Quadrupole moment (field-independent basis, Debye-Ang):
   XX=           -122.3216   YY=           -246.7325   ZZ=           -255.7379
   XY=             -7.8125   XZ=            -50.0888   YZ=            -17.9686

 Normal termination of Gaussian 16 at Fri May 27 02:48:53 2022.
