 Gaussian 16, Revision C.01,
 Gaussian 16:  ES64L-G16RevC.01  3-Jul-2019

 -------------------------------------------------------------------
 # B3LYP/6-31G* guess=read geom=check nosymm integral(ultrafinegrid)
 -------------------------------------------------------------------

 ------------------------------------------------------
 Candidate Structure: Conf:841 Charge calc in gas phase
 ------------------------------------------------------
 Structure from the checkpoint file:  "conf-841.chk"
 Charge =  1 Multiplicity = 1

                          Input orientation:
 ---------------------------------------------------------------------
 Center     Atomic      Atomic             Coordinates (Angstroms)
 Number     Number       Type             X           Y           Z
 ---------------------------------------------------------------------
      1          7           0       -0.423476    5.898018    3.752458
      2          1           0        0.590153    5.912999    3.860214
      3          1           0       -0.820883    5.840678    4.688502
      4          6           0       -0.816798    4.739485    2.947988
      5          1           0       -1.909654    4.664204    2.980259
      6          6           0       -0.201409    3.443726    3.489625
      7          6           0       -0.379310    4.974190    1.501026
      8          1           0       -0.774027    5.941902    1.173724
      9          1           0        0.716008    5.048348    1.472922
     10          8           0        1.028132    3.262640    3.452336
     11          6           0       -0.799692    3.861303    0.546779
     12          7           0       -0.627029    4.138395   -0.761385
     13          1           0       -0.656734    3.397820   -1.459202
     14          1           0       -0.210214    5.013098   -1.047652
     15          8           0       -1.258435    2.784297    0.949160
     16          7           0       -1.050456    2.575073    4.085325
     17          1           0       -2.043456    2.752540    4.012801
     18          6           0       -0.607835    1.321919    4.675211
     19          1           0        0.321285    1.531171    5.213216
     20          6           0       -0.245890    0.240078    3.634891
     21          6           0       -1.619694    0.772532    5.724983
     22          1           0       -1.211970   -0.205126    6.013207
     23          8           0        0.564863   -0.645086    3.944265
     24          6           0       -3.035274    0.542181    5.150713
     25          1           0       -2.957377    0.058135    4.169894
     26          1           0       -3.533296    1.509997    4.982454
     27          6           0       -1.631154    1.674114    6.969896
     28          1           0       -2.008695    2.677055    6.737477
     29          1           0       -2.269738    1.253436    7.751193
     30          1           0       -0.625610    1.782896    7.392232
     31          6           0       -3.932679   -0.316391    6.051788
     32          1           0       -4.903644   -0.486069    5.575544
     33          1           0       -3.477727   -1.295787    6.239964
     34          1           0       -4.121938    0.157884    7.019893
     35          7           0       -0.902245    0.284811    2.457194
     36          1           0       -1.269777    1.184989    2.147871
     37          6           0       -0.751014   -0.733678    1.431132
     38          1           0       -0.765445   -1.707181    1.934883
     39          6           0        0.614752   -0.627928    0.719287
     40          6           0       -1.931004   -0.626510    0.450258
     41          1           0       -1.877523   -1.385426   -0.334997
     42          1           0       -2.872524   -0.769932    0.987958
     43          1           0       -1.944357    0.363380   -0.017201
     44          8           0        1.417608    0.270539    1.016280
     45          7           0        0.848994   -1.562395   -0.222388
     46          1           0        0.144952   -2.268798   -0.417863
     47          6           0        2.136701   -1.853282   -0.851050
     48          1           0        2.934129   -1.420036   -0.236004
     49          6           0        2.279151   -1.249806   -2.265604
     50          6           0        2.314981   -3.388409   -0.909920
     51          1           0        3.200541   -3.583692   -1.521469
     52          8           0        2.974011   -1.799285   -3.123395
     53          6           0        2.482641   -4.020460    0.464377
     54          1           0        3.365484   -3.613885    0.968656
     55          1           0        2.606752   -5.101177    0.356018
     56          1           0        1.607130   -3.843401    1.098465
     57          8           0        1.150445   -3.957588   -1.522893
     58          1           0        1.274356   -3.907756   -2.484725
     59          7           0        1.636504   -0.079124   -2.500403
     60          1           0        1.175438    0.424625   -1.752740
     61          6           0        1.803386    0.652616   -3.753682
     62          1           0        1.829375   -0.077537   -4.567910
     63          6           0        3.128027    1.450362   -3.725795
     64          6           0        0.615357    1.606178   -3.928598
     65          1           0       -0.313024    1.033185   -3.998284
     66          1           0        0.738122    2.184352   -4.853715
     67          8           0        3.156682    2.634302   -3.348179
     68          8           0        0.503066    2.459101   -2.793746
     69          1           0        1.372795    2.915267   -2.756952
     70          7           0        4.226431    0.778185   -4.122758
     71          1           0        4.144413   -0.231022   -4.221321
     72          6           0        5.563848    1.376660   -4.088850
     73          1           0        6.188847    0.880340   -4.831648
     74          1           0        5.464165    2.435620   -4.339908
     75          6           0        6.218201    1.179313   -2.710855
     76          8           0        7.079079    0.336306   -2.522843
     77          7           0        5.713546    1.996379   -1.721284
     78          1           0        4.889948    2.543468   -1.962961
     79          6           0        5.853469    1.596790   -0.321770
     80          1           0        6.726483    0.945799   -0.261630
     81          6           0        4.644655    0.762041    0.066935
     82          6           0        6.014081    2.807292    0.620091
     83          1           0        6.968704    3.278953    0.363636
     84          1           0        5.231835    3.544097    0.399166
     85          8           0        4.702587   -0.367728    0.523460
     86          6           0        6.005230    2.478343    2.135798
     87          1           0        6.526452    1.527108    2.308187
     88          1           0        6.616675    3.237771    2.632201
     89          6           0        4.614987    2.465791    2.844997
     90          1           0        3.860740    2.941858    2.207745
     91          1           0        4.682565    3.080663    3.752428
     92          6           0        4.106654    1.078345    3.253914
     93          1           0        3.885776    0.434322    2.406349
     94          1           0        4.823077    0.555587    3.893627
     95          7           0        2.819197    1.195965    4.042347
     96          1           0        2.256472    0.320489    4.044567
     97          1           0        2.175119    1.938197    3.670454
     98          1           0        3.007694    1.450612    5.015532
     99          8           0        3.500403    1.434491   -0.117844
    100          1           0        2.732951    0.899040    0.237086
 ---------------------------------------------------------------------

 SCF Done:  E(RB3LYP) =  -2418.49878016     A.U. after    1 cycles

 Alpha  occ. eigenvalues --  -19.27177 -19.24410 -19.24306 -19.24278 -19.23545
 Alpha  occ. eigenvalues --  -19.22933 -19.22922 -19.22543 -19.21930 -19.21899
 Alpha  occ. eigenvalues --  -19.19314 -14.54848 -14.48144 -14.47462 -14.46459
 Alpha  occ. eigenvalues --  -14.46455 -14.46199 -14.44530 -14.43601 -14.41996
 Alpha  occ. eigenvalues --  -10.40743 -10.40487 -10.40485 -10.39794 -10.39169
 Alpha  occ. eigenvalues --  -10.39111 -10.38976 -10.36517 -10.34983 -10.34541
 Alpha  occ. eigenvalues --  -10.34476 -10.33486 -10.33350 -10.33237 -10.32667
 Alpha  occ. eigenvalues --  -10.32606 -10.31551 -10.31168 -10.30178 -10.30007
 Alpha  occ. eigenvalues --  -10.29363 -10.28836 -10.28698 -10.28099 -10.28010
 Alpha  occ. eigenvalues --  -10.27153 -10.25912 -10.25429  -1.18856  -1.15812
 Alpha  occ. eigenvalues --   -1.15505  -1.14572  -1.14145  -1.13520  -1.12993
 Alpha  occ. eigenvalues --   -1.11485  -1.11088  -1.10769  -1.09902  -1.09706
 Alpha  occ. eigenvalues --   -1.04914  -1.03987  -1.02904  -1.02529  -1.01757
 Alpha  occ. eigenvalues --   -1.00197  -0.99892  -0.99296  -0.91409  -0.90590
 Alpha  occ. eigenvalues --   -0.89142  -0.87047  -0.86298  -0.86186  -0.85378
 Alpha  occ. eigenvalues --   -0.83794  -0.82073  -0.80583  -0.80149  -0.79477
 Alpha  occ. eigenvalues --   -0.76529  -0.75417  -0.75040  -0.73911  -0.73240
 Alpha  occ. eigenvalues --   -0.71397  -0.70812  -0.70794  -0.70150  -0.69472
 Alpha  occ. eigenvalues --   -0.68979  -0.68543  -0.68071  -0.68035  -0.67501
 Alpha  occ. eigenvalues --   -0.66522  -0.66268  -0.65501  -0.64777  -0.63654
 Alpha  occ. eigenvalues --   -0.63035  -0.62747  -0.61907  -0.61530  -0.61109
 Alpha  occ. eigenvalues --   -0.60602  -0.60311  -0.59593  -0.59067  -0.58946
 Alpha  occ. eigenvalues --   -0.58109  -0.57727  -0.57472  -0.57069  -0.56499
 Alpha  occ. eigenvalues --   -0.56296  -0.56089  -0.55393  -0.55224  -0.54974
 Alpha  occ. eigenvalues --   -0.54859  -0.54217  -0.54053  -0.54021  -0.53675
 Alpha  occ. eigenvalues --   -0.52825  -0.52747  -0.52569  -0.52438  -0.52291
 Alpha  occ. eigenvalues --   -0.52124  -0.51795  -0.51104  -0.50822  -0.50495
 Alpha  occ. eigenvalues --   -0.50394  -0.50130  -0.49621  -0.49108  -0.48880
 Alpha  occ. eigenvalues --   -0.48563  -0.48337  -0.48214  -0.48022  -0.47562
 Alpha  occ. eigenvalues --   -0.47386  -0.47281  -0.47161  -0.46817  -0.46737
 Alpha  occ. eigenvalues --   -0.46586  -0.46243  -0.46159  -0.45848  -0.45462
 Alpha  occ. eigenvalues --   -0.45343  -0.45160  -0.44761  -0.44023  -0.43819
 Alpha  occ. eigenvalues --   -0.43236  -0.42897  -0.42665  -0.42407  -0.41698
 Alpha  occ. eigenvalues --   -0.41579  -0.40436  -0.39963  -0.39266  -0.39169
 Alpha  occ. eigenvalues --   -0.38636  -0.38386  -0.37530  -0.37440  -0.36879
 Alpha  occ. eigenvalues --   -0.36704  -0.36407  -0.36231  -0.35849  -0.35235
 Alpha  occ. eigenvalues --   -0.34705  -0.33949  -0.33704  -0.32862  -0.31963
 Alpha virt. eigenvalues --   -0.10066  -0.09748  -0.09618  -0.09293  -0.08879
 Alpha virt. eigenvalues --   -0.07400  -0.07228  -0.06689  -0.05564  -0.03821
 Alpha virt. eigenvalues --   -0.02514  -0.01765  -0.01311  -0.00321  -0.00126

 Mulliken charges:
               1
     1  N   -0.696465
     2  H    0.314730
     3  H    0.313509
     4  C   -0.069387
     5  H    0.156574
     6  C    0.659313
     7  C   -0.374270
     8  H    0.197766
     9  H    0.186369
    10  O   -0.589913
    11  C    0.626921
    12  N   -0.759145
    13  H    0.387020
    14  H    0.347476
    15  O   -0.556512
    16  N   -0.621837
    17  H    0.354903
    18  C   -0.026502
    19  H    0.136706
    20  C    0.620485
    21  C   -0.108333
    22  H    0.167123
    23  O   -0.575046
    24  C   -0.283048
    25  H    0.149756
    26  H    0.128713
    27  C   -0.453694
    28  H    0.145163
    29  H    0.177981
    30  H    0.148221
    31  C   -0.452683
    32  H    0.163872
    33  H    0.158857
    34  H    0.161354
    35  N   -0.603833
    36  H    0.405722
    37  C   -0.068319
    38  H    0.199640
    39  C    0.655233
    40  C   -0.491193
    41  H    0.165476
    42  H    0.183779
    43  H    0.193120
    44  O   -0.584588
    45  N   -0.601908
    46  H    0.364008
    47  C   -0.113358
    48  H    0.235200
    49  C    0.624926
    50  C    0.090877
    51  H    0.183183
    52  O   -0.540618
    53  C   -0.451048
    54  H    0.165599
    55  H    0.180337
    56  H    0.144958
    57  O   -0.636022
    58  H    0.414171
    59  N   -0.601848
    60  H    0.354596
    61  C   -0.084329
    62  H    0.191385
    63  C    0.638947
    64  C   -0.055003
    65  H    0.169047
    66  H    0.166637
    67  O   -0.568710
    68  O   -0.660253
    69  H    0.430409
    70  N   -0.584965
    71  H    0.381116
    72  C   -0.242858
    73  H    0.201725
    74  H    0.201455
    75  C    0.587592
    76  O   -0.476276
    77  N   -0.609445
    78  H    0.364154
    79  C   -0.039882
    80  H    0.210196
    81  C    0.598045
    82  C   -0.278149
    83  H    0.177339
    84  H    0.152954
    85  O   -0.490600
    86  C   -0.298165
    87  H    0.167326
    88  H    0.169478
    89  C   -0.291154
    90  H    0.181475
    91  H    0.150275
    92  C   -0.199015
    93  H    0.237011
    94  H    0.193945
    95  N   -0.812561
    96  H    0.435810
    97  H    0.454306
    98  H    0.385661
    99  O   -0.628620
   100  H    0.469632
 Sum of Mulliken charges =   1.00000

 Dipole moment (field-independent basis, Debye):
    X=              3.1199    Y=              9.0647    Z=              9.8855  Tot=             13.7705
 Quadrupole moment (field-independent basis, Debye-Ang):
   XX=           -254.7999   YY=           -247.0498   ZZ=           -180.6004
   XY=             20.7751   XZ=              8.3075   YZ=             25.0377

 Normal termination of Gaussian 16 at Fri May 27 02:49:12 2022.
