 Gaussian 16, Revision C.01,
 Gaussian 16:  ES64L-G16RevC.01  3-Jul-2019

 -------------------------------------------------------------------
 # B3LYP/6-31G* guess=read geom=check nosymm integral(ultrafinegrid)
 -------------------------------------------------------------------

 ------------------------------------------------------
 Candidate Structure: Conf:123 Charge calc in gas phase
 ------------------------------------------------------
 Structure from the checkpoint file:  "conf-123.chk"
 Charge =  1 Multiplicity = 1

                          Input orientation:
 ---------------------------------------------------------------------
 Center     Atomic      Atomic             Coordinates (Angstroms)
 Number     Number       Type             X           Y           Z
 ---------------------------------------------------------------------
      1          7           0       -7.065034    1.444763    4.789242
      2          1           0       -6.447105    2.252829    4.696445
      3          1           0       -6.953984    1.161268    5.762193
      4          6           0       -6.540641    0.384123    3.933583
      5          1           0       -6.946375   -0.570078    4.286881
      6          6           0       -4.992854    0.299200    3.996338
      7          6           0       -7.047554    0.600822    2.484246
      8          1           0       -7.991451    1.150991    2.559567
      9          1           0       -6.355366    1.239482    1.917555
     10          8           0       -4.340255    1.193927    4.553584
     11          6           0       -7.254512   -0.689590    1.696846
     12          7           0       -8.167908   -0.617649    0.695237
     13          1           0       -8.350610   -1.450326    0.151703
     14          1           0       -8.758620    0.188344    0.557804
     15          8           0       -6.634180   -1.730219    1.923981
     16          7           0       -4.430395   -0.785003    3.423176
     17          1           0       -5.045838   -1.396778    2.880942
     18          6           0       -2.990261   -1.057330    3.483267
     19          1           0       -2.645585   -0.673577    4.451442
     20          6           0       -2.293063   -0.234737    2.372122
     21          6           0       -2.676573   -2.565549    3.389828
     22          1           0       -2.911393   -2.883595    2.364639
     23          8           0       -1.905005   -0.725826    1.307904
     24          6           0       -3.539125   -3.385047    4.374233
     25          1           0       -4.598111   -3.147515    4.223031
     26          1           0       -3.301977   -3.073404    5.402434
     27          6           0       -1.174800   -2.794638    3.629622
     28          1           0       -0.904694   -2.532856    4.662233
     29          1           0       -0.913461   -3.846213    3.479153
     30          1           0       -0.555076   -2.207160    2.948286
     31          6           0       -3.365482   -4.903375    4.245755
     32          1           0       -4.065127   -5.426868    4.906737
     33          1           0       -3.565426   -5.237635    3.220185
     34          1           0       -2.355535   -5.230866    4.512928
     35          7           0       -2.175296    1.089107    2.656261
     36          1           0       -2.671719    1.417578    3.486490
     37          6           0       -1.851272    2.076164    1.619404
     38          1           0       -2.247511    1.689240    0.670636
     39          6           0       -0.324560    2.224140    1.430447
     40          6           0       -2.493934    3.419180    1.954950
     41          1           0       -2.290002    4.146953    1.166232
     42          1           0       -3.576878    3.301109    2.061196
     43          1           0       -2.087672    3.824361    2.886176
     44          8           0        0.258793    3.297085    1.615862
     45          7           0        0.316018    1.103545    1.014801
     46          1           0       -0.223686    0.237116    0.954973
     47          6           0        1.774338    1.050672    0.959047
     48          1           0        2.151627    1.710296    1.753643
     49          6           0        2.281448    1.617331   -0.386942
     50          6           0        2.282063   -0.388282    1.200095
     51          1           0        2.033397   -0.992853    0.323482
     52          8           0        2.803134    0.899886   -1.254556
     53          6           0        3.791129   -0.435538    1.437397
     54          1           0        4.338935   -0.064276    0.567478
     55          1           0        4.096581   -1.468260    1.629750
     56          1           0        4.069509    0.171135    2.310138
     57          8           0        1.572955   -0.996899    2.276077
     58          1           0        1.777529   -0.507943    3.090169
     59          7           0        2.108217    2.947983   -0.543577
     60          1           0        1.644829    3.475092    0.201904
     61          6           0        2.360898    3.615164   -1.819299
     62          1           0        2.059499    2.932590   -2.624262
     63          6           0        3.865487    3.911653   -1.985764
     64          6           0        1.549130    4.913126   -1.912780
     65          1           0        0.483444    4.675272   -1.837315
     66          1           0        1.731000    5.360494   -2.901741
     67          8           0        4.344509    5.043165   -1.896482
     68          8           0        1.848354    5.802956   -0.858800
     69          1           0        2.791765    6.022276   -0.974859
     70          7           0        4.630952    2.820181   -2.278832
     71          1           0        4.183710    1.910392   -2.136929
     72          6           0        6.078243    2.940300   -2.288545
     73          1           0        6.451938    3.424334   -1.380312
     74          1           0        6.507340    1.934469   -2.338437
     75          6           0        6.631553    3.768743   -3.454866
     76          8           0        7.745562    4.277876   -3.400768
     77          7           0        5.827054    3.847843   -4.559405
     78          1           0        4.865492    3.542202   -4.440610
     79          6           0        6.003738    4.921321   -5.520414
     80          1           0        6.537648    5.745085   -5.028760
     81          6           0        4.614984    5.429459   -5.904858
     82          6           0        6.807682    4.510996   -6.777339
     83          1           0        6.289713    3.681248   -7.276515
     84          1           0        6.814964    5.358751   -7.472581
     85          8           0        3.573724    4.926798   -5.544247
     86          6           0        8.244437    4.101625   -6.431053
     87          1           0        8.728882    4.907986   -5.868897
     88          1           0        8.227394    3.237937   -5.758800
     89          6           0        9.077063    3.767290   -7.681362
     90          1           0        9.108880    4.636757   -8.353418
     91          1           0        8.608374    2.941539   -8.235501
     92          6           0       10.491194    3.379677   -7.271490
     93          1           0       11.010456    4.188100   -6.751296
     94          1           0       10.514306    2.484659   -6.645308
     95          7           0       11.351634    3.052990   -8.499160
     96          1           0       12.310831    2.789422   -8.241645
     97          1           0       11.408729    3.860124   -9.132398
     98          1           0       10.946876    2.275590   -9.035309
     99          8           0        4.684455    6.506964   -6.709670
    100          1           0        3.766502    6.781597   -6.899500
 ---------------------------------------------------------------------

 SCF Done:  E(RB3LYP) =  -2418.43201009     A.U. after    1 cycles

 Alpha  occ. eigenvalues --  -19.28760 -19.23270 -19.19474 -19.18958 -19.18812
 Alpha  occ. eigenvalues --  -19.17899 -19.17875 -19.17380 -19.16431 -19.16162
 Alpha  occ. eigenvalues --  -19.16111 -14.65614 -14.43103 -14.42299 -14.41406
 Alpha  occ. eigenvalues --  -14.41222 -14.40004 -14.39606 -14.39480 -14.35215
 Alpha  occ. eigenvalues --  -10.42381 -10.41224 -10.36192 -10.35207 -10.34937
 Alpha  occ. eigenvalues --  -10.34905 -10.34519 -10.33050 -10.32878 -10.32684
 Alpha  occ. eigenvalues --  -10.32531 -10.30672 -10.29857 -10.29616 -10.28862
 Alpha  occ. eigenvalues --  -10.28801 -10.28263 -10.28125 -10.27723 -10.26970
 Alpha  occ. eigenvalues --  -10.26886 -10.24840 -10.22430 -10.22340 -10.22061
 Alpha  occ. eigenvalues --  -10.21059 -10.20149 -10.19732  -1.19751  -1.19445
 Alpha  occ. eigenvalues --   -1.11269  -1.10746  -1.10350  -1.09322  -1.09014
 Alpha  occ. eigenvalues --   -1.08274  -1.07756  -1.07130  -1.06833  -1.05633
 Alpha  occ. eigenvalues --   -1.00586  -0.98637  -0.97601  -0.96774  -0.96422
 Alpha  occ. eigenvalues --   -0.96023  -0.95909  -0.95566  -0.92764  -0.89179
 Alpha  occ. eigenvalues --   -0.84484  -0.84249  -0.83425  -0.81740  -0.80967
 Alpha  occ. eigenvalues --   -0.80603  -0.79601  -0.78504  -0.78059  -0.76928
 Alpha  occ. eigenvalues --   -0.76050  -0.75336  -0.73408  -0.71322  -0.70469
 Alpha  occ. eigenvalues --   -0.69772  -0.69180  -0.68581  -0.67181  -0.66746
 Alpha  occ. eigenvalues --   -0.66687  -0.65744  -0.64577  -0.64410  -0.63432
 Alpha  occ. eigenvalues --   -0.63351  -0.62529  -0.61415  -0.61008  -0.59930
 Alpha  occ. eigenvalues --   -0.59861  -0.59293  -0.59205  -0.58351  -0.57699
 Alpha  occ. eigenvalues --   -0.57558  -0.57258  -0.56457  -0.56273  -0.55252
 Alpha  occ. eigenvalues --   -0.55226  -0.54825  -0.54718  -0.54290  -0.54177
 Alpha  occ. eigenvalues --   -0.53243  -0.52367  -0.52261  -0.52038  -0.51994
 Alpha  occ. eigenvalues --   -0.51579  -0.51227  -0.50823  -0.50354  -0.50014
 Alpha  occ. eigenvalues --   -0.49143  -0.48747  -0.48722  -0.48089  -0.48037
 Alpha  occ. eigenvalues --   -0.47670  -0.47284  -0.47176  -0.47010  -0.46618
 Alpha  occ. eigenvalues --   -0.46464  -0.46145  -0.46105  -0.45915  -0.45880
 Alpha  occ. eigenvalues --   -0.45478  -0.45065  -0.44935  -0.44769  -0.43922
 Alpha  occ. eigenvalues --   -0.43598  -0.43513  -0.42831  -0.42646  -0.42442
 Alpha  occ. eigenvalues --   -0.42272  -0.42139  -0.41825  -0.41613  -0.41189
 Alpha  occ. eigenvalues --   -0.41003  -0.40849  -0.40842  -0.40229  -0.39534
 Alpha  occ. eigenvalues --   -0.39130  -0.38535  -0.37850  -0.37123  -0.36953
 Alpha  occ. eigenvalues --   -0.35998  -0.35424  -0.34984  -0.34381  -0.33935
 Alpha  occ. eigenvalues --   -0.33561  -0.33160  -0.32651  -0.32192  -0.31988
 Alpha  occ. eigenvalues --   -0.31759  -0.31587  -0.31277  -0.31260  -0.30157
 Alpha  occ. eigenvalues --   -0.29713  -0.29204  -0.28700  -0.28204  -0.27753
 Alpha virt. eigenvalues --   -0.16003  -0.09299  -0.09262  -0.08222  -0.06738
 Alpha virt. eigenvalues --   -0.05277  -0.05124  -0.03990  -0.03234  -0.03208
 Alpha virt. eigenvalues --   -0.02924  -0.02296  -0.01938  -0.01302  -0.01142

 Mulliken charges:
               1
     1  N   -0.699600
     2  H    0.311263
     3  H    0.309937
     4  C   -0.078401
     5  H    0.173568
     6  C    0.568714
     7  C   -0.376823
     8  H    0.183775
     9  H    0.181045
    10  O   -0.555885
    11  C    0.619090
    12  N   -0.740098
    13  H    0.353626
    14  H    0.348894
    15  O   -0.526045
    16  N   -0.625432
    17  H    0.395870
    18  C   -0.042365
    19  H    0.166524
    20  C    0.623206
    21  C   -0.092436
    22  H    0.149904
    23  O   -0.551130
    24  C   -0.255353
    25  H    0.139670
    26  H    0.128445
    27  C   -0.489182
    28  H    0.128728
    29  H    0.151866
    30  H    0.194161
    31  C   -0.448805
    32  H    0.146499
    33  H    0.146147
    34  H    0.149118
    35  N   -0.617751
    36  H    0.381783
    37  C   -0.054387
    38  H    0.174449
    39  C    0.620179
    40  C   -0.462322
    41  H    0.170359
    42  H    0.149085
    43  H    0.176573
    44  O   -0.543410
    45  N   -0.620167
    46  H    0.394296
    47  C   -0.074986
    48  H    0.166165
    49  C    0.638483
    50  C    0.128337
    51  H    0.170625
    52  O   -0.567797
    53  C   -0.473423
    54  H    0.159971
    55  H    0.168565
    56  H    0.135180
    57  O   -0.611662
    58  H    0.390445
    59  N   -0.614844
    60  H    0.399383
    61  C   -0.073847
    62  H    0.174470
    63  C    0.613941
    64  C   -0.054955
    65  H    0.156244
    66  H    0.144473
    67  O   -0.534564
    68  O   -0.625239
    69  H    0.417752
    70  N   -0.638448
    71  H    0.385807
    72  C   -0.216532
    73  H    0.206659
    74  H    0.179077
    75  C    0.603591
    76  O   -0.531152
    77  N   -0.602536
    78  H    0.365220
    79  C   -0.038702
    80  H    0.204833
    81  C    0.589787
    82  C   -0.271919
    83  H    0.152505
    84  H    0.166384
    85  O   -0.457925
    86  C   -0.266639
    87  H    0.179851
    88  H    0.178755
    89  C   -0.295074
    90  H    0.166464
    91  H    0.166842
    92  C   -0.206673
    93  H    0.235592
    94  H    0.233714
    95  N   -0.732375
    96  H    0.432792
    97  H    0.427856
    98  H    0.427555
    99  O   -0.563798
   100  H    0.428588
 Sum of Mulliken charges =   1.00000

 Dipole moment (field-independent basis, Debye):
    X=             40.7877    Y=             12.4945    Z=            -37.9741  Tot=             57.1120
 Quadrupole moment (field-independent basis, Debye-Ang):
   XX=            304.8547   YY=           -254.7597   ZZ=             57.1928
   XY=            132.2336   XZ=           -407.4996   YZ=           -136.9280

 Normal termination of Gaussian 16 at Fri May 27 02:49:11 2022.
