 Gaussian 16, Revision C.01,
 Gaussian 16:  ES64L-G16RevC.01  3-Jul-2019

 -------------------------------------------------------------------
 # B3LYP/6-31G* guess=read geom=check nosymm integral(ultrafinegrid)
 -------------------------------------------------------------------

 -----------------------------------------------------
 Candidate Structure: Conf:34 Charge calc in gas phase
 -----------------------------------------------------
 Structure from the checkpoint file:  "conf-34.chk"
 Charge =  1 Multiplicity = 1

                          Input orientation:
 ---------------------------------------------------------------------
 Center     Atomic      Atomic             Coordinates (Angstroms)
 Number     Number       Type             X           Y           Z
 ---------------------------------------------------------------------
      1          7           0       -4.068437    2.517864   -3.331141
      2          1           0       -4.974281    2.379952   -3.772372
      3          1           0       -3.693656    3.397656   -3.683020
      4          6           0       -3.173735    1.404414   -3.606976
      5          1           0       -3.748430    0.486726   -3.422387
      6          6           0       -2.016699    1.359776   -2.580174
      7          6           0       -2.639497    1.272560   -5.067569
      8          1           0       -2.094031    0.326507   -5.143072
      9          1           0       -3.500210    1.242815   -5.740920
     10          8           0       -0.895080    0.911432   -2.886280
     11          6           0       -1.761972    2.434448   -5.497193
     12          7           0       -0.368367    2.244403   -5.260081
     13          1           0        0.113222    3.143768   -5.284179
     14          1           0       -0.241823    1.750318   -4.356940
     15          8           0       -2.186273    3.449435   -6.007999
     16          7           0       -2.345422    1.795109   -1.359249
     17          1           0       -3.312750    2.077433   -1.227780
     18          6           0       -1.496457    1.654990   -0.176431
     19          1           0       -0.473379    1.522467   -0.540516
     20          6           0       -1.978244    0.394789    0.574248
     21          6           0       -1.585828    2.914586    0.722720
     22          1           0       -2.646313    3.031270    0.991665
     23          8           0       -3.168210    0.249641    0.843513
     24          6           0       -1.130295    4.173807   -0.043310
     25          1           0       -1.623217    4.191751   -1.023528
     26          1           0       -0.050711    4.097313   -0.241806
     27          6           0       -0.788146    2.708673    2.020085
     28          1           0        0.274957    2.533426    1.809519
     29          1           0       -0.857132    3.591534    2.661343
     30          1           0       -1.163531    1.859410    2.598816
     31          6           0       -1.428735    5.494020    0.677268
     32          1           0       -1.140785    6.347523    0.053811
     33          1           0       -2.498552    5.590622    0.898144
     34          1           0       -0.883882    5.583050    1.622539
     35          7           0       -1.014351   -0.505334    0.873257
     36          1           0       -0.029313   -0.292663    0.743144
     37          6           0       -1.261240   -1.703970    1.659167
     38          1           0       -1.884703   -1.438604    2.523345
     39          6           0        0.118914   -2.167330    2.164741
     40          6           0       -1.992336   -2.785083    0.843302
     41          1           0       -2.228530   -3.661822    1.455632
     42          1           0       -2.933022   -2.370305    0.473811
     43          1           0       -1.382731   -3.107984   -0.007048
     44          8           0        1.145833   -1.545835    1.866966
     45          7           0        0.132192   -3.265758    2.945142
     46          1           0       -0.696979   -3.829401    3.100420
     47          6           0        1.357885   -3.811462    3.523685
     48          1           0        1.994706   -2.971559    3.818948
     49          6           0        2.101840   -4.677824    2.480486
     50          6           0        0.975154   -4.673055    4.749109
     51          1           0        1.884322   -5.197401    5.075556
     52          8           0        1.987894   -5.908427    2.459505
     53          6           0        0.423298   -3.855078    5.908945
     54          1           0        1.172560   -3.146833    6.278752
     55          1           0        0.144250   -4.526598    6.725664
     56          1           0       -0.468222   -3.293066    5.611898
     57          8           0       -0.020270   -5.612072    4.353186
     58          1           0        0.432942   -6.184021    3.700755
     59          7           0        2.876143   -3.990528    1.612790
     60          1           0        2.877322   -2.972466    1.625349
     61          6           0        3.688451   -4.640739    0.604803
     62          1           0        4.110182   -5.559188    1.025752
     63          6           0        4.793120   -3.672809    0.192384
     64          6           0        2.855548   -5.040537   -0.652648
     65          1           0        2.345695   -4.143566   -1.033242
     66          1           0        2.099373   -5.758423   -0.324891
     67          8           0        4.707287   -2.461483    0.365006
     68          8           0        3.641976   -5.667000   -1.648949
     69          1           0        4.051889   -4.971407   -2.202138
     70          7           0        5.858442   -4.261905   -0.436991
     71          1           0        5.701994   -5.211007   -0.760671
     72          6           0        6.733422   -3.430592   -1.228144
     73          1           0        7.024084   -2.559393   -0.635296
     74          1           0        7.640946   -3.993317   -1.473657
     75          6           0        6.066025   -2.976503   -2.538412
     76          8           0        5.091601   -3.557131   -3.026276
     77          7           0        6.648937   -1.914576   -3.140687
     78          1           0        7.444081   -1.445109   -2.720520
     79          6           0        6.253557   -1.438410   -4.455747
     80          1           0        6.179521   -2.294197   -5.138583
     81          6           0        7.378692   -0.529925   -4.941235
     82          6           0        4.870708   -0.733013   -4.419204
     83          1           0        4.211728   -1.425761   -3.887014
     84          1           0        4.944837    0.177395   -3.811857
     85          8           0        8.273403   -0.116971   -4.237907
     86          6           0        4.276485   -0.420284   -5.800945
     87          1           0        4.806375    0.419210   -6.264380
     88          1           0        4.423419   -1.281342   -6.466798
     89          6           0        2.771197   -0.111711   -5.720586
     90          1           0        2.583691    0.691332   -4.996363
     91          1           0        2.240496   -1.001373   -5.353425
     92          6           0        2.225720    0.287786   -7.089404
     93          1           0        2.599102    1.263825   -7.409905
     94          1           0        2.485088   -0.448573   -7.855282
     95          7           0        0.714345    0.392130   -7.077624
     96          1           0        0.349960    0.628088   -8.006922
     97          1           0        0.342087    1.138619   -6.383859
     98          1           0        0.296158   -0.504264   -6.806324
     99          8           0        7.262646   -0.227275   -6.249835
    100          1           0        8.020121    0.348396   -6.473920
 ---------------------------------------------------------------------

 SCF Done:  E(RB3LYP) =  -2418.46053152     A.U. after    1 cycles

 Alpha  occ. eigenvalues --  -19.30455 -19.25189 -19.24797 -19.22054 -19.21693
 Alpha  occ. eigenvalues --  -19.20113 -19.19625 -19.19207 -19.19132 -19.18295
 Alpha  occ. eigenvalues --  -19.18127 -14.59777 -14.48107 -14.45750 -14.45359
 Alpha  occ. eigenvalues --  -14.43531 -14.43280 -14.42679 -14.42670 -14.42146
 Alpha  occ. eigenvalues --  -10.42789 -10.41784 -10.39814 -10.38884 -10.38467
 Alpha  occ. eigenvalues --  -10.36501 -10.35875 -10.35470 -10.35177 -10.34574
 Alpha  occ. eigenvalues --  -10.34238 -10.33457 -10.31366 -10.31239 -10.31004
 Alpha  occ. eigenvalues --  -10.30978 -10.30799 -10.29866 -10.29643 -10.29639
 Alpha  occ. eigenvalues --  -10.29597 -10.29509 -10.26823 -10.25289 -10.25213
 Alpha  occ. eigenvalues --  -10.24256 -10.23854 -10.22877  -1.21393  -1.16696
 Alpha  occ. eigenvalues --   -1.14378  -1.13434  -1.13422  -1.12428  -1.11654
 Alpha  occ. eigenvalues --   -1.11130  -1.10107  -1.09838  -1.07509  -1.06743
 Alpha  occ. eigenvalues --   -1.02769  -1.02478  -1.02165  -0.99946  -0.99824
 Alpha  occ. eigenvalues --   -0.99471  -0.99202  -0.98520  -0.94249  -0.89326
 Alpha  occ. eigenvalues --   -0.88665  -0.87363  -0.85571  -0.84532  -0.83347
 Alpha  occ. eigenvalues --   -0.82270  -0.81146  -0.79601  -0.78582  -0.77710
 Alpha  occ. eigenvalues --   -0.76596  -0.75695  -0.74128  -0.73020  -0.72810
 Alpha  occ. eigenvalues --   -0.72075  -0.70914  -0.70326  -0.70212  -0.69137
 Alpha  occ. eigenvalues --   -0.67969  -0.67421  -0.67022  -0.66143  -0.65150
 Alpha  occ. eigenvalues --   -0.64865  -0.64506  -0.64291  -0.64173  -0.63910
 Alpha  occ. eigenvalues --   -0.62604  -0.62028  -0.61644  -0.61088  -0.60246
 Alpha  occ. eigenvalues --   -0.59822  -0.59566  -0.58470  -0.58175  -0.57831
 Alpha  occ. eigenvalues --   -0.57424  -0.56846  -0.56724  -0.56625  -0.55971
 Alpha  occ. eigenvalues --   -0.55546  -0.54860  -0.54686  -0.54457  -0.54096
 Alpha  occ. eigenvalues --   -0.54028  -0.53837  -0.53285  -0.52868  -0.52406
 Alpha  occ. eigenvalues --   -0.52204  -0.51835  -0.51553  -0.51242  -0.51207
 Alpha  occ. eigenvalues --   -0.50743  -0.50467  -0.50410  -0.50079  -0.49687
 Alpha  occ. eigenvalues --   -0.49376  -0.49190  -0.48638  -0.48399  -0.48099
 Alpha  occ. eigenvalues --   -0.47730  -0.47385  -0.47264  -0.47052  -0.46907
 Alpha  occ. eigenvalues --   -0.46288  -0.46162  -0.45877  -0.45781  -0.45361
 Alpha  occ. eigenvalues --   -0.45233  -0.44757  -0.44554  -0.44291  -0.43973
 Alpha  occ. eigenvalues --   -0.43663  -0.43451  -0.42840  -0.42497  -0.42461
 Alpha  occ. eigenvalues --   -0.42384  -0.42336  -0.41918  -0.40030  -0.39654
 Alpha  occ. eigenvalues --   -0.39338  -0.39219  -0.38668  -0.38501  -0.37837
 Alpha  occ. eigenvalues --   -0.36807  -0.36018  -0.35825  -0.35498  -0.35172
 Alpha  occ. eigenvalues --   -0.35019  -0.34394  -0.33625  -0.33463  -0.32728
 Alpha  occ. eigenvalues --   -0.32384  -0.32329  -0.31532  -0.30674  -0.30370
 Alpha virt. eigenvalues --   -0.12553  -0.11571  -0.09894  -0.08446  -0.06960
 Alpha virt. eigenvalues --   -0.06288  -0.05781  -0.05383  -0.04916  -0.04589
 Alpha virt. eigenvalues --   -0.03710  -0.03495  -0.02336  -0.01428  -0.00697

 Mulliken charges:
               1
     1  N   -0.721911
     2  H    0.330234
     3  H    0.328381
     4  C   -0.095983
     5  H    0.201245
     6  C    0.623336
     7  C   -0.343311
     8  H    0.141743
     9  H    0.187510
    10  O   -0.588621
    11  C    0.531099
    12  N   -0.845346
    13  H    0.350854
    14  H    0.402352
    15  O   -0.431796
    16  N   -0.563733
    17  H    0.375208
    18  C   -0.059605
    19  H    0.160857
    20  C    0.628701
    21  C   -0.087538
    22  H    0.149200
    23  O   -0.542281
    24  C   -0.253533
    25  H    0.127674
    26  H    0.128777
    27  C   -0.472996
    28  H    0.146721
    29  H    0.167589
    30  H    0.166869
    31  C   -0.450501
    32  H    0.150437
    33  H    0.152562
    34  H    0.157924
    35  N   -0.616021
    36  H    0.358926
    37  C   -0.033989
    38  H    0.190704
    39  C    0.623082
    40  C   -0.456824
    41  H    0.156855
    42  H    0.193118
    43  H    0.154126
    44  O   -0.551001
    45  N   -0.609444
    46  H    0.355993
    47  C   -0.071059
    48  H    0.178150
    49  C    0.634742
    50  C    0.109574
    51  H    0.147171
    52  O   -0.549466
    53  C   -0.450020
    54  H    0.149415
    55  H    0.176147
    56  H    0.148181
    57  O   -0.649899
    58  H    0.422494
    59  N   -0.624788
    60  H    0.381527
    61  C   -0.057795
    62  H    0.191007
    63  C    0.586986
    64  C   -0.044934
    65  H    0.129519
    66  H    0.181421
    67  O   -0.525957
    68  O   -0.651119
    69  H    0.431517
    70  N   -0.572248
    71  H    0.349359
    72  C   -0.254051
    73  H    0.206651
    74  H    0.197679
    75  C    0.641043
    76  O   -0.548162
    77  N   -0.617263
    78  H    0.365950
    79  C   -0.022177
    80  H    0.195772
    81  C    0.582570
    82  C   -0.281923
    83  H    0.195756
    84  H    0.161800
    85  O   -0.448214
    86  C   -0.274150
    87  H    0.165800
    88  H    0.159510
    89  C   -0.286478
    90  H    0.173854
    91  H    0.168615
    92  C   -0.193616
    93  H    0.213278
    94  H    0.211195
    95  N   -0.771546
    96  H    0.407582
    97  H    0.448220
    98  H    0.402509
    99  O   -0.567171
   100  H    0.429400
 Sum of Mulliken charges =   1.00000

 Dipole moment (field-independent basis, Debye):
    X=              7.9240    Y=              3.3665    Z=            -27.9943  Tot=             29.2883
 Quadrupole moment (field-independent basis, Debye-Ang):
   XX=           -207.0222   YY=           -289.3924   ZZ=            -75.2648
   XY=            -11.6568   XZ=            -44.9255   YZ=             -7.9385

 Normal termination of Gaussian 16 at Fri May 27 02:44:03 2022.
