 Gaussian 16, Revision C.01,
 Gaussian 16:  ES64L-G16RevC.01  3-Jul-2019

 -------------------------------------------------------------------
 # B3LYP/6-31G* guess=read geom=check nosymm integral(ultrafinegrid)
 -------------------------------------------------------------------

 ------------------------------------------------------
 Candidate Structure: Conf:448 Charge calc in gas phase
 ------------------------------------------------------
 Structure from the checkpoint file:  "conf-448.chk"
 Charge =  1 Multiplicity = 1

                          Input orientation:
 ---------------------------------------------------------------------
 Center     Atomic      Atomic             Coordinates (Angstroms)
 Number     Number       Type             X           Y           Z
 ---------------------------------------------------------------------
      1          7           0       -0.374883    6.152330    1.501668
      2          1           0        0.377349    5.659757    1.023160
      3          1           0       -0.119957    6.186848    2.487367
      4          6           0       -1.608620    5.405024    1.335002
      5          1           0       -2.406039    5.945575    1.860340
      6          6           0       -1.538531    3.958151    1.873371
      7          6           0       -2.006472    5.368973   -0.173169
      8          1           0       -3.046821    5.044874   -0.277576
      9          1           0       -1.910638    6.388332   -0.554558
     10          8           0       -0.478755    3.317497    1.832595
     11          6           0       -1.087561    4.454708   -0.966379
     12          7           0       -1.565961    3.232296   -1.267540
     13          1           0       -0.871297    2.510726   -1.442959
     14          1           0       -2.419586    2.886310   -0.831023
     15          8           0        0.058471    4.832599   -1.281038
     16          7           0       -2.684606    3.430125    2.354045
     17          1           0       -3.538787    3.965219    2.265029
     18          6           0       -2.810936    2.023810    2.729318
     19          1           0       -1.943203    1.773590    3.347415
     20          6           0       -2.810885    1.158650    1.442485
     21          6           0       -4.118708    1.816949    3.541018
     22          1           0       -4.939877    2.132261    2.879454
     23          8           0       -3.447320    1.535132    0.454570
     24          6           0       -4.173189    2.710808    4.804533
     25          1           0       -5.162557    2.567112    5.257147
     26          1           0       -4.132193    3.767772    4.512035
     27          6           0       -4.355258    0.337145    3.884187
     28          1           0       -3.515499   -0.096626    4.438888
     29          1           0       -5.248616    0.240816    4.509900
     30          1           0       -4.514142   -0.269637    2.988264
     31          6           0       -3.093606    2.448297    5.861672
     32          1           0       -3.242209    3.107733    6.723049
     33          1           0       -3.122643    1.418108    6.231945
     34          1           0       -2.084624    2.640648    5.478265
     35          7           0       -2.106228    0.008051    1.552994
     36          1           0       -1.474313   -0.071305    2.343652
     37          6           0       -1.921509   -1.094643    0.604464
     38          1           0       -2.537098   -1.941542    0.946470
     39          6           0       -0.438083   -1.522219    0.752125
     40          6           0       -2.303622   -0.779560   -0.848151
     41          1           0       -2.243327   -1.690414   -1.452386
     42          1           0       -3.323300   -0.402227   -0.903590
     43          1           0       -1.629085   -0.033263   -1.273934
     44          8           0        0.253458   -1.090958    1.681594
     45          7           0        0.059547   -2.347574   -0.195452
     46          1           0       -0.569922   -2.838611   -0.815999
     47          6           0        1.449698   -2.822545   -0.172610
     48          1           0        1.752549   -2.908415    0.877355
     49          6           0        2.318899   -1.752612   -0.881707
     50          6           0        1.560320   -4.187923   -0.872114
     51          1           0        1.502283   -4.019563   -1.956803
     52          8           0        2.867665   -1.953988   -1.966409
     53          6           0        2.877796   -4.886131   -0.543744
     54          1           0        3.731097   -4.288306   -0.877086
     55          1           0        2.932564   -5.852062   -1.059333
     56          1           0        2.959477   -5.068392    0.533285
     57          8           0        0.428136   -4.939857   -0.428736
     58          1           0        0.475999   -5.815525   -0.843327
     59          7           0        2.371731   -0.551782   -0.241502
     60          1           0        1.823106   -0.505702    0.618555
     61          6           0        2.444268    0.723070   -0.967305
     62          1           0        1.843209    0.630145   -1.886537
     63          6           0        3.827061    1.188055   -1.453970
     64          6           0        1.787500    1.783816   -0.082402
     65          1           0        1.973925    2.783250   -0.480725
     66          1           0        2.235322    1.748225    0.921269
     67          8           0        4.062069    2.405826   -1.583140
     68          8           0        0.401886    1.489878   -0.040779
     69          1           0        0.020768    1.995277    0.710014
     70          7           0        4.712514    0.238123   -1.787366
     71          1           0        4.333587   -0.703926   -1.908817
     72          6           0        5.957787    0.590516   -2.444157
     73          1           0        6.565832    1.206587   -1.773606
     74          1           0        6.507261   -0.335015   -2.640582
     75          6           0        5.708559    1.329977   -3.774800
     76          8           0        4.676088    1.168525   -4.413655
     77          7           0        6.713516    2.166234   -4.159349
     78          1           0        7.547215    2.250734   -3.593661
     79          6           0        6.607853    2.993473   -5.354248
     80          1           0        5.892033    2.489785   -6.010379
     81          6           0        7.918825    3.102479   -6.122335
     82          6           0        6.068954    4.425042   -5.064050
     83          1           0        6.856291    5.039385   -4.606759
     84          1           0        5.829603    4.884663   -6.029366
     85          8           0        8.007894    3.618898   -7.210013
     86          6           0        4.847378    4.368219   -4.140299
     87          1           0        4.197902    3.559244   -4.493112
     88          1           0        5.179300    4.064232   -3.141707
     89          6           0        4.032995    5.663981   -4.032007
     90          1           0        3.497129    5.857288   -4.971196
     91          1           0        4.685813    6.530391   -3.868444
     92          6           0        3.039115    5.626371   -2.864273
     93          1           0        3.548488    5.721286   -1.902113
     94          1           0        2.287528    6.415718   -2.934432
     95          7           0        2.292635    4.312063   -2.792214
     96          1           0        1.422699    4.402733   -2.202109
     97          1           0        2.904649    3.565570   -2.385632
     98          1           0        2.000545    4.006277   -3.724933
     99          8           0        8.978791    2.611640   -5.436614
    100          1           0        9.765384    2.755709   -5.997601
 ---------------------------------------------------------------------

 SCF Done:  E(RB3LYP) =  -2418.47739183     A.U. after    2 cycles

 Alpha  occ. eigenvalues --  -19.28179 -19.23491 -19.23159 -19.22798 -19.22788
 Alpha  occ. eigenvalues --  -19.22342 -19.22050 -19.21975 -19.21893 -19.20633
 Alpha  occ. eigenvalues --  -19.20181 -14.53523 -14.46311 -14.46142 -14.45596
 Alpha  occ. eigenvalues --  -14.45239 -14.45089 -14.45008 -14.44606 -14.39799
 Alpha  occ. eigenvalues --  -10.40329 -10.39636 -10.39345 -10.38917 -10.38790
 Alpha  occ. eigenvalues --  -10.38499 -10.38103 -10.37814 -10.35082 -10.33627
 Alpha  occ. eigenvalues --  -10.33550 -10.32975 -10.32822 -10.32736 -10.32570
 Alpha  occ. eigenvalues --  -10.32532 -10.32462 -10.32421 -10.29741 -10.29261
 Alpha  occ. eigenvalues --  -10.28393 -10.28108 -10.27767 -10.27006 -10.26220
 Alpha  occ. eigenvalues --  -10.25618 -10.25506 -10.24731  -1.18824  -1.14561
 Alpha  occ. eigenvalues --   -1.14094  -1.13971  -1.13445  -1.13375  -1.12095
 Alpha  occ. eigenvalues --   -1.12064  -1.10945  -1.10623  -1.09800  -1.08627
 Alpha  occ. eigenvalues --   -1.02707  -1.02462  -1.02251  -1.01552  -1.01545
 Alpha  occ. eigenvalues --   -1.01165  -1.00160  -0.97681  -0.90485  -0.89877
 Alpha  occ. eigenvalues --   -0.88393  -0.87013  -0.86125  -0.85456  -0.85101
 Alpha  occ. eigenvalues --   -0.82610  -0.81784  -0.80228  -0.79249  -0.78968
 Alpha  occ. eigenvalues --   -0.75964  -0.74801  -0.73934  -0.73536  -0.72140
 Alpha  occ. eigenvalues --   -0.71359  -0.69939  -0.69410  -0.69225  -0.68325
 Alpha  occ. eigenvalues --   -0.68097  -0.67831  -0.67645  -0.67234  -0.66590
 Alpha  occ. eigenvalues --   -0.66400  -0.65048  -0.64430  -0.63580  -0.63519
 Alpha  occ. eigenvalues --   -0.62567  -0.61947  -0.61568  -0.60711  -0.60141
 Alpha  occ. eigenvalues --   -0.59802  -0.59413  -0.59028  -0.58576  -0.58327
 Alpha  occ. eigenvalues --   -0.57695  -0.57413  -0.57259  -0.56687  -0.56201
 Alpha  occ. eigenvalues --   -0.55980  -0.55556  -0.55264  -0.54820  -0.54308
 Alpha  occ. eigenvalues --   -0.54009  -0.53524  -0.53358  -0.53080  -0.52734
 Alpha  occ. eigenvalues --   -0.52242  -0.51854  -0.51737  -0.51569  -0.51306
 Alpha  occ. eigenvalues --   -0.51056  -0.50712  -0.50346  -0.50146  -0.49911
 Alpha  occ. eigenvalues --   -0.49695  -0.49436  -0.49407  -0.48937  -0.48730
 Alpha  occ. eigenvalues --   -0.48165  -0.47888  -0.47844  -0.47809  -0.47375
 Alpha  occ. eigenvalues --   -0.47241  -0.47072  -0.46630  -0.46411  -0.46226
 Alpha  occ. eigenvalues --   -0.46168  -0.45821  -0.45780  -0.45384  -0.45031
 Alpha  occ. eigenvalues --   -0.44787  -0.44503  -0.44065  -0.43956  -0.43388
 Alpha  occ. eigenvalues --   -0.42706  -0.42627  -0.41590  -0.40738  -0.40600
 Alpha  occ. eigenvalues --   -0.40420  -0.39874  -0.38991  -0.37835  -0.37690
 Alpha  occ. eigenvalues --   -0.36916  -0.36724  -0.36548  -0.36429  -0.36253
 Alpha  occ. eigenvalues --   -0.35947  -0.35716  -0.35512  -0.34584  -0.34475
 Alpha  occ. eigenvalues --   -0.34073  -0.33947  -0.33586  -0.33317  -0.32370
 Alpha virt. eigenvalues --   -0.09557  -0.09055  -0.08856  -0.08114  -0.07354
 Alpha virt. eigenvalues --   -0.07269  -0.06830  -0.06521  -0.05328  -0.02620
 Alpha virt. eigenvalues --   -0.01467  -0.01241  -0.00630  -0.00176  -0.00110

 Mulliken charges:
               1
     1  N   -0.687494
     2  H    0.320631
     3  H    0.312425
     4  C   -0.093143
     5  H    0.161333
     6  C    0.613477
     7  C   -0.340720
     8  H    0.167221
     9  H    0.206244
    10  O   -0.571975
    11  C    0.584231
    12  N   -0.745507
    13  H    0.356743
    14  H    0.389008
    15  O   -0.569198
    16  N   -0.590732
    17  H    0.345220
    18  C   -0.036166
    19  H    0.170377
    20  C    0.623564
    21  C   -0.115874
    22  H    0.146802
    23  O   -0.563696
    24  C   -0.256435
    25  H    0.155352
    26  H    0.128257
    27  C   -0.467966
    28  H    0.151933
    29  H    0.167193
    30  H    0.161756
    31  C   -0.459338
    32  H    0.164361
    33  H    0.158816
    34  H    0.148435
    35  N   -0.605824
    36  H    0.361349
    37  C   -0.030982
    38  H    0.190633
    39  C    0.649319
    40  C   -0.464147
    41  H    0.143843
    42  H    0.206651
    43  H    0.167367
    44  O   -0.557551
    45  N   -0.607546
    46  H    0.359182
    47  C   -0.066572
    48  H    0.198813
    49  C    0.626463
    50  C    0.122799
    51  H    0.154064
    52  O   -0.531112
    53  C   -0.477757
    54  H    0.171261
    55  H    0.157627
    56  H    0.166271
    57  O   -0.642109
    58  H    0.408001
    59  N   -0.628648
    60  H    0.398026
    61  C   -0.069530
    62  H    0.188571
    63  C    0.653363
    64  C   -0.070107
    65  H    0.134698
    66  H    0.164318
    67  O   -0.578219
    68  O   -0.680915
    69  H    0.462745
    70  N   -0.578511
    71  H    0.394520
    72  C   -0.245424
    73  H    0.183910
    74  H    0.201624
    75  C    0.640151
    76  O   -0.525164
    77  N   -0.606346
    78  H    0.346499
    79  C   -0.062105
    80  H    0.217742
    81  C    0.593658
    82  C   -0.271287
    83  H    0.151736
    84  H    0.179449
    85  O   -0.444080
    86  C   -0.303246
    87  H    0.158645
    88  H    0.172056
    89  C   -0.290133
    90  H    0.163014
    91  H    0.178511
    92  C   -0.182127
    93  H    0.206114
    94  H    0.207303
    95  N   -0.825347
    96  H    0.445028
    97  H    0.447098
    98  H    0.387353
    99  O   -0.577254
   100  H    0.427131
 Sum of Mulliken charges =   1.00000

 Dipole moment (field-independent basis, Debye):
    X=              6.7433    Y=              9.0367    Z=             -3.1929  Tot=             11.7188
 Quadrupole moment (field-independent basis, Debye-Ang):
   XX=           -173.3012   YY=           -192.1055   ZZ=           -253.5625
   XY=             15.7268   XZ=            -50.3295   YZ=            -11.9889

 Normal termination of Gaussian 16 at Fri May 27 02:49:55 2022.
