 Gaussian 16, Revision C.01,
 Gaussian 16:  ES64L-G16RevC.01  3-Jul-2019

 -------------------------------------------------------------------
 # B3LYP/6-31G* guess=read geom=check nosymm integral(ultrafinegrid)
 -------------------------------------------------------------------

 ------------------------------------------------------
 Candidate Structure: Conf:205 Charge calc in gas phase
 ------------------------------------------------------
 Structure from the checkpoint file:  "conf-205.chk"
 Charge =  1 Multiplicity = 1

                          Input orientation:
 ---------------------------------------------------------------------
 Center     Atomic      Atomic             Coordinates (Angstroms)
 Number     Number       Type             X           Y           Z
 ---------------------------------------------------------------------
      1          7           0       -1.507157    3.395304    2.611511
      2          1           0       -1.601378    4.164906    1.952295
      3          1           0       -1.425038    3.810971    3.539047
      4          6           0       -0.303673    2.627312    2.278273
      5          1           0       -0.257868    2.576408    1.184249
      6          6           0       -0.410599    1.171788    2.762223
      7          6           0        1.017502    3.253597    2.749686
      8          1           0        0.991127    3.431777    3.834077
      9          1           0        1.838380    2.548979    2.571279
     10          8           0        0.548104    0.385840    2.669839
     11          6           0        1.303776    4.554292    1.995977
     12          7           0        2.250451    5.358994    2.559648
     13          1           0        2.424292    6.257511    2.129343
     14          1           0        2.603359    5.203530    3.492285
     15          8           0        0.750214    4.833019    0.939571
     16          7           0       -1.615030    0.826120    3.254094
     17          1           0       -2.335088    1.540989    3.169776
     18          6           0       -1.925964   -0.500630    3.792214
     19          1           0       -0.975100   -0.900909    4.163749
     20          6           0       -2.399047   -1.403935    2.621701
     21          6           0       -2.948300   -0.444808    4.947782
     22          1           0       -3.915989   -0.155135    4.514631
     23          8           0       -3.555647   -1.781127    2.473098
     24          6           0       -2.544618    0.600014    6.010398
     25          1           0       -2.356234    1.564230    5.522916
     26          1           0       -1.587977    0.298695    6.462824
     27          6           0       -3.106505   -1.844899    5.565253
     28          1           0       -2.166460   -2.176427    6.026684
     29          1           0       -3.874043   -1.842082    6.344066
     30          1           0       -3.407165   -2.577478    4.813479
     31          6           0       -3.589562    0.812905    7.112538
     32          1           0       -3.282223    1.623245    7.782673
     33          1           0       -4.563229    1.085153    6.687181
     34          1           0       -3.732872   -0.081334    7.727062
     35          7           0       -1.396284   -1.728908    1.756582
     36          1           0       -0.490612   -1.271370    1.851165
     37          6           0       -1.658769   -2.481077    0.541790
     38          1           0       -2.276758   -3.348045    0.803007
     39          6           0       -0.307432   -2.933266    0.001925
     40          6           0       -2.399834   -1.656875   -0.533941
     41          1           0       -2.608179   -2.265212   -1.421088
     42          1           0       -3.348913   -1.314718   -0.115961
     43          1           0       -1.800651   -0.790676   -0.831447
     44          8           0        0.687786   -2.210294    0.140176
     45          7           0       -0.253583   -4.101551   -0.680158
     46          1           0       -0.978470   -4.796369   -0.525902
     47          6           0        1.037182   -4.647044   -1.093212
     48          1           0        1.722739   -4.673442   -0.238915
     49          6           0        1.721326   -3.800120   -2.185567
     50          6           0        0.819531   -6.092299   -1.609822
     51          1           0        0.310342   -6.036024   -2.584778
     52          8           0        2.946619   -3.620700   -2.164779
     53          6           0        2.130776   -6.858881   -1.755016
     54          1           0        2.820555   -6.351564   -2.436171
     55          1           0        1.939396   -7.860949   -2.154773
     56          1           0        2.616568   -6.964926   -0.779585
     57          8           0       -0.047687   -6.698413   -0.648340
     58          1           0       -0.261343   -7.595186   -0.950491
     59          7           0        0.908528   -3.367020   -3.171897
     60          1           0       -0.057527   -3.674909   -3.134253
     61          6           0        1.370860   -3.034933   -4.526494
     62          1           0        2.135494   -3.770915   -4.806507
     63          6           0        1.989142   -1.620799   -4.666718
     64          6           0        0.174629   -3.150507   -5.474107
     65          1           0        0.539952   -3.114987   -6.507652
     66          1           0       -0.490481   -2.291994   -5.322579
     67          8           0        1.390018   -0.708546   -5.218717
     68          8           0       -0.477384   -4.385693   -5.179183
     69          1           0       -1.258958   -4.455283   -5.748190
     70          7           0        3.274661   -1.530854   -4.219663
     71          1           0        3.591482   -2.274069   -3.600888
     72          6           0        4.002270   -0.285926   -4.289046
     73          1           0        4.943714   -0.414778   -4.837942
     74          1           0        3.375219    0.413650   -4.853950
     75          6           0        4.266045    0.307680   -2.906536
     76          8           0        3.463087    0.156946   -1.974142
     77          7           0        5.410960    1.000028   -2.765228
     78          1           0        6.049766    1.143430   -3.542096
     79          6           0        5.765778    1.673562   -1.523063
     80          1           0        4.975138    2.391144   -1.267497
     81          6           0        7.026612    2.479438   -1.811838
     82          6           0        5.945048    0.684905   -0.325870
     83          1           0        5.782103   -0.324244   -0.716095
     84          1           0        6.980192    0.704724    0.031402
     85          8           0        7.616218    2.471870   -2.869895
     86          6           0        4.995071    0.974388    0.851484
     87          1           0        5.395687    1.817564    1.424546
     88          1           0        4.025785    1.305844    0.458301
     89          6           0        4.778470   -0.239147    1.787068
     90          1           0        4.752686    0.090410    2.831864
     91          1           0        5.626471   -0.934903    1.717768
     92          6           0        3.462085   -0.985183    1.561326
     93          1           0        3.362709   -1.825204    2.254192
     94          1           0        2.597557   -0.331687    1.710961
     95          7           0        3.317862   -1.554984    0.174007
     96          1           0        2.361892   -1.958311    0.059854
     97          1           0        3.988189   -2.300980   -0.030787
     98          1           0        3.413393   -0.835837   -0.578125
     99          8           0        7.400621    3.200667   -0.742167
    100          1           0        8.208460    3.691346   -0.989144
 ---------------------------------------------------------------------

 SCF Done:  E(RB3LYP) =  -2418.47735739     A.U. after    1 cycles

 Alpha  occ. eigenvalues --  -19.30149 -19.25354 -19.24744 -19.24472 -19.24116
 Alpha  occ. eigenvalues --  -19.23210 -19.22977 -19.20398 -19.19637 -19.19019
 Alpha  occ. eigenvalues --  -19.18309 -14.52447 -14.47363 -14.47148 -14.46558
 Alpha  occ. eigenvalues --  -14.44598 -14.43446 -14.43440 -14.42489 -14.40102
 Alpha  occ. eigenvalues --  -10.42770 -10.40284 -10.40003 -10.39931 -10.37617
 Alpha  occ. eigenvalues --  -10.36804 -10.36328 -10.35334 -10.35044 -10.34800
 Alpha  occ. eigenvalues --  -10.34216 -10.33971 -10.33145 -10.32588 -10.32359
 Alpha  occ. eigenvalues --  -10.32345 -10.30382 -10.29978 -10.29939 -10.29914
 Alpha  occ. eigenvalues --  -10.28961 -10.27710 -10.27193 -10.26116 -10.25401
 Alpha  occ. eigenvalues --  -10.24185 -10.22845 -10.22714  -1.21236  -1.15866
 Alpha  occ. eigenvalues --   -1.14780  -1.14405  -1.12804  -1.12438  -1.12310
 Alpha  occ. eigenvalues --   -1.11507  -1.11162  -1.10817  -1.10028  -1.07898
 Alpha  occ. eigenvalues --   -1.04114  -1.03579  -1.02440  -1.01058  -1.00428
 Alpha  occ. eigenvalues --   -0.99357  -0.98065  -0.96737  -0.91359  -0.89354
 Alpha  occ. eigenvalues --   -0.88007  -0.87195  -0.86049  -0.85151  -0.83839
 Alpha  occ. eigenvalues --   -0.82871  -0.80937  -0.80558  -0.79914  -0.76754
 Alpha  occ. eigenvalues --   -0.75358  -0.74519  -0.73957  -0.73152  -0.72767
 Alpha  occ. eigenvalues --   -0.71316  -0.70305  -0.70037  -0.69167  -0.68942
 Alpha  occ. eigenvalues --   -0.68360  -0.66972  -0.66697  -0.66582  -0.66269
 Alpha  occ. eigenvalues --   -0.65048  -0.64880  -0.63916  -0.63435  -0.62815
 Alpha  occ. eigenvalues --   -0.62662  -0.61942  -0.61731  -0.60355  -0.60086
 Alpha  occ. eigenvalues --   -0.59619  -0.59201  -0.58880  -0.58450  -0.57994
 Alpha  occ. eigenvalues --   -0.57644  -0.57172  -0.56977  -0.56281  -0.55819
 Alpha  occ. eigenvalues --   -0.55635  -0.55272  -0.55221  -0.54799  -0.54367
 Alpha  occ. eigenvalues --   -0.54195  -0.54023  -0.53796  -0.53332  -0.52293
 Alpha  occ. eigenvalues --   -0.52223  -0.52037  -0.51775  -0.51551  -0.51185
 Alpha  occ. eigenvalues --   -0.51076  -0.50582  -0.50145  -0.49786  -0.49418
 Alpha  occ. eigenvalues --   -0.49185  -0.49065  -0.48871  -0.48526  -0.48326
 Alpha  occ. eigenvalues --   -0.48143  -0.48064  -0.47902  -0.47517  -0.47406
 Alpha  occ. eigenvalues --   -0.46848  -0.46684  -0.46400  -0.46021  -0.45725
 Alpha  occ. eigenvalues --   -0.45638  -0.45208  -0.44459  -0.44403  -0.44340
 Alpha  occ. eigenvalues --   -0.43910  -0.43705  -0.43569  -0.43512  -0.43047
 Alpha  occ. eigenvalues --   -0.42495  -0.42384  -0.42256  -0.41485  -0.39103
 Alpha  occ. eigenvalues --   -0.38890  -0.38467  -0.38462  -0.38111  -0.37947
 Alpha  occ. eigenvalues --   -0.37740  -0.37462  -0.37098  -0.36926  -0.36810
 Alpha  occ. eigenvalues --   -0.36323  -0.35286  -0.34768  -0.34371  -0.34241
 Alpha  occ. eigenvalues --   -0.33279  -0.32845  -0.32319  -0.31819  -0.30778
 Alpha virt. eigenvalues --   -0.09884  -0.09692  -0.09590  -0.08720  -0.07134
 Alpha virt. eigenvalues --   -0.06475  -0.05122  -0.04933  -0.03666  -0.02405
 Alpha virt. eigenvalues --   -0.02147  -0.01531  -0.01196  -0.00134   0.00173

 Mulliken charges:
               1
     1  N   -0.754895
     2  H    0.341706
     3  H    0.310059
     4  C   -0.056271
     5  H    0.198187
     6  C    0.614990
     7  C   -0.387199
     8  H    0.150499
     9  H    0.186996
    10  O   -0.581036
    11  C    0.603090
    12  N   -0.750076
    13  H    0.352010
    14  H    0.340982
    15  O   -0.504474
    16  N   -0.602477
    17  H    0.372874
    18  C   -0.049105
    19  H    0.168081
    20  C    0.629972
    21  C   -0.089011
    22  H    0.149188
    23  O   -0.525157
    24  C   -0.252668
    25  H    0.121502
    26  H    0.129516
    27  C   -0.471465
    28  H    0.134486
    29  H    0.160991
    30  H    0.176291
    31  C   -0.449773
    32  H    0.148491
    33  H    0.150200
    34  H    0.156616
    35  N   -0.644887
    36  H    0.378363
    37  C   -0.021293
    38  H    0.177457
    39  C    0.633114
    40  C   -0.454048
    41  H    0.145602
    42  H    0.206769
    43  H    0.167332
    44  O   -0.561380
    45  N   -0.631250
    46  H    0.372131
    47  C   -0.031646
    48  H    0.166640
    49  C    0.628328
    50  C    0.100141
    51  H    0.154262
    52  O   -0.578015
    53  C   -0.471687
    54  H    0.176257
    55  H    0.162980
    56  H    0.170298
    57  O   -0.638034
    58  H    0.416104
    59  N   -0.579385
    60  H    0.361688
    61  C   -0.071857
    62  H    0.183518
    63  C    0.628181
    64  C   -0.072941
    65  H    0.168551
    66  H    0.177387
    67  O   -0.500599
    68  O   -0.639511
    69  H    0.416910
    70  N   -0.600357
    71  H    0.361086
    72  C   -0.235211
    73  H    0.175287
    74  H    0.237733
    75  C    0.620913
    76  O   -0.560811
    77  N   -0.617387
    78  H    0.369297
    79  C   -0.001739
    80  H    0.210539
    81  C    0.568355
    82  C   -0.282049
    83  H    0.140735
    84  H    0.179091
    85  O   -0.451574
    86  C   -0.296509
    87  H    0.171636
    88  H    0.169121
    89  C   -0.284928
    90  H    0.180648
    91  H    0.154155
    92  C   -0.211640
    93  H    0.186782
    94  H    0.248303
    95  N   -0.815344
    96  H    0.451231
    97  H    0.383024
    98  H    0.456866
    99  O   -0.559834
   100  H    0.433981
 Sum of Mulliken charges =   1.00000

 Dipole moment (field-independent basis, Debye):
    X=             14.6032    Y=             -5.9515    Z=              0.0241  Tot=             15.7694
 Quadrupole moment (field-independent basis, Debye-Ang):
   XX=           -196.0037   YY=           -179.7525   ZZ=           -224.7561
   XY=             18.9474   XZ=              6.1585   YZ=             57.8892

 Normal termination of Gaussian 16 at Fri May 27 02:49:20 2022.
