 Gaussian 16, Revision C.01,
 Gaussian 16:  ES64L-G16RevC.01  3-Jul-2019

 -------------------------------------------------------------------
 # B3LYP/6-31G* guess=read geom=check nosymm integral(ultrafinegrid)
 -------------------------------------------------------------------

 ------------------------------------------------------
 Candidate Structure: Conf:156 Charge calc in gas phase
 ------------------------------------------------------
 Structure from the checkpoint file:  "conf-156.chk"
 Charge =  1 Multiplicity = 1

                          Input orientation:
 ---------------------------------------------------------------------
 Center     Atomic      Atomic             Coordinates (Angstroms)
 Number     Number       Type             X           Y           Z
 ---------------------------------------------------------------------
      1          7           0       -7.388659    1.709573    1.440347
      2          1           0       -6.889402    2.231680    0.718585
      3          1           0       -7.596972    2.410678    2.150423
      4          6           0       -6.467056    0.731114    2.008557
      5          1           0       -6.864811    0.419045    2.980756
      6          6           0       -5.054726    1.327822    2.248461
      7          6           0       -6.425714   -0.522209    1.093701
      8          1           0       -7.377318   -0.547621    0.553220
      9          1           0       -5.633981   -0.430374    0.337000
     10          8           0       -4.778254    2.465183    1.839297
     11          6           0       -6.207690   -1.832910    1.843317
     12          7           0       -6.779202   -2.927259    1.282078
     13          1           0       -6.670855   -3.818143    1.748032
     14          1           0       -7.408193   -2.867193    0.495803
     15          8           0       -5.542343   -1.917350    2.878493
     16          7           0       -4.183309    0.547869    2.921848
     17          1           0       -4.477330   -0.411940    3.125167
     18          6           0       -2.860430    1.016675    3.345514
     19          1           0       -2.968331    2.081778    3.581888
     20          6           0       -1.883423    0.906092    2.149906
     21          6           0       -2.353005    0.253957    4.586726
     22          1           0       -2.106541   -0.763204    4.255275
     23          8           0       -1.029634    0.017462    2.049697
     24          6           0       -3.419162    0.135234    5.701505
     25          1           0       -2.965744   -0.438172    6.520924
     26          1           0       -4.258330   -0.474178    5.345409
     27          6           0       -1.055592    0.895471    5.107620
     28          1           0       -1.216148    1.931386    5.428858
     29          1           0       -0.681648    0.335079    5.972377
     30          1           0       -0.278978    0.897723    4.338753
     31          6           0       -3.963677    1.457623    6.257378
     32          1           0       -4.690658    1.263722    7.053699
     33          1           0       -3.172067    2.082733    6.684658
     34          1           0       -4.474784    2.045898    5.486352
     35          7           0       -2.060764    1.860876    1.201362
     36          1           0       -2.889319    2.451719    1.302449
     37          6           0       -1.443079    1.754377   -0.123568
     38          1           0       -1.360468    0.684986   -0.358985
     39          6           0       -0.002301    2.314451   -0.110804
     40          6           0       -2.305793    2.458097   -1.167577
     41          1           0       -1.893667    2.309761   -2.169313
     42          1           0       -3.321002    2.050634   -1.144636
     43          1           0       -2.351504    3.534276   -0.978503
     44          8           0        0.315807    3.320042   -0.773600
     45          7           0        0.871994    1.613365    0.637700
     46          1           0        0.480529    0.868097    1.223499
     47          6           0        2.258926    2.034927    0.863057
     48          1           0        2.265572    3.123550    1.001638
     49          6           0        3.089174    1.684767   -0.393437
     50          6           0        2.817952    1.375127    2.130098
     51          1           0        2.835972    0.287303    1.969647
     52          8           0        3.825464    0.693113   -0.463480
     53          6           0        4.227504    1.863250    2.466198
     54          1           0        4.940798    1.584446    1.686268
     55          1           0        4.563707    1.407105    3.404612
     56          1           0        4.235620    2.950774    2.599640
     57          8           0        1.896976    1.717217    3.165774
     58          1           0        2.145340    1.224335    3.962889
     59          7           0        2.902335    2.551698   -1.418078
     60          1           0        2.147882    3.222980   -1.261150
     61          6           0        3.171718    2.198071   -2.816257
     62          1           0        2.973586    1.124509   -2.938068
     63          6           0        4.643626    2.451142   -3.176738
     64          6           0        2.216303    2.978429   -3.735233
     65          1           0        2.473163    2.748389   -4.772625
     66          1           0        2.375092    4.057692   -3.597968
     67          8           0        5.015855    3.290771   -3.987685
     68          8           0        0.869946    2.600000   -3.540603
     69          1           0        0.538821    3.007286   -2.717534
     70          7           0        5.532700    1.609095   -2.548546
     71          1           0        5.170900    1.067601   -1.756400
     72          6           0        6.945014    1.906523   -2.656260
     73          1           0        7.168799    2.951084   -2.414193
     74          1           0        7.496533    1.268408   -1.957760
     75          6           0        7.503401    1.678519   -4.060605
     76          8           0        8.538429    2.282504   -4.405222
     77          7           0        6.849198    0.785422   -4.818274
     78          1           0        5.979275    0.441829   -4.421253
     79          6           0        7.034042    0.609824   -6.254110
     80          1           0        7.500470    1.522393   -6.640354
     81          6           0        5.697172    0.505407   -6.993133
     82          6           0        7.917999   -0.611314   -6.609953
     83          1           0        7.552748   -1.475089   -6.043335
     84          1           0        7.779923   -0.839659   -7.672593
     85          8           0        5.614577    0.567380   -8.195006
     86          6           0        9.407051   -0.377112   -6.310455
     87          1           0        9.505890    0.051503   -5.306069
     88          1           0        9.922234   -1.342843   -6.274479
     89          6           0       10.106407    0.520779   -7.362873
     90          1           0        9.372111    1.103265   -7.938077
     91          1           0       10.613947   -0.105427   -8.104233
     92          6           0       11.146464    1.478380   -6.782438
     93          1           0       11.740196    1.004485   -5.996606
     94          1           0       11.826805    1.865843   -7.544683
     95          7           0       10.469013    2.676424   -6.148634
     96          1           0       11.126286    3.241974   -5.602106
     97          1           0        9.658527    2.405919   -5.493802
     98          1           0       10.073403    3.290073   -6.868092
     99          8           0        4.649259    0.297920   -6.168040
    100          1           0        3.848457    0.228512   -6.723552
 ---------------------------------------------------------------------

 SCF Done:  E(RB3LYP) =  -2418.46261320     A.U. after    2 cycles

 Alpha  occ. eigenvalues --  -19.30731 -19.25112 -19.24436 -19.21110 -19.20594
 Alpha  occ. eigenvalues --  -19.20359 -19.19650 -19.19629 -19.18380 -19.17814
 Alpha  occ. eigenvalues --  -19.17380 -14.58122 -14.47944 -14.44335 -14.43249
 Alpha  occ. eigenvalues --  -14.42707 -14.42386 -14.41211 -14.40617 -14.36256
 Alpha  occ. eigenvalues --  -10.43005 -10.41472 -10.38767 -10.37135 -10.36809
 Alpha  occ. eigenvalues --  -10.35944 -10.35938 -10.35912 -10.34299 -10.33718
 Alpha  occ. eigenvalues --  -10.33030 -10.32807 -10.30940 -10.30918 -10.30689
 Alpha  occ. eigenvalues --  -10.30603 -10.30589 -10.29936 -10.29679 -10.28203
 Alpha  occ. eigenvalues --  -10.28097 -10.25876 -10.24112 -10.23843 -10.23722
 Alpha  occ. eigenvalues --  -10.22258 -10.21484 -10.21345  -1.21403  -1.16197
 Alpha  occ. eigenvalues --   -1.12879  -1.12537  -1.12445  -1.11742  -1.10714
 Alpha  occ. eigenvalues --   -1.10016  -1.09420  -1.08609  -1.08520  -1.07338
 Alpha  occ. eigenvalues --   -1.05160  -1.00894  -1.00045  -0.99058  -0.98019
 Alpha  occ. eigenvalues --   -0.97298  -0.96889  -0.93830  -0.93664  -0.89939
 Alpha  occ. eigenvalues --   -0.86169  -0.85476  -0.84708  -0.83486  -0.82690
 Alpha  occ. eigenvalues --   -0.81756  -0.81149  -0.78019  -0.77800  -0.77356
 Alpha  occ. eigenvalues --   -0.75085  -0.73714  -0.72912  -0.71626  -0.71339
 Alpha  occ. eigenvalues --   -0.71008  -0.70316  -0.70195  -0.69794  -0.68913
 Alpha  occ. eigenvalues --   -0.68354  -0.66086  -0.65692  -0.65182  -0.64514
 Alpha  occ. eigenvalues --   -0.64084  -0.63831  -0.63327  -0.62042  -0.61763
 Alpha  occ. eigenvalues --   -0.60963  -0.60768  -0.60080  -0.59924  -0.58835
 Alpha  occ. eigenvalues --   -0.58752  -0.58431  -0.58119  -0.57665  -0.57338
 Alpha  occ. eigenvalues --   -0.57200  -0.56529  -0.56255  -0.55410  -0.55199
 Alpha  occ. eigenvalues --   -0.55118  -0.54758  -0.54448  -0.53933  -0.53596
 Alpha  occ. eigenvalues --   -0.53280  -0.53088  -0.51972  -0.51764  -0.51636
 Alpha  occ. eigenvalues --   -0.50727  -0.50421  -0.50145  -0.49950  -0.49919
 Alpha  occ. eigenvalues --   -0.49404  -0.49243  -0.49011  -0.48953  -0.48745
 Alpha  occ. eigenvalues --   -0.48349  -0.47940  -0.47142  -0.46863  -0.46777
 Alpha  occ. eigenvalues --   -0.46508  -0.46487  -0.46225  -0.45723  -0.45689
 Alpha  occ. eigenvalues --   -0.45482  -0.45095  -0.45074  -0.44849  -0.44478
 Alpha  occ. eigenvalues --   -0.44056  -0.43961  -0.43461  -0.43279  -0.43094
 Alpha  occ. eigenvalues --   -0.42405  -0.42328  -0.42254  -0.42167  -0.41312
 Alpha  occ. eigenvalues --   -0.40568  -0.40094  -0.39939  -0.39540  -0.39355
 Alpha  occ. eigenvalues --   -0.38840  -0.37021  -0.36946  -0.36467  -0.36356
 Alpha  occ. eigenvalues --   -0.36165  -0.35590  -0.34701  -0.34509  -0.33798
 Alpha  occ. eigenvalues --   -0.33670  -0.33371  -0.33208  -0.32408  -0.32142
 Alpha  occ. eigenvalues --   -0.31436  -0.31356  -0.30531  -0.29642  -0.29065
 Alpha virt. eigenvalues --   -0.10578  -0.09710  -0.09448  -0.07154  -0.06584
 Alpha virt. eigenvalues --   -0.05384  -0.04947  -0.04260  -0.03998  -0.03416
 Alpha virt. eigenvalues --   -0.02809  -0.02716  -0.01352  -0.00601   0.00659

 Mulliken charges:
               1
     1  N   -0.696708
     2  H    0.309436
     3  H    0.312198
     4  C   -0.078988
     5  H    0.176660
     6  C    0.567847
     7  C   -0.377200
     8  H    0.183518
     9  H    0.180668
    10  O   -0.556527
    11  C    0.620517
    12  N   -0.738845
    13  H    0.355427
    14  H    0.351009
    15  O   -0.528229
    16  N   -0.631693
    17  H    0.402516
    18  C   -0.043298
    19  H    0.174490
    20  C    0.632607
    21  C   -0.097228
    22  H    0.152997
    23  O   -0.556160
    24  C   -0.265508
    25  H    0.139147
    26  H    0.145888
    27  C   -0.485586
    28  H    0.146529
    29  H    0.143585
    30  H    0.171918
    31  C   -0.456593
    32  H    0.151838
    33  H    0.149814
    34  H    0.147792
    35  N   -0.615425
    36  H    0.386290
    37  C   -0.055554
    38  H    0.180342
    39  C    0.642428
    40  C   -0.475802
    41  H    0.174144
    42  H    0.158819
    43  H    0.179923
    44  O   -0.576075
    45  N   -0.617013
    46  H    0.404422
    47  C   -0.050534
    48  H    0.184748
    49  C    0.633523
    50  C    0.118416
    51  H    0.151437
    52  O   -0.555787
    53  C   -0.473583
    54  H    0.161413
    55  H    0.150530
    56  H    0.160330
    57  O   -0.623777
    58  H    0.405366
    59  N   -0.618845
    60  H    0.377931
    61  C   -0.075622
    62  H    0.179059
    63  C    0.612783
    64  C   -0.057709
    65  H    0.153665
    66  H    0.154642
    67  O   -0.515968
    68  O   -0.649955
    69  H    0.430341
    70  N   -0.650617
    71  H    0.388683
    72  C   -0.213854
    73  H    0.207383
    74  H    0.195297
    75  C    0.647113
    76  O   -0.601480
    77  N   -0.572812
    78  H    0.382377
    79  C   -0.054910
    80  H    0.168273
    81  C    0.601958
    82  C   -0.277342
    83  H    0.172326
    84  H    0.188984
    85  O   -0.438320
    86  C   -0.292497
    87  H    0.156280
    88  H    0.178266
    89  C   -0.294572
    90  H    0.167142
    91  H    0.200099
    92  C   -0.196591
    93  H    0.215658
    94  H    0.209645
    95  N   -0.768579
    96  H    0.408598
    97  H    0.464187
    98  H    0.402603
    99  O   -0.574316
   100  H    0.438275
 Sum of Mulliken charges =   1.00000

 Dipole moment (field-independent basis, Debye):
    X=             32.9019    Y=              3.2347    Z=            -19.6455  Tot=             38.4571
 Quadrupole moment (field-independent basis, Debye-Ang):
   XX=            165.1368   YY=           -262.3270   ZZ=           -133.6075
   XY=             88.7659   XZ=           -230.0963   YZ=            -27.5230

 Normal termination of Gaussian 16 at Fri May 27 02:49:39 2022.
