 Gaussian 16, Revision C.01,
 Gaussian 16:  ES64L-G16RevC.01  3-Jul-2019

 -------------------------------------------------------------------
 # B3LYP/6-31G* guess=read geom=check nosymm integral(ultrafinegrid)
 -------------------------------------------------------------------

 ------------------------------------------------------
 Candidate Structure: Conf:302 Charge calc in gas phase
 ------------------------------------------------------
 Structure from the checkpoint file:  "conf-302.chk"
 Charge =  1 Multiplicity = 1

                          Input orientation:
 ---------------------------------------------------------------------
 Center     Atomic      Atomic             Coordinates (Angstroms)
 Number     Number       Type             X           Y           Z
 ---------------------------------------------------------------------
      1          7           0       -5.426228   -2.361854    4.626071
      2          1           0       -5.641621   -3.214052    5.138336
      3          1           0       -6.232557   -1.745138    4.717074
      4          6           0       -5.135073   -2.650550    3.221419
      5          1           0       -4.420603   -3.483256    3.209717
      6          6           0       -4.395700   -1.461026    2.575708
      7          6           0       -6.327698   -3.076113    2.348032
      8          1           0       -6.895523   -3.844040    2.890519
      9          1           0       -7.004032   -2.231874    2.173020
     10          8           0       -4.469937   -1.234478    1.364119
     11          6           0       -5.895615   -3.699930    1.025648
     12          7           0       -6.773760   -3.605418    0.008916
     13          1           0       -6.559489   -4.058472   -0.869604
     14          1           0       -7.638102   -3.089338    0.083901
     15          8           0       -4.834983   -4.332392    0.910362
     16          7           0       -3.626288   -0.759942    3.434272
     17          1           0       -3.697123   -1.041587    4.407024
     18          6           0       -2.736761    0.330008    3.054068
     19          1           0       -3.325974    1.245330    2.892541
     20          6           0       -2.039008   -0.043820    1.730895
     21          6           0       -1.723416    0.594034    4.205292
     22          1           0       -1.272912   -0.379708    4.444990
     23          8           0       -1.496351   -1.148628    1.586010
     24          6           0       -2.456096    1.130422    5.458500
     25          1           0       -3.374133    0.556557    5.640829
     26          1           0       -2.785514    2.159564    5.256420
     27          6           0       -0.602862    1.547019    3.766649
     28          1           0       -1.003369    2.499336    3.396957
     29          1           0        0.052902    1.777808    4.610506
     30          1           0        0.028228    1.115698    2.985016
     31          6           0       -1.614877    1.097878    6.740373
     32          1           0       -2.204742    1.449680    7.592946
     33          1           0       -1.277177    0.079581    6.967371
     34          1           0       -0.729026    1.737069    6.672575
     35          7           0       -2.022224    0.915760    0.778257
     36          1           0       -2.566334    1.750629    0.960015
     37          6           0       -1.724421    0.647776   -0.634850
     38          1           0       -1.529406   -0.428163   -0.689457
     39          6           0       -0.434381    1.314699   -1.163958
     40          6           0       -2.932445    1.002120   -1.504006
     41          1           0       -2.698137    0.804773   -2.551357
     42          1           0       -3.802624    0.415220   -1.195434
     43          1           0       -3.177610    2.067773   -1.420570
     44          8           0       -0.299606    1.522324   -2.364379
     45          7           0        0.538660    1.544726   -0.252044
     46          1           0        0.335996    1.515474    0.737480
     47          6           0        1.840307    2.067176   -0.632304
     48          1           0        1.744793    3.110466   -0.963285
     49          6           0        2.449002    1.210445   -1.759091
     50          6           0        2.769777    2.008571    0.599511
     51          1           0        2.969197    0.946501    0.805781
     52          8           0        2.414269   -0.021458   -1.713930
     53          6           0        4.085124    2.751218    0.391243
     54          1           0        4.676096    2.305297   -0.415463
     55          1           0        4.689713    2.700568    1.305221
     56          1           0        3.899575    3.808457    0.168846
     57          8           0        2.005337    2.572311    1.677827
     58          1           0        2.583064    2.610509    2.455781
     59          7           0        3.062530    1.891741   -2.749260
     60          1           0        3.240741    2.884358   -2.657845
     61          6           0        3.835809    1.193253   -3.757082
     62          1           0        3.174025    0.478547   -4.259979
     63          6           0        4.986726    0.398893   -3.089523
     64          6           0        4.324704    2.204479   -4.799650
     65          1           0        3.461961    2.541672   -5.393871
     66          1           0        5.034568    1.706377   -5.474807
     67          8           0        5.555278    0.780996   -2.076422
     68          8           0        4.922911    3.287472   -4.101637
     69          1           0        5.214574    3.947872   -4.747992
     70          7           0        5.278126   -0.773963   -3.729476
     71          1           0        4.601862   -1.098099   -4.412483
     72          6           0        6.049937   -1.828053   -3.080016
     73          1           0        6.815986   -2.230594   -3.746381
     74          1           0        6.533841   -1.383967   -2.205249
     75          6           0        5.130211   -2.994813   -2.680541
     76          8           0        5.400726   -4.156457   -2.945156
     77          7           0        3.979301   -2.615233   -2.029969
     78          1           0        3.758340   -1.622675   -1.993871
     79          6           0        2.805111   -3.459780   -2.090961
     80          1           0        3.150578   -4.498945   -2.140053
     81          6           0        2.082227   -3.187504   -3.421952
     82          6           0        1.965811   -3.245328   -0.811340
     83          1           0        2.649530   -3.469694    0.016645
     84          1           0        1.721905   -2.179258   -0.729874
     85          8           0        2.465970   -2.430244   -4.287013
     86          6           0        0.689093   -4.082229   -0.643673
     87          1           0       -0.069259   -3.724674   -1.352574
     88          1           0        0.871509   -5.131472   -0.908847
     89          6           0        0.181447   -3.998123    0.807287
     90          1           0        0.253932   -2.967524    1.176147
     91          1           0        0.828383   -4.602875    1.454081
     92          6           0       -1.253238   -4.481265    1.015958
     93          1           0       -1.434473   -5.466183    0.576344
     94          1           0       -1.508531   -4.525523    2.077292
     95          7           0       -2.243135   -3.526800    0.397443
     96          1           0       -2.103340   -3.468977   -0.614398
     97          1           0       -2.097705   -2.569130    0.792744
     98          1           0       -3.234165   -3.813810    0.575196
     99          8           0        0.962929   -3.935962   -3.574618
    100          1           0        0.626350   -3.734958   -4.469531
 ---------------------------------------------------------------------

 SCF Done:  E(RB3LYP) =  -2418.47158742     A.U. after    1 cycles

 Alpha  occ. eigenvalues --  -19.27504 -19.23327 -19.23323 -19.23041 -19.22284
 Alpha  occ. eigenvalues --  -19.22243 -19.21794 -19.19227 -19.18969 -19.17904
 Alpha  occ. eigenvalues --  -19.17055 -14.53470 -14.47483 -14.47238 -14.46178
 Alpha  occ. eigenvalues --  -14.43573 -14.43473 -14.43182 -14.42260 -14.40673
 Alpha  occ. eigenvalues --  -10.41200 -10.40496 -10.39518 -10.38998 -10.36364
 Alpha  occ. eigenvalues --  -10.36269 -10.35061 -10.34942 -10.34190 -10.34129
 Alpha  occ. eigenvalues --  -10.33713 -10.32881 -10.31990 -10.31372 -10.31031
 Alpha  occ. eigenvalues --  -10.30742 -10.30695 -10.30397 -10.29616 -10.29034
 Alpha  occ. eigenvalues --  -10.28010 -10.27834 -10.27582 -10.26693 -10.26653
 Alpha  occ. eigenvalues --  -10.26605 -10.25668 -10.24138  -1.18281  -1.15340
 Alpha  occ. eigenvalues --   -1.14843  -1.13448  -1.11833  -1.10768  -1.10143
 Alpha  occ. eigenvalues --   -1.09721  -1.09469  -1.09199  -1.08807  -1.08600
 Alpha  occ. eigenvalues --   -1.03703  -1.03312  -1.01999  -1.00099  -0.99763
 Alpha  occ. eigenvalues --   -0.99623  -0.99134  -0.97583  -0.90923  -0.89918
 Alpha  occ. eigenvalues --   -0.87325  -0.87153  -0.85698  -0.85044  -0.83343
 Alpha  occ. eigenvalues --   -0.83118  -0.80345  -0.80216  -0.78144  -0.77407
 Alpha  occ. eigenvalues --   -0.76707  -0.74426  -0.73506  -0.72655  -0.71496
 Alpha  occ. eigenvalues --   -0.70792  -0.70429  -0.69688  -0.69002  -0.68202
 Alpha  occ. eigenvalues --   -0.67806  -0.67099  -0.66453  -0.66262  -0.66086
 Alpha  occ. eigenvalues --   -0.65558  -0.64982  -0.64345  -0.63784  -0.63776
 Alpha  occ. eigenvalues --   -0.62177  -0.60883  -0.60364  -0.60184  -0.59877
 Alpha  occ. eigenvalues --   -0.59489  -0.59303  -0.58862  -0.58049  -0.57554
 Alpha  occ. eigenvalues --   -0.57400  -0.56483  -0.55844  -0.55530  -0.55263
 Alpha  occ. eigenvalues --   -0.55149  -0.54743  -0.54428  -0.54042  -0.53858
 Alpha  occ. eigenvalues --   -0.53639  -0.53323  -0.52851  -0.52664  -0.52295
 Alpha  occ. eigenvalues --   -0.52035  -0.51938  -0.51412  -0.50759  -0.50680
 Alpha  occ. eigenvalues --   -0.50357  -0.50125  -0.49727  -0.49533  -0.49292
 Alpha  occ. eigenvalues --   -0.49096  -0.48840  -0.48393  -0.48267  -0.47858
 Alpha  occ. eigenvalues --   -0.47472  -0.47253  -0.47045  -0.46940  -0.46787
 Alpha  occ. eigenvalues --   -0.46682  -0.46657  -0.45906  -0.45820  -0.45570
 Alpha  occ. eigenvalues --   -0.45115  -0.44959  -0.44724  -0.44479  -0.44034
 Alpha  occ. eigenvalues --   -0.43561  -0.43272  -0.42825  -0.42557  -0.42371
 Alpha  occ. eigenvalues --   -0.41968  -0.41759  -0.41502  -0.41243  -0.41061
 Alpha  occ. eigenvalues --   -0.40549  -0.39437  -0.38561  -0.38229  -0.38136
 Alpha  occ. eigenvalues --   -0.37487  -0.36895  -0.35730  -0.35473  -0.35354
 Alpha  occ. eigenvalues --   -0.35035  -0.34856  -0.33864  -0.33679  -0.33338
 Alpha  occ. eigenvalues --   -0.32624  -0.32292  -0.31286  -0.30820  -0.29773
 Alpha virt. eigenvalues --   -0.10021  -0.09478  -0.08299  -0.06830  -0.06647
 Alpha virt. eigenvalues --   -0.05902  -0.05165  -0.04744  -0.02774  -0.02672
 Alpha virt. eigenvalues --   -0.02506  -0.02134  -0.01004  -0.00791  -0.00162

 Mulliken charges:
               1
     1  N   -0.744324
     2  H    0.329147
     3  H    0.320706
     4  C   -0.079655
     5  H    0.185585
     6  C    0.629603
     7  C   -0.375085
     8  H    0.189999
     9  H    0.167120
    10  O   -0.565210
    11  C    0.662351
    12  N   -0.730144
    13  H    0.358358
    14  H    0.361222
    15  O   -0.577134
    16  N   -0.626329
    17  H    0.373738
    18  C    0.006407
    19  H    0.150398
    20  C    0.650055
    21  C   -0.102529
    22  H    0.149510
    23  O   -0.589161
    24  C   -0.274360
    25  H    0.137482
    26  H    0.147822
    27  C   -0.484791
    28  H    0.150691
    29  H    0.168570
    30  H    0.170824
    31  C   -0.452057
    32  H    0.165178
    33  H    0.151287
    34  H    0.159882
    35  N   -0.596425
    36  H    0.345844
    37  C   -0.061330
    38  H    0.172022
    39  C    0.637334
    40  C   -0.465341
    41  H    0.198092
    42  H    0.166806
    43  H    0.157983
    44  O   -0.521702
    45  N   -0.640170
    46  H    0.374199
    47  C   -0.014482
    48  H    0.161093
    49  C    0.673542
    50  C    0.112027
    51  H    0.149056
    52  O   -0.560458
    53  C   -0.508728
    54  H    0.221477
    55  H    0.148735
    56  H    0.155426
    57  O   -0.650350
    58  H    0.405165
    59  N   -0.594096
    60  H    0.358343
    61  C   -0.067499
    62  H    0.188603
    63  C    0.604248
    64  C   -0.059392
    65  H    0.153108
    66  H    0.156964
    67  O   -0.504142
    68  O   -0.615493
    69  H    0.412926
    70  N   -0.598591
    71  H    0.355191
    72  C   -0.232685
    73  H    0.191324
    74  H    0.213945
    75  C    0.569202
    76  O   -0.498207
    77  N   -0.606619
    78  H    0.386385
    79  C   -0.070262
    80  H    0.209392
    81  C    0.606263
    82  C   -0.295416
    83  H    0.166036
    84  H    0.185580
    85  O   -0.469746
    86  C   -0.273213
    87  H    0.126599
    88  H    0.159765
    89  C   -0.297011
    90  H    0.188486
    91  H    0.175862
    92  C   -0.187076
    93  H    0.198330
    94  H    0.195868
    95  N   -0.816566
    96  H    0.384975
    97  H    0.455386
    98  H    0.453879
    99  O   -0.572090
   100  H    0.416470
 Sum of Mulliken charges =   1.00000

 Dipole moment (field-independent basis, Debye):
    X=            -16.2380    Y=             -5.3076    Z=              5.8412  Tot=             18.0544
 Quadrupole moment (field-independent basis, Debye-Ang):
   XX=           -180.2105   YY=           -229.8365   ZZ=           -206.8020
   XY=             70.4439   XZ=            -40.0184   YZ=            -18.2314

 Normal termination of Gaussian 16 at Fri May 27 02:49:25 2022.
