 Gaussian 16, Revision C.01,
 Gaussian 16:  ES64L-G16RevC.01  3-Jul-2019

 -------------------------------------------------------------------
 # B3LYP/6-31G* guess=read geom=check nosymm integral(ultrafinegrid)
 -------------------------------------------------------------------

 ------------------------------------------------------
 Candidate Structure: Conf:879 Charge calc in gas phase
 ------------------------------------------------------
 Structure from the checkpoint file:  "conf-879.chk"
 Charge =  1 Multiplicity = 1

                          Input orientation:
 ---------------------------------------------------------------------
 Center     Atomic      Atomic             Coordinates (Angstroms)
 Number     Number       Type             X           Y           Z
 ---------------------------------------------------------------------
      1          7           0       -6.014973    1.743726    1.627637
      2          1           0       -6.194768    0.801312    1.284118
      3          1           0       -6.922384    2.212160    1.675872
      4          6           0       -5.186105    2.474749    0.663106
      5          1           0       -5.376497    2.196538   -0.384799
      6          6           0       -3.692886    2.198636    0.905076
      7          6           0       -5.406000    3.997910    0.796406
      8          1           0       -5.260380    4.280645    1.847557
      9          1           0       -4.645325    4.514123    0.203437
     10          8           0       -2.831481    2.514388    0.071256
     11          6           0       -6.818947    4.422647    0.397377
     12          7           0       -6.902957    5.538952   -0.372674
     13          1           0       -7.820920    5.891145   -0.609320
     14          1           0       -6.093927    6.069915   -0.656339
     15          8           0       -7.815199    3.802559    0.761102
     16          7           0       -3.414730    1.626860    2.096078
     17          1           0       -4.231515    1.403333    2.663278
     18          6           0       -2.048863    1.423789    2.577193
     19          1           0       -1.457317    2.266781    2.198097
     20          6           0       -1.514124    0.136164    1.906685
     21          6           0       -1.942724    1.386058    4.115432
     22          1           0       -2.404738    0.448774    4.454842
     23          8           0       -1.498450   -0.966570    2.478216
     24          6           0       -2.689463    2.570886    4.766916
     25          1           0       -3.728258    2.594542    4.417316
     26          1           0       -2.233720    3.511538    4.424425
     27          6           0       -0.457555    1.372954    4.519618
     28          1           0        0.018649    2.329847    4.268503
     29          1           0       -0.347965    1.221612    5.596717
     30          1           0        0.105669    0.574988    4.027938
     31          6           0       -2.702370    2.534325    6.300114
     32          1           0       -3.321284    3.346436    6.695911
     33          1           0       -3.119277    1.589692    6.670193
     34          1           0       -1.701043    2.648631    6.726973
     35          7           0       -1.113557    0.321300    0.625373
     36          1           0       -1.377048    1.223907    0.216699
     37          6           0       -0.832611   -0.778449   -0.309158
     38          1           0       -1.565376   -1.575773   -0.126746
     39          6           0        0.569584   -1.366219   -0.016056
     40          6           0       -0.950824   -0.276694   -1.744279
     41          1           0       -0.837013   -1.106342   -2.448377
     42          1           0       -1.932379    0.178281   -1.904602
     43          1           0       -0.177991    0.466906   -1.959466
     44          8           0        1.560583   -1.166967   -0.739016
     45          7           0        0.618869   -2.095179    1.106648
     46          1           0       -0.230262   -2.063590    1.674426
     47          6           0        1.851060   -2.548701    1.732088
     48          1           0        2.559810   -1.712721    1.777570
     49          6           0        2.453930   -3.715786    0.942005
     50          6           0        1.518935   -2.977117    3.195591
     51          1           0        0.787459   -3.796535    3.133581
     52          8           0        1.773760   -4.697092    0.620347
     53          6           0        2.751192   -3.451482    3.955929
     54          1           0        3.193514   -4.341603    3.497897
     55          1           0        2.462502   -3.697767    4.980805
     56          1           0        3.506645   -2.659037    3.999742
     57          8           0        0.988777   -1.873030    3.910334
     58          1           0        0.051206   -1.733265    3.687103
     59          7           0        3.773073   -3.605542    0.657896
     60          1           0        4.241226   -2.712942    0.774275
     61          6           0        4.618551   -4.664765    0.129061
     62          1           0        4.759295   -5.434990    0.899412
     63          6           0        5.974998   -4.014915   -0.177278
     64          6           0        4.058873   -5.391681   -1.158442
     65          1           0        3.710088   -6.386561   -0.866623
     66          1           0        4.857732   -5.505117   -1.896669
     67          8           0        6.078390   -2.803360   -0.374684
     68          8           0        2.996496   -4.697922   -1.796093
     69          1           0        2.246299   -4.768191   -1.161638
     70          7           0        7.035885   -4.859278   -0.222585
     71          1           0        6.857139   -5.854806   -0.208384
     72          6           0        8.279417   -4.418410   -0.827796
     73          1           0        8.603225   -3.495879   -0.339121
     74          1           0        9.039894   -5.184803   -0.650100
     75          6           0        8.098341   -4.213268   -2.348799
     76          8           0        7.248892   -4.848536   -2.967731
     77          7           0        8.932030   -3.294574   -2.892696
     78          1           0        9.595928   -2.823590   -2.292241
     79          6           0        8.935544   -2.889427   -4.301424
     80          1           0        9.395666   -3.687140   -4.904126
     81          6           0        9.839864   -1.668934   -4.497625
     82          6           0        7.529843   -2.626680   -4.888959
     83          1           0        7.681554   -2.194919   -5.881909
     84          1           0        7.054558   -3.600004   -5.016612
     85          8           0        9.809316   -0.958297   -5.471725
     86          6           0        6.633280   -1.718417   -4.020190
     87          1           0        6.991662   -1.721502   -2.984316
     88          1           0        6.686821   -0.680081   -4.369097
     89          6           0        5.177654   -2.210905   -4.012340
     90          1           0        5.185572   -3.280260   -3.766989
     91          1           0        4.733820   -2.110938   -5.013357
     92          6           0        4.322846   -1.478434   -2.982901
     93          1           0        4.771000   -1.539267   -1.988343
     94          1           0        4.162781   -0.427300   -3.238248
     95          7           0        2.966521   -2.124397   -2.863277
     96          1           0        2.359372   -1.632904   -2.167531
     97          1           0        3.054144   -3.112640   -2.513658
     98          1           0        2.487024   -2.148579   -3.767203
     99          8           0       10.713235   -1.489648   -3.475517
    100          1           0       11.263663   -0.715660   -3.702845
 ---------------------------------------------------------------------

 SCF Done:  E(RB3LYP) =  -2418.48337973     A.U. after    1 cycles

 Alpha  occ. eigenvalues --  -19.29452 -19.26447 -19.23559 -19.23179 -19.23023
 Alpha  occ. eigenvalues --  -19.22261 -19.22081 -19.21856 -19.21362 -19.19510
 Alpha  occ. eigenvalues --  -19.18097 -14.53423 -14.47512 -14.46896 -14.45993
 Alpha  occ. eigenvalues --  -14.45414 -14.44900 -14.43583 -14.42642 -14.38558
 Alpha  occ. eigenvalues --  -10.41570 -10.40296 -10.39376 -10.39274 -10.38766
 Alpha  occ. eigenvalues --  -10.38106 -10.36036 -10.36015 -10.34744 -10.34442
 Alpha  occ. eigenvalues --  -10.34438 -10.33705 -10.33414 -10.33237 -10.32990
 Alpha  occ. eigenvalues --  -10.32721 -10.31224 -10.30095 -10.29265 -10.27700
 Alpha  occ. eigenvalues --  -10.27499 -10.27201 -10.27090 -10.26390 -10.25572
 Alpha  occ. eigenvalues --  -10.24652 -10.23798 -10.23141  -1.20109  -1.15688
 Alpha  occ. eigenvalues --   -1.14775  -1.14142  -1.13078  -1.12959  -1.12658
 Alpha  occ. eigenvalues --   -1.11080  -1.10945  -1.09929  -1.09834  -1.08616
 Alpha  occ. eigenvalues --   -1.03632  -1.03028  -1.02534  -1.02464  -1.01493
 Alpha  occ. eigenvalues --   -1.00349  -0.97227  -0.95783  -0.90444  -0.88976
 Alpha  occ. eigenvalues --   -0.88086  -0.87426  -0.86602  -0.85408  -0.83213
 Alpha  occ. eigenvalues --   -0.82357  -0.80768  -0.80544  -0.80054  -0.77277
 Alpha  occ. eigenvalues --   -0.76390  -0.75079  -0.73921  -0.72727  -0.71450
 Alpha  occ. eigenvalues --   -0.71260  -0.70505  -0.69185  -0.68677  -0.68274
 Alpha  occ. eigenvalues --   -0.68139  -0.67837  -0.66992  -0.66365  -0.65716
 Alpha  occ. eigenvalues --   -0.65315  -0.65007  -0.64780  -0.63304  -0.63146
 Alpha  occ. eigenvalues --   -0.62289  -0.61761  -0.60946  -0.60699  -0.60238
 Alpha  occ. eigenvalues --   -0.59700  -0.59210  -0.58989  -0.58617  -0.58193
 Alpha  occ. eigenvalues --   -0.57942  -0.57837  -0.57384  -0.57017  -0.56861
 Alpha  occ. eigenvalues --   -0.56734  -0.56076  -0.55106  -0.54666  -0.54098
 Alpha  occ. eigenvalues --   -0.53634  -0.53404  -0.52962  -0.52820  -0.52544
 Alpha  occ. eigenvalues --   -0.52322  -0.52040  -0.51758  -0.51133  -0.50795
 Alpha  occ. eigenvalues --   -0.50682  -0.50114  -0.50026  -0.49944  -0.49669
 Alpha  occ. eigenvalues --   -0.49001  -0.48950  -0.48854  -0.48437  -0.48088
 Alpha  occ. eigenvalues --   -0.47699  -0.47629  -0.47371  -0.47204  -0.46851
 Alpha  occ. eigenvalues --   -0.46781  -0.46496  -0.46411  -0.46003  -0.45868
 Alpha  occ. eigenvalues --   -0.45656  -0.45293  -0.45205  -0.44519  -0.44341
 Alpha  occ. eigenvalues --   -0.44174  -0.43851  -0.43318  -0.43110  -0.42389
 Alpha  occ. eigenvalues --   -0.42144  -0.41984  -0.41261  -0.40638  -0.39853
 Alpha  occ. eigenvalues --   -0.39774  -0.39014  -0.38778  -0.38117  -0.37941
 Alpha  occ. eigenvalues --   -0.37682  -0.37145  -0.36964  -0.36547  -0.36030
 Alpha  occ. eigenvalues --   -0.35602  -0.35168  -0.34821  -0.34706  -0.34407
 Alpha  occ. eigenvalues --   -0.33925  -0.33458  -0.32923  -0.32532  -0.30560
 Alpha virt. eigenvalues --   -0.10013  -0.09161  -0.08827  -0.08404  -0.07779
 Alpha virt. eigenvalues --   -0.07272  -0.05678  -0.05586  -0.03845  -0.02748
 Alpha virt. eigenvalues --   -0.02662  -0.01868  -0.00225   0.00105   0.00598

 Mulliken charges:
               1
     1  N   -0.779457
     2  H    0.311417
     3  H    0.361515
     4  C   -0.036528
     5  H    0.156945
     6  C    0.599824
     7  C   -0.386609
     8  H    0.189921
     9  H    0.172628
    10  O   -0.570148
    11  C    0.617773
    12  N   -0.742606
    13  H    0.355674
    14  H    0.347496
    15  O   -0.511536
    16  N   -0.604991
    17  H    0.376585
    18  C   -0.036694
    19  H    0.172777
    20  C    0.635385
    21  C   -0.100843
    22  H    0.149525
    23  O   -0.572368
    24  C   -0.262360
    25  H    0.139618
    26  H    0.135182
    27  C   -0.479704
    28  H    0.144469
    29  H    0.168574
    30  H    0.162142
    31  C   -0.451215
    32  H    0.156541
    33  H    0.149852
    34  H    0.155419
    35  N   -0.614640
    36  H    0.392754
    37  C   -0.055315
    38  H    0.184794
    39  C    0.641068
    40  C   -0.480203
    41  H    0.152782
    42  H    0.185383
    43  H    0.174010
    44  O   -0.591916
    45  N   -0.607342
    46  H    0.379834
    47  C   -0.026437
    48  H    0.164662
    49  C    0.625757
    50  C    0.092076
    51  H    0.157619
    52  O   -0.563250
    53  C   -0.460603
    54  H    0.150161
    55  H    0.185180
    56  H    0.158838
    57  O   -0.636072
    58  H    0.431420
    59  N   -0.624541
    60  H    0.362909
    61  C   -0.023538
    62  H    0.184565
    63  C    0.588137
    64  C   -0.080017
    65  H    0.176763
    66  H    0.203191
    67  O   -0.531467
    68  O   -0.650356
    69  H    0.444124
    70  N   -0.563841
    71  H    0.350315
    72  C   -0.255260
    73  H    0.198885
    74  H    0.202233
    75  C    0.638366
    76  O   -0.527788
    77  N   -0.633869
    78  H    0.365373
    79  C   -0.031574
    80  H    0.208306
    81  C    0.591891
    82  C   -0.288839
    83  H    0.184043
    84  H    0.184263
    85  O   -0.439777
    86  C   -0.281448
    87  H    0.163148
    88  H    0.160024
    89  C   -0.292634
    90  H    0.181325
    91  H    0.151673
    92  C   -0.203637
    93  H    0.228095
    94  H    0.192136
    95  N   -0.801495
    96  H    0.441760
    97  H    0.436403
    98  H    0.381260
    99  O   -0.586144
   100  H    0.432273
 Sum of Mulliken charges =   1.00000

 Dipole moment (field-independent basis, Debye):
    X=             15.2104    Y=             -6.0732    Z=             -5.4662  Tot=             17.2661
 Quadrupole moment (field-independent basis, Debye-Ang):
   XX=           -102.0372   YY=           -204.3372   ZZ=           -253.1741
   XY=            -95.2948   XZ=            -25.4684   YZ=              8.5303

 Normal termination of Gaussian 16 at Fri May 27 02:49:00 2022.
