 Gaussian 16, Revision C.01,
 Gaussian 16:  ES64L-G16RevC.01  3-Jul-2019

 -------------------------------------------------------------------
 # B3LYP/6-31G* guess=read geom=check nosymm integral(ultrafinegrid)
 -------------------------------------------------------------------

 ------------------------------------------------------
 Candidate Structure: Conf:472 Charge calc in gas phase
 ------------------------------------------------------
 Structure from the checkpoint file:  "conf-472.chk"
 Charge =  1 Multiplicity = 1

                          Input orientation:
 ---------------------------------------------------------------------
 Center     Atomic      Atomic             Coordinates (Angstroms)
 Number     Number       Type             X           Y           Z
 ---------------------------------------------------------------------
      1          7           0       -7.420176    2.135704    2.526784
      2          1           0       -8.387975    1.919321    2.305037
      3          1           0       -7.053327    2.783954    1.833957
      4          6           0       -6.600283    0.937437    2.569557
      5          1           0       -6.775206    0.424603    3.522420
      6          6           0       -5.130833    1.403825    2.535358
      7          6           0       -6.877328   -0.093693    1.433579
      8          1           0       -7.951412   -0.072704    1.208626
      9          1           0       -6.368326    0.205885    0.506838
     10          8           0       -4.818315    2.487835    2.026315
     11          6           0       -6.478972   -1.528756    1.781891
     12          7           0       -7.047874   -2.492904    1.015828
     13          1           0       -6.836433   -3.459989    1.222594
     14          1           0       -7.751650   -2.292617    0.321030
     15          8           0       -5.693929   -1.811725    2.689474
     16          7           0       -4.229091    0.557386    3.083687
     17          1           0       -4.549526   -0.398928    3.254042
     18          6           0       -2.813470    0.898107    3.218117
     19          1           0       -2.777532    1.979014    3.397613
     20          6           0       -2.071451    0.630424    1.882480
     21          6           0       -2.178275    0.148905    4.410112
     22          1           0       -2.130558   -0.911895    4.130581
     23          8           0       -1.253514   -0.290778    1.740457
     24          6           0       -3.018013    0.257460    5.704843
     25          1           0       -2.503450   -0.329411    6.478089
     26          1           0       -3.982660   -0.238268    5.550809
     27          6           0       -0.731291    0.623156    4.638496
     28          1           0       -0.680315    1.693892    4.868040
     29          1           0       -0.303251    0.087538    5.499052
     30          1           0       -0.127162    0.432998    3.745998
     31          6           0       -3.268089    1.676992    6.229936
     32          1           0       -3.842382    1.638137    7.161392
     33          1           0       -2.335917    2.211313    6.446856
     34          1           0       -3.844507    2.279955    5.519880
     35          7           0       -2.394457    1.490153    0.889466
     36          1           0       -3.142313    2.158203    1.094055
     37          6           0       -2.037017    1.267793   -0.518040
     38          1           0       -2.032245    0.180488   -0.679458
     39          6           0       -0.607387    1.754070   -0.857131
     40          6           0       -3.068116    1.928998   -1.428791
     41          1           0       -2.813646    1.752724   -2.475530
     42          1           0       -4.064433    1.522758   -1.229073
     43          1           0       -3.090460    3.012090   -1.274030
     44          8           0       -0.359655    2.468152   -1.822299
     45          7           0        0.360800    1.289922   -0.011288
     46          1           0        0.105689    0.567943    0.665433
     47          6           0        1.759500    1.584479   -0.263227
     48          1           0        1.800814    2.549564   -0.775605
     49          6           0        2.367447    0.498866   -1.167881
     50          6           0        2.565167    1.677415    1.047777
     51          1           0        3.615938    1.852750    0.779296
     52          8           0        2.786683   -0.572798   -0.675792
     53          6           0        2.079330    2.775938    1.977978
     54          1           0        2.185089    3.753348    1.497064
     55          1           0        2.680176    2.794451    2.894580
     56          1           0        1.027162    2.633861    2.240284
     57          8           0        2.473199    0.403387    1.732701
     58          1           0        2.658816   -0.266233    1.019319
     59          7           0        2.385302    0.737510   -2.482642
     60          1           0        2.148200    1.660674   -2.830920
     61          6           0        3.087572   -0.147318   -3.397073
     62          1           0        2.642583   -1.147414   -3.330533
     63          6           0        4.577280   -0.237520   -2.968977
     64          6           0        2.894407    0.365841   -4.829589
     65          1           0        1.850527    0.188072   -5.129448
     66          1           0        3.546880   -0.207875   -5.503350
     67          8           0        5.151841    0.681594   -2.410039
     68          8           0        3.205226    1.748284   -4.829294
     69          1           0        3.012563    2.112559   -5.706519
     70          7           0        5.157694   -1.444953   -3.243578
     71          1           0        4.574699   -2.199020   -3.584463
     72          6           0        6.466285   -1.810430   -2.723138
     73          1           0        7.057656   -2.327282   -3.482338
     74          1           0        6.978380   -0.881602   -2.456209
     75          6           0        6.405343   -2.731929   -1.493496
     76          8           0        7.275251   -3.561755   -1.275153
     77          7           0        5.342366   -2.527776   -0.653419
     78          1           0        4.569334   -1.951433   -0.968600
     79          6           0        5.052276   -3.488691    0.390308
     80          1           0        5.987047   -3.744784    0.896952
     81          6           0        4.485389   -4.776233   -0.226502
     82          6           0        4.052920   -2.848237    1.376605
     83          1           0        4.459212   -1.853266    1.601744
     84          1           0        3.106505   -2.681335    0.845829
     85          8           0        3.947163   -4.846981   -1.306933
     86          6           0        3.770613   -3.611796    2.676491
     87          1           0        3.301328   -4.574721    2.456240
     88          1           0        4.707059   -3.844814    3.200753
     89          6           0        2.833989   -2.805724    3.599983
     90          1           0        2.400788   -3.458848    4.364764
     91          1           0        1.992160   -2.430293    3.001248
     92          6           0        3.544667   -1.626714    4.290351
     93          1           0        3.794379   -1.847463    5.330458
     94          1           0        4.463266   -1.341059    3.772907
     95          7           0        2.683210   -0.382206    4.284252
     96          1           0        3.088698    0.359810    4.863225
     97          1           0        1.736124   -0.561369    4.637187
     98          1           0        2.588324   -0.005963    3.284800
     99          8           0        4.628855   -5.830896    0.606773
    100          1           0        4.253221   -6.607253    0.148022
 ---------------------------------------------------------------------

 SCF Done:  E(RB3LYP) =  -2418.45572786     A.U. after    2 cycles

 Alpha  occ. eigenvalues --  -19.27567 -19.27112 -19.23815 -19.23349 -19.21761
 Alpha  occ. eigenvalues --  -19.21012 -19.20659 -19.20128 -19.20108 -19.19511
 Alpha  occ. eigenvalues --  -19.18187 -14.57710 -14.46211 -14.44576 -14.44479
 Alpha  occ. eigenvalues --  -14.44164 -14.44118 -14.43614 -14.42695 -14.37836
 Alpha  occ. eigenvalues --  -10.39655 -10.39400 -10.38206 -10.38050 -10.37521
 Alpha  occ. eigenvalues --  -10.36986 -10.36961 -10.36731 -10.35513 -10.35334
 Alpha  occ. eigenvalues --  -10.33275 -10.33185 -10.32908 -10.32008 -10.31894
 Alpha  occ. eigenvalues --  -10.31846 -10.31767 -10.30255 -10.29788 -10.29508
 Alpha  occ. eigenvalues --  -10.29230 -10.28410 -10.28251 -10.28209 -10.27738
 Alpha  occ. eigenvalues --  -10.25997 -10.25711 -10.24545  -1.18316  -1.15530
 Alpha  occ. eigenvalues --   -1.13401  -1.12718  -1.12255  -1.12174  -1.11765
 Alpha  occ. eigenvalues --   -1.11663  -1.11424  -1.11082  -1.10282  -1.09279
 Alpha  occ. eigenvalues --   -1.02682  -1.01272  -1.00954  -1.00791  -1.00034
 Alpha  occ. eigenvalues --   -0.99382  -0.99161  -0.95681  -0.92573  -0.89592
 Alpha  occ. eigenvalues --   -0.88568  -0.87164  -0.86232  -0.85451  -0.83931
 Alpha  occ. eigenvalues --   -0.82192  -0.81404  -0.80987  -0.79575  -0.79421
 Alpha  occ. eigenvalues --   -0.76212  -0.73967  -0.73570  -0.73402  -0.72531
 Alpha  occ. eigenvalues --   -0.72347  -0.71441  -0.70176  -0.69462  -0.69177
 Alpha  occ. eigenvalues --   -0.68103  -0.67613  -0.67302  -0.66679  -0.66351
 Alpha  occ. eigenvalues --   -0.65127  -0.65052  -0.63988  -0.63623  -0.62992
 Alpha  occ. eigenvalues --   -0.62534  -0.62368  -0.61486  -0.61308  -0.60838
 Alpha  occ. eigenvalues --   -0.60028  -0.59663  -0.59034  -0.58785  -0.57858
 Alpha  occ. eigenvalues --   -0.57489  -0.56816  -0.56401  -0.56281  -0.56193
 Alpha  occ. eigenvalues --   -0.55564  -0.55328  -0.54949  -0.54283  -0.53966
 Alpha  occ. eigenvalues --   -0.53819  -0.53206  -0.52814  -0.52452  -0.52316
 Alpha  occ. eigenvalues --   -0.52133  -0.51751  -0.51425  -0.51328  -0.50789
 Alpha  occ. eigenvalues --   -0.50691  -0.50656  -0.50188  -0.49802  -0.49582
 Alpha  occ. eigenvalues --   -0.49423  -0.48984  -0.48935  -0.48726  -0.48477
 Alpha  occ. eigenvalues --   -0.48330  -0.47923  -0.47414  -0.47351  -0.47251
 Alpha  occ. eigenvalues --   -0.47070  -0.46748  -0.46695  -0.46530  -0.46111
 Alpha  occ. eigenvalues --   -0.45845  -0.45519  -0.45320  -0.45035  -0.44837
 Alpha  occ. eigenvalues --   -0.44570  -0.44402  -0.44209  -0.43917  -0.43661
 Alpha  occ. eigenvalues --   -0.43466  -0.42988  -0.42765  -0.40693  -0.40610
 Alpha  occ. eigenvalues --   -0.40467  -0.39755  -0.39487  -0.38047  -0.37041
 Alpha  occ. eigenvalues --   -0.36679  -0.36329  -0.36130  -0.35646  -0.35514
 Alpha  occ. eigenvalues --   -0.35284  -0.34763  -0.33877  -0.33699  -0.33106
 Alpha  occ. eigenvalues --   -0.32697  -0.32596  -0.32190  -0.31084  -0.29868
 Alpha virt. eigenvalues --   -0.09790  -0.09139  -0.07836  -0.07315  -0.06558
 Alpha virt. eigenvalues --   -0.06212  -0.05911  -0.05323  -0.04284  -0.04141
 Alpha virt. eigenvalues --   -0.03321  -0.02182  -0.01307  -0.01250  -0.00698

 Mulliken charges:
               1
     1  N   -0.716479
     2  H    0.301366
     3  H    0.323829
     4  C   -0.044076
     5  H    0.173383
     6  C    0.610077
     7  C   -0.400619
     8  H    0.164052
     9  H    0.184571
    10  O   -0.552668
    11  C    0.617968
    12  N   -0.737759
    13  H    0.357171
    14  H    0.351692
    15  O   -0.528007
    16  N   -0.628131
    17  H    0.392693
    18  C   -0.050770
    19  H    0.180970
    20  C    0.624364
    21  C   -0.087710
    22  H    0.151393
    23  O   -0.568361
    24  C   -0.259616
    25  H    0.134129
    26  H    0.153709
    27  C   -0.506581
    28  H    0.163858
    29  H    0.126076
    30  H    0.154430
    31  C   -0.461128
    32  H    0.163851
    33  H    0.140599
    34  H    0.166466
    35  N   -0.616271
    36  H    0.391238
    37  C   -0.064733
    38  H    0.182667
    39  C    0.622169
    40  C   -0.464213
    41  H    0.181547
    42  H    0.151372
    43  H    0.178200
    44  O   -0.520290
    45  N   -0.626833
    46  H    0.378952
    47  C   -0.085939
    48  H    0.195324
    49  C    0.687066
    50  C    0.124119
    51  H    0.171140
    52  O   -0.600269
    53  C   -0.470488
    54  H    0.184933
    55  H    0.137036
    56  H    0.175847
    57  O   -0.728659
    58  H    0.461935
    59  N   -0.581907
    60  H    0.380751
    61  C   -0.069790
    62  H    0.175417
    63  C    0.614333
    64  C   -0.055108
    65  H    0.155955
    66  H    0.158282
    67  O   -0.501243
    68  O   -0.609654
    69  H    0.417810
    70  N   -0.607410
    71  H    0.343171
    72  C   -0.234269
    73  H    0.197442
    74  H    0.223832
    75  C    0.595607
    76  O   -0.503868
    77  N   -0.619792
    78  H    0.372340
    79  C   -0.026768
    80  H    0.199324
    81  C    0.597187
    82  C   -0.320102
    83  H    0.149877
    84  H    0.174252
    85  O   -0.465466
    86  C   -0.275345
    87  H    0.181545
    88  H    0.161514
    89  C   -0.306465
    90  H    0.181407
    91  H    0.173842
    92  C   -0.188753
    93  H    0.210968
    94  H    0.212675
    95  N   -0.784556
    96  H    0.400111
    97  H    0.407780
    98  H    0.467418
    99  O   -0.563951
   100  H    0.421017
 Sum of Mulliken charges =   1.00000

 Dipole moment (field-independent basis, Debye):
    X=             -0.7628    Y=             -4.5094    Z=              8.8892  Tot=              9.9967
 Quadrupole moment (field-independent basis, Debye-Ang):
   XX=           -205.6009   YY=           -267.3705   ZZ=           -178.4516
   XY=             20.2603   XZ=             35.5651   YZ=            -10.7261

 Normal termination of Gaussian 16 at Fri May 27 02:49:25 2022.
