 Gaussian 16, Revision C.01,
 Gaussian 16:  ES64L-G16RevC.01  3-Jul-2019

 -------------------------------------------------------------------
 # B3LYP/6-31G* guess=read geom=check nosymm integral(ultrafinegrid)
 -------------------------------------------------------------------

 ------------------------------------------------------
 Candidate Structure: Conf:535 Charge calc in gas phase
 ------------------------------------------------------
 Structure from the checkpoint file:  "conf-535.chk"
 Charge =  1 Multiplicity = 1

                          Input orientation:
 ---------------------------------------------------------------------
 Center     Atomic      Atomic             Coordinates (Angstroms)
 Number     Number       Type             X           Y           Z
 ---------------------------------------------------------------------
      1          7           0       -7.433168    0.398067    2.785795
      2          1           0       -8.361486    0.231693    2.399323
      3          1           0       -7.559153    0.511583    3.792350
      4          6           0       -6.935140    1.648426    2.202078
      5          1           0       -7.106518    1.566964    1.120800
      6          6           0       -5.412411    1.764371    2.369791
      7          6           0       -7.632965    2.931609    2.676017
      8          1           0       -7.592945    3.002751    3.772528
      9          1           0       -7.093374    3.804961    2.292095
     10          8           0       -4.812948    2.835006    2.196823
     11          6           0       -9.092993    2.966347    2.220841
     12          7           0       -9.775598    4.095754    2.556012
     13          1           0      -10.733031    4.187308    2.245110
     14          1           0       -9.327566    4.895563    2.977604
     15          8           0       -9.618602    2.040644    1.610453
     16          7           0       -4.792242    0.601666    2.669830
     17          1           0       -5.400581   -0.212208    2.726458
     18          6           0       -3.350210    0.500603    2.894153
     19          1           0       -3.044290    1.442400    3.367036
     20          6           0       -2.658542    0.422176    1.512147
     21          6           0       -2.975654   -0.679600    3.814526
     22          1           0       -3.189813   -1.605086    3.261867
     23          8           0       -2.224856   -0.631387    1.030582
     24          6           0       -3.809582   -0.671021    5.114221
     25          1           0       -4.876660   -0.624663    4.867417
     26          1           0       -3.588888    0.249854    5.673666
     27          6           0       -1.467312   -0.639708    4.114425
     28          1           0       -1.213288    0.243196    4.715623
     29          1           0       -1.162146   -1.524236    4.681531
     30          1           0       -0.876569   -0.610962    3.195511
     31          6           0       -3.577709   -1.888834    6.017013
     32          1           0       -4.259083   -1.865844    6.874243
     33          1           0       -3.759802   -2.824627    5.474242
     34          1           0       -2.557642   -1.924444    6.412775
     35          7           0       -2.601359    1.608993    0.855455
     36          1           0       -3.136788    2.377102    1.268646
     37          6           0       -2.305462    1.682621   -0.579655
     38          1           0       -2.700623    0.768812   -1.043830
     39          6           0       -0.781725    1.675744   -0.834269
     40          6           0       -2.971354    2.912057   -1.192038
     41          1           0       -2.833434    2.923952   -2.276462
     42          1           0       -4.044198    2.894548   -0.979683
     43          1           0       -2.544791    3.833631   -0.786109
     44          8           0       -0.196506    2.639970   -1.365737
     45          7           0       -0.149464    0.540114   -0.477176
     46          1           0       -0.704967   -0.151511    0.041817
     47          6           0        1.305217    0.382311   -0.544292
     48          1           0        1.767662    1.320413   -0.212717
     49          6           0        1.690065    0.128853   -2.018313
     50          6           0        1.768511   -0.745909    0.387215
     51          1           0        1.321756   -1.686800    0.033726
     52          8           0        1.865580   -1.011294   -2.470424
     53          6           0        3.291869   -0.880434    0.420795
     54          1           0        3.696759   -1.145448   -0.560289
     55          1           0        3.580189   -1.670050    1.123942
     56          1           0        3.750945    0.054178    0.760901
     57          8           0        1.257403   -0.395726    1.670677
     58          1           0        1.410438   -1.140436    2.272485
     59          7           0        1.757954    1.262368   -2.759935
     60          1           0        1.333548    2.065416   -2.283355
     61          6           0        1.648512    1.234186   -4.217709
     62          1           0        1.086348    0.345279   -4.517156
     63          6           0        2.997225    1.146772   -4.937051
     64          6           0        0.851486    2.476771   -4.699803
     65          1           0        0.811456    2.443307   -5.792369
     66          1           0        1.395207    3.390769   -4.412038
     67          8           0        3.108707    0.500385   -5.982121
     68          8           0       -0.471341    2.469187   -4.226848
     69          1           0       -0.483835    2.768432   -3.297311
     70          7           0        4.023101    1.867156   -4.417702
     71          1           0        3.932250    2.220942   -3.475248
     72          6           0        5.322674    1.882229   -5.063852
     73          1           0        5.232598    2.332213   -6.058019
     74          1           0        5.990417    2.510978   -4.467324
     75          6           0        5.930089    0.469230   -5.162495
     76          8           0        5.743593   -0.358036   -4.264663
     77          7           0        6.644100    0.242040   -6.290369
     78          1           0        6.782669    0.996492   -6.955770
     79          6           0        7.339787   -0.995833   -6.640562
     80          1           0        7.759287   -1.430558   -5.727035
     81          6           0        8.478067   -0.609457   -7.578150
     82          6           0        6.417555   -2.066551   -7.315114
     83          1           0        6.122083   -1.728459   -8.316147
     84          1           0        6.997051   -2.988818   -7.429680
     85          8           0        8.577101    0.472197   -8.115112
     86          6           0        5.205043   -2.228712   -6.403741
     87          1           0        5.613325   -2.398702   -5.403697
     88          1           0        4.721490   -1.249101   -6.389546
     89          6           0        4.080378   -3.242993   -6.626864
     90          1           0        4.384926   -4.263942   -6.364742
     91          1           0        3.738517   -3.268227   -7.668088
     92          6           0        2.881763   -2.781679   -5.772262
     93          1           0        2.429226   -1.887695   -6.205694
     94          1           0        2.119104   -3.553126   -5.645032
     95          7           0        3.310555   -2.353346   -4.377385
     96          1           0        2.558028   -1.880573   -3.822190
     97          1           0        4.084427   -1.663869   -4.411704
     98          1           0        3.643658   -3.147466   -3.822753
     99          8           0        9.329773   -1.629663   -7.764799
    100          1           0       10.010559   -1.331158   -8.398950
 ---------------------------------------------------------------------

 SCF Done:  E(RB3LYP) =  -2418.47404403     A.U. after    3 cycles

 Alpha  occ. eigenvalues --  -19.29631 -19.24460 -19.24194 -19.23376 -19.22641
 Alpha  occ. eigenvalues --  -19.22410 -19.22107 -19.21977 -19.19709 -19.18465
 Alpha  occ. eigenvalues --  -19.17198 -14.55194 -14.47209 -14.46924 -14.46562
 Alpha  occ. eigenvalues --  -14.44955 -14.42981 -14.42552 -14.41445 -14.38275
 Alpha  occ. eigenvalues --  -10.42258 -10.40529 -10.39994 -10.39421 -10.38183
 Alpha  occ. eigenvalues --  -10.36137 -10.35733 -10.35181 -10.34939 -10.34555
 Alpha  occ. eigenvalues --  -10.33881 -10.33439 -10.33262 -10.33169 -10.32893
 Alpha  occ. eigenvalues --  -10.31490 -10.30513 -10.30049 -10.29552 -10.28899
 Alpha  occ. eigenvalues --  -10.28454 -10.26573 -10.25633 -10.25600 -10.25265
 Alpha  occ. eigenvalues --  -10.24074 -10.23216 -10.22845  -1.20709  -1.15606
 Alpha  occ. eigenvalues --   -1.14741  -1.13621  -1.13168  -1.11881  -1.11258
 Alpha  occ. eigenvalues --   -1.10949  -1.10054  -1.09949  -1.09893  -1.08934
 Alpha  occ. eigenvalues --   -1.03906  -1.03307  -1.02617  -1.01426  -0.99888
 Alpha  occ. eigenvalues --   -0.99164  -0.96125  -0.95176  -0.91734  -0.88925
 Alpha  occ. eigenvalues --   -0.88176  -0.87149  -0.86157  -0.84546  -0.83264
 Alpha  occ. eigenvalues --   -0.82004  -0.81454  -0.80004  -0.79742  -0.76574
 Alpha  occ. eigenvalues --   -0.75920  -0.74451  -0.73098  -0.72601  -0.71894
 Alpha  occ. eigenvalues --   -0.71210  -0.70753  -0.69978  -0.68984  -0.68848
 Alpha  occ. eigenvalues --   -0.68487  -0.67837  -0.66973  -0.66511  -0.65374
 Alpha  occ. eigenvalues --   -0.64516  -0.63976  -0.63840  -0.63098  -0.62271
 Alpha  occ. eigenvalues --   -0.62024  -0.60847  -0.60496  -0.60229  -0.59993
 Alpha  occ. eigenvalues --   -0.59724  -0.59343  -0.59068  -0.58242  -0.58178
 Alpha  occ. eigenvalues --   -0.57772  -0.57655  -0.57004  -0.56763  -0.55979
 Alpha  occ. eigenvalues --   -0.55800  -0.55189  -0.54715  -0.54432  -0.53986
 Alpha  occ. eigenvalues --   -0.53564  -0.53018  -0.52684  -0.52282  -0.52127
 Alpha  occ. eigenvalues --   -0.51823  -0.51632  -0.51533  -0.51352  -0.50936
 Alpha  occ. eigenvalues --   -0.50617  -0.50531  -0.50052  -0.49717  -0.49385
 Alpha  occ. eigenvalues --   -0.49205  -0.48831  -0.48617  -0.48199  -0.48056
 Alpha  occ. eigenvalues --   -0.47642  -0.47274  -0.47121  -0.46976  -0.46730
 Alpha  occ. eigenvalues --   -0.46574  -0.46094  -0.45970  -0.45722  -0.45515
 Alpha  occ. eigenvalues --   -0.45004  -0.44924  -0.44631  -0.44328  -0.43898
 Alpha  occ. eigenvalues --   -0.43520  -0.43328  -0.42946  -0.42686  -0.41763
 Alpha  occ. eigenvalues --   -0.41673  -0.41634  -0.41393  -0.41058  -0.39243
 Alpha  occ. eigenvalues --   -0.39116  -0.38735  -0.38481  -0.38196  -0.38141
 Alpha  occ. eigenvalues --   -0.37375  -0.36959  -0.36523  -0.36308  -0.35965
 Alpha  occ. eigenvalues --   -0.35560  -0.35028  -0.34701  -0.34168  -0.33554
 Alpha  occ. eigenvalues --   -0.32656  -0.32498  -0.31378  -0.31127  -0.30165
 Alpha virt. eigenvalues --   -0.10284  -0.09720  -0.09176  -0.08450  -0.07767
 Alpha virt. eigenvalues --   -0.06318  -0.06119  -0.04176  -0.02860  -0.01854
 Alpha virt. eigenvalues --   -0.01434  -0.01187  -0.00150   0.00147   0.00245

 Mulliken charges:
               1
     1  N   -0.756890
     2  H    0.346462
     3  H    0.305265
     4  C   -0.062217
     5  H    0.191522
     6  C    0.616225
     7  C   -0.389155
     8  H    0.166014
     9  H    0.194897
    10  O   -0.569483
    11  C    0.610361
    12  N   -0.748976
    13  H    0.351774
    14  H    0.344232
    15  O   -0.512508
    16  N   -0.610548
    17  H    0.371757
    18  C   -0.038459
    19  H    0.174196
    20  C    0.633949
    21  C   -0.092829
    22  H    0.146982
    23  O   -0.558458
    24  C   -0.257311
    25  H    0.132650
    26  H    0.135766
    27  C   -0.487623
    28  H    0.145055
    29  H    0.152481
    30  H    0.170309
    31  C   -0.450443
    32  H    0.153941
    33  H    0.147167
    34  H    0.152232
    35  N   -0.615595
    36  H    0.389167
    37  C   -0.057832
    38  H    0.186127
    39  C    0.643290
    40  C   -0.479691
    41  H    0.175521
    42  H    0.172333
    43  H    0.179602
    44  O   -0.578408
    45  N   -0.616600
    46  H    0.409079
    47  C   -0.053220
    48  H    0.186086
    49  C    0.642834
    50  C    0.119228
    51  H    0.147684
    52  O   -0.571852
    53  C   -0.473463
    54  H    0.150903
    55  H    0.157947
    56  H    0.167086
    57  O   -0.620026
    58  H    0.408884
    59  N   -0.633592
    60  H    0.382378
    61  C   -0.064917
    62  H    0.177368
    63  C    0.611590
    64  C   -0.062652
    65  H    0.181725
    66  H    0.140670
    67  O   -0.543202
    68  O   -0.633400
    69  H    0.433581
    70  N   -0.570372
    71  H    0.353519
    72  C   -0.234564
    73  H    0.193438
    74  H    0.201222
    75  C    0.640267
    76  O   -0.554881
    77  N   -0.603352
    78  H    0.364158
    79  C   -0.043128
    80  H    0.203541
    81  C    0.588582
    82  C   -0.272194
    83  H    0.163991
    84  H    0.177374
    85  O   -0.454895
    86  C   -0.329090
    87  H    0.149745
    88  H    0.199890
    89  C   -0.275661
    90  H    0.162237
    91  H    0.184121
    92  C   -0.199646
    93  H    0.236738
    94  H    0.197542
    95  N   -0.799520
    96  H    0.444081
    97  H    0.442330
    98  H    0.391766
    99  O   -0.557145
   100  H    0.432935
 Sum of Mulliken charges =   1.00000

 Dipole moment (field-independent basis, Debye):
    X=             11.2381    Y=             -2.1061    Z=            -12.1272  Tot=             16.6673
 Quadrupole moment (field-independent basis, Debye-Ang):
   XX=           -121.8607   YY=           -232.1697   ZZ=           -155.0081
   XY=            -59.5027   XZ=           -136.5222   YZ=             40.9245

 Normal termination of Gaussian 16 at Fri May 27 02:49:36 2022.
