 Gaussian 16, Revision C.01,
 Gaussian 16:  ES64L-G16RevC.01  3-Jul-2019

 -------------------------------------------------------------------
 # B3LYP/6-31G* guess=read geom=check nosymm integral(ultrafinegrid)
 -------------------------------------------------------------------

 ------------------------------------------------------
 Candidate Structure: Conf:234 Charge calc in gas phase
 ------------------------------------------------------
 Structure from the checkpoint file:  "conf-234.chk"
 Charge =  1 Multiplicity = 1

                          Input orientation:
 ---------------------------------------------------------------------
 Center     Atomic      Atomic             Coordinates (Angstroms)
 Number     Number       Type             X           Y           Z
 ---------------------------------------------------------------------
      1          7           0       -7.885809    3.492801    2.054115
      2          1           0       -7.515491    4.257753    1.487847
      3          1           0       -7.895426    3.842574    3.011725
      4          6           0       -6.955809    2.374405    1.951782
      5          1           0       -7.198212    1.656429    2.744434
      6          6           0       -5.485002    2.816408    2.088806
      7          6           0       -7.161013    1.688865    0.575082
      8          1           0       -8.217285    1.406470    0.506824
      9          1           0       -6.948099    2.410867   -0.217529
     10          8           0       -5.106357    3.888275    1.604893
     11          6           0       -6.244965    0.490211    0.360586
     12          7           0       -6.560937   -0.623734    1.104539
     13          1           0       -6.043010   -1.467041    0.889279
     14          1           0       -7.502934   -0.753326    1.449185
     15          8           0       -5.246911    0.529420   -0.346827
     16          7           0       -4.656042    1.971656    2.751689
     17          1           0       -4.999101    1.051756    2.996168
     18          6           0       -3.227047    2.246312    2.949887
     19          1           0       -3.159392    3.335387    3.034294
     20          6           0       -2.428888    1.851730    1.683149
     21          6           0       -2.727989    1.621942    4.273903
     22          1           0       -3.370743    2.068301    5.047679
     23          8           0       -1.651969    0.890533    1.632269
     24          6           0       -1.274098    2.026210    4.602683
     25          1           0       -0.603878    1.579254    3.860326
     26          1           0       -1.025650    1.568372    5.569135
     27          6           0       -2.893288    0.093288    4.350733
     28          1           0       -2.292021   -0.404900    3.587478
     29          1           0       -2.574193   -0.262853    5.336522
     30          1           0       -3.936397   -0.227992    4.230685
     31          6           0       -1.021170    3.537134    4.688453
     32          1           0       -0.022152    3.739004    5.092267
     33          1           0       -1.070916    4.022785    3.707992
     34          1           0       -1.743390    4.029504    5.351575
     35          7           0       -2.651964    2.664194    0.621618
     36          1           0       -3.372707    3.379062    0.724735
     37          6           0       -2.239292    2.297478   -0.737758
     38          1           0       -2.265637    1.201799   -0.791184
     39          6           0       -0.782853    2.733138   -1.008789
     40          6           0       -3.207019    2.888586   -1.757828
     41          1           0       -2.891466    2.629727   -2.771754
     42          1           0       -4.203878    2.479372   -1.579132
     43          1           0       -3.231577    3.980783   -1.691448
     44          8           0       -0.495012    3.537675   -1.908204
     45          7           0        0.148557    2.146136   -0.219889
     46          1           0       -0.198029    1.567882    0.551002
     47          6           0        1.530463    2.629082   -0.162859
     48          1           0        1.509077    3.719941   -0.287256
     49          6           0        2.340228    2.030943   -1.334266
     50          6           0        2.160776    2.299737    1.198725
     51          1           0        2.262880    1.207447    1.276155
     52          8           0        3.217230    1.171897   -1.192892
     53          6           0        3.530356    2.953783    1.381709
     54          1           0        4.252801    2.574352    0.655046
     55          1           0        3.917968    2.730363    2.382729
     56          1           0        3.451055    4.042463    1.286724
     57          8           0        1.228155    2.784746    2.166271
     58          1           0        1.561373    2.548168    3.045290
     59          7           0        1.996096    2.538511   -2.546609
     60          1           0        1.164169    3.146071   -2.547069
     61          6           0        2.408496    1.910312   -3.793736
     62          1           0        2.441468    0.821268   -3.637190
     63          6           0        3.834194    2.302699   -4.249491
     64          6           0        1.368183    2.247417   -4.877840
     65          1           0        1.189206    3.328775   -4.902111
     66          1           0        0.419393    1.753133   -4.657906
     67          8           0        4.065046    2.737915   -5.395397
     68          8           0        1.800439    1.825009   -6.180040
     69          1           0        2.664246    2.311679   -6.274396
     70          7           0        4.813995    2.074749   -3.364887
     71          1           0        4.557732    1.601175   -2.495463
     72          6           0        6.194954    2.152526   -3.793894
     73          1           0        6.399393    3.142063   -4.213083
     74          1           0        6.834881    2.013847   -2.917194
     75          6           0        6.517992    1.045181   -4.817138
     76          8           0        5.962281   -0.050845   -4.773631
     77          7           0        7.457925    1.380057   -5.732518
     78          1           0        7.914029    2.286250   -5.684405
     79          6           0        8.120681    0.422694   -6.607235
     80          1           0        8.272848   -0.514146   -6.056639
     81          6           0        9.498709    1.015046   -6.910751
     82          6           0        7.379526    0.085862   -7.930615
     83          1           0        7.096410    1.021758   -8.428381
     84          1           0        8.110652   -0.407354   -8.578209
     85          8           0        9.834286    2.143064   -6.621135
     86          6           0        6.162836   -0.851006   -7.769648
     87          1           0        6.125018   -1.531815   -8.629088
     88          1           0        6.314512   -1.472933   -6.881339
     89          6           0        4.795648   -0.144417   -7.660159
     90          1           0        4.465016    0.168867   -8.661302
     91          1           0        4.864510    0.753574   -7.040092
     92          6           0        3.786020   -1.107252   -7.041714
     93          1           0        3.808712   -2.086578   -7.528875
     94          1           0        3.991123   -1.232278   -5.976087
     95          7           0        2.359248   -0.604701   -7.163489
     96          1           0        1.693838   -1.291394   -6.794787
     97          1           0        2.112817   -0.446327   -8.146076
     98          1           0        2.179944    0.325299   -6.653575
     99          8           0       10.291034    0.136967   -7.547095
    100          1           0       11.142749    0.584158   -7.717024
 ---------------------------------------------------------------------

 SCF Done:  E(RB3LYP) =  -2418.46584552     A.U. after    1 cycles

 Alpha  occ. eigenvalues --  -19.29192 -19.27153 -19.23788 -19.23025 -19.21611
 Alpha  occ. eigenvalues --  -19.21269 -19.20970 -19.19523 -19.18751 -19.18511
 Alpha  occ. eigenvalues --  -19.18476 -14.57359 -14.45496 -14.45356 -14.44558
 Alpha  occ. eigenvalues --  -14.43391 -14.42759 -14.42634 -14.41768 -14.37662
 Alpha  occ. eigenvalues --  -10.41762 -10.39226 -10.38307 -10.37794 -10.36804
 Alpha  occ. eigenvalues --  -10.35947 -10.35808 -10.35343 -10.35133 -10.34666
 Alpha  occ. eigenvalues --  -10.33967 -10.33671 -10.32422 -10.31363 -10.31049
 Alpha  occ. eigenvalues --  -10.30495 -10.29744 -10.29643 -10.29546 -10.28849
 Alpha  occ. eigenvalues --  -10.28799 -10.26035 -10.25486 -10.24423 -10.23423
 Alpha  occ. eigenvalues --  -10.23230 -10.22974 -10.22724  -1.20297  -1.15568
 Alpha  occ. eigenvalues --   -1.13356  -1.12862  -1.12522  -1.11590  -1.11389
 Alpha  occ. eigenvalues --   -1.10980  -1.10611  -1.10067  -1.09644  -1.09069
 Alpha  occ. eigenvalues --   -1.02461  -1.01995  -1.01333  -0.99616  -0.99294
 Alpha  occ. eigenvalues --   -0.98036  -0.97297  -0.95219  -0.91769  -0.88121
 Alpha  occ. eigenvalues --   -0.87279  -0.86881  -0.84822  -0.83025  -0.82951
 Alpha  occ. eigenvalues --   -0.82497  -0.81157  -0.79072  -0.77930  -0.76852
 Alpha  occ. eigenvalues --   -0.75762  -0.75167  -0.71956  -0.71818  -0.71307
 Alpha  occ. eigenvalues --   -0.70675  -0.70275  -0.69671  -0.68390  -0.68215
 Alpha  occ. eigenvalues --   -0.67757  -0.67449  -0.66714  -0.65977  -0.65211
 Alpha  occ. eigenvalues --   -0.64650  -0.63602  -0.63147  -0.62398  -0.62269
 Alpha  occ. eigenvalues --   -0.61737  -0.61021  -0.60700  -0.60623  -0.59741
 Alpha  occ. eigenvalues --   -0.59319  -0.59142  -0.58645  -0.58306  -0.57148
 Alpha  occ. eigenvalues --   -0.57043  -0.56625  -0.55918  -0.55614  -0.55310
 Alpha  occ. eigenvalues --   -0.55195  -0.54732  -0.54385  -0.53855  -0.53728
 Alpha  occ. eigenvalues --   -0.53605  -0.52186  -0.52047  -0.51719  -0.51615
 Alpha  occ. eigenvalues --   -0.51143  -0.50787  -0.50740  -0.50624  -0.50413
 Alpha  occ. eigenvalues --   -0.49808  -0.49484  -0.49272  -0.48958  -0.48667
 Alpha  occ. eigenvalues --   -0.48391  -0.48192  -0.48046  -0.47774  -0.47254
 Alpha  occ. eigenvalues --   -0.47125  -0.46899  -0.46632  -0.46510  -0.46181
 Alpha  occ. eigenvalues --   -0.45889  -0.45639  -0.45312  -0.45076  -0.44895
 Alpha  occ. eigenvalues --   -0.44753  -0.44228  -0.44128  -0.43897  -0.43608
 Alpha  occ. eigenvalues --   -0.43462  -0.43134  -0.42761  -0.42236  -0.41615
 Alpha  occ. eigenvalues --   -0.41455  -0.41232  -0.40760  -0.40022  -0.39743
 Alpha  occ. eigenvalues --   -0.38852  -0.38447  -0.38099  -0.37890  -0.37565
 Alpha  occ. eigenvalues --   -0.36547  -0.36072  -0.35120  -0.34891  -0.34548
 Alpha  occ. eigenvalues --   -0.34468  -0.34224  -0.34181  -0.33716  -0.33219
 Alpha  occ. eigenvalues --   -0.32104  -0.31854  -0.30957  -0.30552  -0.29986
 Alpha virt. eigenvalues --   -0.09645  -0.09128  -0.08780  -0.07391  -0.06859
 Alpha virt. eigenvalues --   -0.05967  -0.05396  -0.04948  -0.03941  -0.03846
 Alpha virt. eigenvalues --   -0.01619  -0.01203  -0.00947  -0.00375  -0.00330

 Mulliken charges:
               1
     1  N   -0.694187
     2  H    0.321150
     3  H    0.310045
     4  C   -0.077669
     5  H    0.142215
     6  C    0.608964
     7  C   -0.340268
     8  H    0.174275
     9  H    0.185953
    10  O   -0.552155
    11  C    0.555762
    12  N   -0.738872
    13  H    0.347785
    14  H    0.343334
    15  O   -0.492770
    16  N   -0.604203
    17  H    0.346252
    18  C   -0.074615
    19  H    0.190917
    20  C    0.651991
    21  C   -0.082074
    22  H    0.134374
    23  O   -0.557631
    24  C   -0.273225
    25  H    0.158202
    26  H    0.136630
    27  C   -0.477104
    28  H    0.190640
    29  H    0.153457
    30  H    0.123006
    31  C   -0.460211
    32  H    0.140979
    33  H    0.161135
    34  H    0.148171
    35  N   -0.612064
    36  H    0.384599
    37  C   -0.049714
    38  H    0.189812
    39  C    0.624797
    40  C   -0.476987
    41  H    0.150128
    42  H    0.191492
    43  H    0.166068
    44  O   -0.562066
    45  N   -0.624337
    46  H    0.401860
    47  C   -0.056851
    48  H    0.186985
    49  C    0.637929
    50  C    0.122533
    51  H    0.149615
    52  O   -0.551975
    53  C   -0.476143
    54  H    0.165900
    55  H    0.151014
    56  H    0.161443
    57  O   -0.630360
    58  H    0.405868
    59  N   -0.634442
    60  H    0.401731
    61  C   -0.079685
    62  H    0.177634
    63  C    0.643119
    64  C   -0.080735
    65  H    0.188742
    66  H    0.181200
    67  O   -0.580597
    68  O   -0.670483
    69  H    0.449468
    70  N   -0.576767
    71  H    0.395588
    72  C   -0.245259
    73  H    0.194828
    74  H    0.201976
    75  C    0.631962
    76  O   -0.545340
    77  N   -0.609408
    78  H    0.362765
    79  C   -0.029341
    80  H    0.198232
    81  C    0.580559
    82  C   -0.281133
    83  H    0.160840
    84  H    0.183202
    85  O   -0.455622
    86  C   -0.276010
    87  H    0.151840
    88  H    0.178252
    89  C   -0.287820
    90  H    0.145647
    91  H    0.199762
    92  C   -0.205161
    93  H    0.196109
    94  H    0.239027
    95  N   -0.768603
    96  H    0.401131
    97  H    0.399758
    98  H    0.438718
    99  O   -0.557339
   100  H    0.431853
 Sum of Mulliken charges =   1.00000

 Dipole moment (field-independent basis, Debye):
    X=              9.4033    Y=             -1.4141    Z=            -20.2672  Tot=             22.3871
 Quadrupole moment (field-independent basis, Debye-Ang):
   XX=           -121.2382   YY=           -280.7724   ZZ=            -65.2816
   XY=             12.5757   XZ=           -128.4948   YZ=             27.6742

 Normal termination of Gaussian 16 at Fri May 27 02:49:16 2022.
