 Gaussian 16, Revision C.01,
 Gaussian 16:  ES64L-G16RevC.01  3-Jul-2019

 -------------------------------------------------------------------
 # B3LYP/6-31G* guess=read geom=check nosymm integral(ultrafinegrid)
 -------------------------------------------------------------------

 ------------------------------------------------------
 Candidate Structure: Conf:883 Charge calc in gas phase
 ------------------------------------------------------
 Structure from the checkpoint file:  "conf-883.chk"
 Charge =  1 Multiplicity = 1

                          Input orientation:
 ---------------------------------------------------------------------
 Center     Atomic      Atomic             Coordinates (Angstroms)
 Number     Number       Type             X           Y           Z
 ---------------------------------------------------------------------
      1          7           0       -3.153242    4.610549    3.278184
      2          1           0       -2.896740    3.985450    4.040949
      3          1           0       -4.005701    5.090730    3.570711
      4          6           0       -3.510321    3.837201    2.078365
      5          1           0       -4.289205    3.073715    2.264868
      6          6           0       -2.248062    3.113424    1.594360
      7          6           0       -4.024962    4.788206    0.995071
      8          1           0       -3.289038    5.589441    0.858826
      9          1           0       -4.101981    4.264401    0.035796
     10          8           0       -1.607745    3.452734    0.594831
     11          6           0       -5.376062    5.400098    1.365861
     12          7           0       -6.029768    6.016278    0.342732
     13          1           0       -6.877433    6.523646    0.557927
     14          1           0       -5.607318    6.153962   -0.563315
     15          8           0       -5.847723    5.338924    2.497677
     16          7           0       -1.856202    2.059710    2.368071
     17          1           0       -2.455794    1.756204    3.122939
     18          6           0       -0.541021    1.425831    2.239456
     19          1           0        0.121515    2.220115    1.877390
     20          6           0       -0.550131    0.347205    1.125869
     21          6           0       -0.023564    0.951073    3.619132
     22          1           0        0.002855    1.866843    4.228052
     23          8           0       -0.360798   -0.859889    1.339681
     24          6           0        1.420395    0.402324    3.568642
     25          1           0        1.408534   -0.579089    3.081297
     26          1           0        1.733091    0.225869    4.605076
     27          6           0       -0.945176   -0.060756    4.324417
     28          1           0       -1.044988   -0.978172    3.739770
     29          1           0       -0.531308   -0.318258    5.305247
     30          1           0       -1.950723    0.335974    4.512045
     31          6           0        2.453892    1.316534    2.896494
     32          1           0        3.469357    0.918529    3.032811
     33          1           0        2.273669    1.437449    1.819864
     34          1           0        2.455796    2.321471    3.334357
     35          7           0       -0.751744    0.850557   -0.109585
     36          1           0       -0.940621    1.855897   -0.176618
     37          6           0       -0.864163    0.021757   -1.304286
     38          1           0       -1.802866   -0.547448   -1.262968
     39          6           0        0.311324   -0.967630   -1.343999
     40          6           0       -0.853089    0.913499   -2.550820
     41          1           0       -0.993644    0.311264   -3.453243
     42          1           0       -1.664784    1.646143   -2.500824
     43          1           0        0.100417    1.443668   -2.626933
     44          8           0        1.479461   -0.551590   -1.253394
     45          7           0       -0.023536   -2.257747   -1.503119
     46          1           0       -0.979367   -2.506203   -1.738802
     47          6           0        0.898862   -3.379863   -1.475728
     48          1           0        1.899908   -2.986784   -1.667310
     49          6           0        0.507422   -4.304212   -2.660570
     50          6           0        0.903325   -4.011899   -0.051819
     51          1           0       -0.132660   -4.269454    0.206249
     52          8           0       -0.606022   -4.229707   -3.170186
     53          6           0        1.777886   -5.249382    0.096903
     54          1           0        1.419503   -6.071131   -0.527927
     55          1           0        1.761558   -5.574537    1.140579
     56          1           0        2.821223   -5.042122   -0.172926
     57          8           0        1.382963   -3.031629    0.882600
     58          1           0        0.683057   -2.357403    1.031188
     59          7           0        1.517294   -5.094388   -3.087083
     60          1           0        2.396537   -5.111227   -2.575918
     61          6           0        1.662551   -5.696804   -4.405009
     62          1           0        0.894152   -6.455124   -4.591699
     63          6           0        3.060679   -6.340593   -4.380977
     64          6           0        1.565163   -4.571924   -5.503591
     65          1           0        2.084102   -3.689593   -5.108188
     66          1           0        0.508488   -4.324444   -5.624462
     67          8           0        3.788149   -6.231357   -3.390124
     68          8           0        2.080896   -4.931902   -6.768874
     69          1           0        3.032012   -4.691049   -6.755046
     70          7           0        3.487484   -6.933657   -5.528280
     71          1           0        2.904527   -6.737994   -6.339251
     72          6           0        4.931910   -6.935472   -5.758660
     73          1           0        5.421048   -7.648064   -5.090103
     74          1           0        5.112641   -7.249164   -6.790283
     75          6           0        5.458261   -5.498385   -5.540725
     76          8           0        4.829050   -4.526492   -5.975130
     77          7           0        6.584587   -5.369401   -4.806721
     78          1           0        7.004193   -6.192150   -4.386992
     79          6           0        6.944960   -4.111398   -4.153642
     80          1           0        6.948902   -3.303885   -4.889995
     81          6           0        8.343401   -4.294768   -3.583401
     82          6           0        5.902485   -3.818029   -3.038015
     83          1           0        4.942441   -3.751062   -3.557163
     84          1           0        5.845516   -4.710171   -2.404178
     85          8           0        8.836740   -5.370893   -3.327649
     86          6           0        6.073306   -2.576238   -2.149252
     87          1           0        6.920846   -2.702072   -1.464476
     88          1           0        6.283792   -1.682904   -2.750011
     89          6           0        4.764037   -2.380993   -1.358403
     90          1           0        4.449577   -3.352121   -0.951664
     91          1           0        3.978452   -2.054393   -2.051738
     92          6           0        4.845583   -1.383606   -0.206273
     93          1           0        5.524742   -1.724598    0.579916
     94          1           0        5.174432   -0.396730   -0.543830
     95          7           0        3.484159   -1.196177    0.414649
     96          1           0        3.510680   -0.548191    1.208157
     97          1           0        3.020653   -2.075964    0.733158
     98          1           0        2.779423   -0.829887   -0.281181
     99          8           0        8.951076   -3.115441   -3.352367
    100          1           0        9.827009   -3.315607   -2.967877
 ---------------------------------------------------------------------

 SCF Done:  E(RB3LYP) =  -2418.46420048     A.U. after    1 cycles

 Alpha  occ. eigenvalues --  -19.29497 -19.25693 -19.23835 -19.23761 -19.22800
 Alpha  occ. eigenvalues --  -19.22456 -19.22119 -19.21706 -19.21428 -19.21272
 Alpha  occ. eigenvalues --  -19.17881 -14.54945 -14.47496 -14.45842 -14.45700
 Alpha  occ. eigenvalues --  -14.45623 -14.45173 -14.44894 -14.42124 -14.37953
 Alpha  occ. eigenvalues --  -10.41832 -10.40714 -10.39257 -10.38834 -10.38734
 Alpha  occ. eigenvalues --  -10.38508 -10.37835 -10.37001 -10.35671 -10.35140
 Alpha  occ. eigenvalues --  -10.34140 -10.33977 -10.33768 -10.33113 -10.32704
 Alpha  occ. eigenvalues --  -10.32408 -10.31858 -10.31550 -10.30211 -10.29809
 Alpha  occ. eigenvalues --  -10.29107 -10.28871 -10.28111 -10.28072 -10.27818
 Alpha  occ. eigenvalues --  -10.27720 -10.26309 -10.26158  -1.20410  -1.15635
 Alpha  occ. eigenvalues --   -1.14534  -1.13932  -1.13297  -1.12821  -1.12791
 Alpha  occ. eigenvalues --   -1.12495  -1.11510  -1.10146  -1.09911  -1.09661
 Alpha  occ. eigenvalues --   -1.03869  -1.02740  -1.02344  -1.02207  -1.01805
 Alpha  occ. eigenvalues --   -1.01397  -0.96826  -0.95668  -0.92310  -0.90478
 Alpha  occ. eigenvalues --   -0.89506  -0.87977  -0.87117  -0.85226  -0.83596
 Alpha  occ. eigenvalues --   -0.82980  -0.82693  -0.81676  -0.80327  -0.79983
 Alpha  occ. eigenvalues --   -0.75981  -0.75230  -0.74193  -0.73820  -0.72834
 Alpha  occ. eigenvalues --   -0.72403  -0.71143  -0.70890  -0.70095  -0.69137
 Alpha  occ. eigenvalues --   -0.68228  -0.67820  -0.67765  -0.67570  -0.67291
 Alpha  occ. eigenvalues --   -0.66353  -0.66155  -0.64542  -0.64485  -0.63511
 Alpha  occ. eigenvalues --   -0.62229  -0.61856  -0.61457  -0.60919  -0.60591
 Alpha  occ. eigenvalues --   -0.60202  -0.59726  -0.59337  -0.59000  -0.58396
 Alpha  occ. eigenvalues --   -0.58152  -0.57505  -0.57311  -0.57129  -0.56744
 Alpha  occ. eigenvalues --   -0.56190  -0.56046  -0.55596  -0.55285  -0.55156
 Alpha  occ. eigenvalues --   -0.54489  -0.53715  -0.53533  -0.53259  -0.53027
 Alpha  occ. eigenvalues --   -0.52805  -0.52434  -0.52391  -0.52258  -0.51526
 Alpha  occ. eigenvalues --   -0.51379  -0.51197  -0.51103  -0.50601  -0.50535
 Alpha  occ. eigenvalues --   -0.50285  -0.49520  -0.49459  -0.49313  -0.49024
 Alpha  occ. eigenvalues --   -0.48825  -0.48613  -0.48316  -0.48111  -0.47991
 Alpha  occ. eigenvalues --   -0.47779  -0.47580  -0.47141  -0.46785  -0.46680
 Alpha  occ. eigenvalues --   -0.46620  -0.46438  -0.45871  -0.45601  -0.45429
 Alpha  occ. eigenvalues --   -0.45188  -0.44702  -0.44587  -0.43983  -0.43923
 Alpha  occ. eigenvalues --   -0.43652  -0.42824  -0.42580  -0.42239  -0.42060
 Alpha  occ. eigenvalues --   -0.41472  -0.41408  -0.39932  -0.38313  -0.38109
 Alpha  occ. eigenvalues --   -0.37813  -0.37626  -0.37010  -0.36317  -0.36159
 Alpha  occ. eigenvalues --   -0.35875  -0.35493  -0.35089  -0.34981  -0.34092
 Alpha  occ. eigenvalues --   -0.33906  -0.33314  -0.33284  -0.31930  -0.30321
 Alpha virt. eigenvalues --   -0.10039  -0.09371  -0.09027  -0.08888  -0.08084
 Alpha virt. eigenvalues --   -0.07241  -0.07004  -0.06782  -0.04336  -0.03617
 Alpha virt. eigenvalues --   -0.02303  -0.02003  -0.01746  -0.01295  -0.01128

 Mulliken charges:
               1
     1  N   -0.727927
     2  H    0.287177
     3  H    0.347503
     4  C   -0.073198
     5  H    0.140521
     6  C    0.656095
     7  C   -0.364546
     8  H    0.203756
     9  H    0.160672
    10  O   -0.546896
    11  C    0.610195
    12  N   -0.746990
    13  H    0.353500
    14  H    0.343966
    15  O   -0.513401
    16  N   -0.624292
    17  H    0.344416
    18  C   -0.072728
    19  H    0.191485
    20  C    0.642603
    21  C   -0.092494
    22  H    0.149323
    23  O   -0.577066
    24  C   -0.268705
    25  H    0.143279
    26  H    0.156289
    27  C   -0.477081
    28  H    0.184330
    29  H    0.164900
    30  H    0.137022
    31  C   -0.486532
    32  H    0.138817
    33  H    0.140941
    34  H    0.180443
    35  N   -0.621108
    36  H    0.396682
    37  C   -0.011908
    38  H    0.164602
    39  C    0.648108
    40  C   -0.485596
    41  H    0.178285
    42  H    0.181183
    43  H    0.186757
    44  O   -0.597685
    45  N   -0.583786
    46  H    0.364710
    47  C   -0.098588
    48  H    0.160771
    49  C    0.628418
    50  C    0.138167
    51  H    0.157550
    52  O   -0.520997
    53  C   -0.484339
    54  H    0.185213
    55  H    0.185959
    56  H    0.147869
    57  O   -0.694532
    58  H    0.468950
    59  N   -0.642949
    60  H    0.363634
    61  C   -0.059894
    62  H    0.202133
    63  C    0.599389
    64  C   -0.045365
    65  H    0.136660
    66  H    0.192918
    67  O   -0.544279
    68  O   -0.639106
    69  H    0.433248
    70  N   -0.573304
    71  H    0.362364
    72  C   -0.239053
    73  H    0.191617
    74  H    0.202840
    75  C    0.633598
    76  O   -0.551284
    77  N   -0.586312
    78  H    0.360865
    79  C   -0.044515
    80  H    0.204287
    81  C    0.587396
    82  C   -0.281337
    83  H    0.176851
    84  H    0.171319
    85  O   -0.454737
    86  C   -0.271046
    87  H    0.155253
    88  H    0.165933
    89  C   -0.304044
    90  H    0.165257
    91  H    0.180502
    92  C   -0.181288
    93  H    0.199446
    94  H    0.203398
    95  N   -0.809005
    96  H    0.402406
    97  H    0.420186
    98  H    0.452298
    99  O   -0.563493
   100  H    0.427154
 Sum of Mulliken charges =   1.00000

 Dipole moment (field-independent basis, Debye):
    X=             12.4001    Y=             -6.3168    Z=             -2.8458  Tot=             14.2043
 Quadrupole moment (field-independent basis, Debye-Ang):
   XX=           -166.4285   YY=           -223.9611   ZZ=           -248.8883
   XY=            -64.6027   XZ=            -18.9533   YZ=             21.7414

 Normal termination of Gaussian 16 at Fri May 27 02:49:01 2022.
