 Gaussian 16, Revision C.01,
 Gaussian 16:  ES64L-G16RevC.01  3-Jul-2019

 -------------------------------------------------------------------
 # B3LYP/6-31G* guess=read geom=check nosymm integral(ultrafinegrid)
 -------------------------------------------------------------------

 ------------------------------------------------------
 Candidate Structure: Conf:112 Charge calc in gas phase
 ------------------------------------------------------
 Structure from the checkpoint file:  "conf-112.chk"
 Charge =  1 Multiplicity = 1

                          Input orientation:
 ---------------------------------------------------------------------
 Center     Atomic      Atomic             Coordinates (Angstroms)
 Number     Number       Type             X           Y           Z
 ---------------------------------------------------------------------
      1          7           0       -6.839625   -0.338811    3.509481
      2          1           0       -7.557235   -1.056304    3.432827
      3          1           0       -7.213514    0.389494    4.116929
      4          6           0       -6.512528    0.202011    2.187518
      5          1           0       -6.323364   -0.653060    1.525561
      6          6           0       -5.181532    0.964837    2.244925
      7          6           0       -7.581043    1.053587    1.484245
      8          1           0       -8.548553    0.542763    1.574623
      9          1           0       -7.680422    2.036356    1.958753
     10          8           0       -4.946633    1.919958    1.492518
     11          6           0       -7.275508    1.176510   -0.011616
     12          7           0       -7.655369    2.348883   -0.597250
     13          1           0       -7.374831    2.485855   -1.559704
     14          1           0       -7.788793    3.179416   -0.038656
     15          8           0       -6.801030    0.242992   -0.649054
     16          7           0       -4.281370    0.470481    3.122609
     17          1           0       -4.594734   -0.306771    3.695144
     18          6           0       -2.906552    0.969200    3.220059
     19          1           0       -2.953674    2.049013    3.040093
     20          6           0       -2.102191    0.326419    2.063980
     21          6           0       -2.287020    0.691701    4.603091
     22          1           0       -2.168849   -0.397116    4.686684
     23          8           0       -1.317183   -0.611975    2.226315
     24          6           0       -3.198537    1.154178    5.764675
     25          1           0       -2.697558    0.873916    6.700325
     26          1           0       -4.136289    0.584121    5.749039
     27          6           0       -0.881199    1.310412    4.698125
     28          1           0       -0.899430    2.391322    4.512119
     29          1           0       -0.471309    1.157308    5.702620
     30          1           0       -0.192125    0.848760    3.986515
     31          6           0       -3.531187    2.651479    5.802748
     32          1           0       -4.151751    2.880878    6.675963
     33          1           0       -2.629919    3.269934    5.872370
     34          1           0       -4.088516    2.970319    4.913991
     35          7           0       -2.359736    0.858792    0.839386
     36          1           0       -3.132404    1.524616    0.791039
     37          6           0       -2.013789    0.151009   -0.398295
     38          1           0       -2.064234   -0.925983   -0.179380
     39          6           0       -0.561274    0.411492   -0.853486
     40          6           0       -3.013900    0.505647   -1.498800
     41          1           0       -2.776139   -0.041575   -2.412981
     42          1           0       -4.033213    0.259233   -1.186149
     43          1           0       -2.966684    1.573986   -1.734897
     44          8           0       -0.278339    0.592002   -2.047696
     45          7           0        0.377211    0.382701    0.120496
     46          1           0        0.125512    0.035034    1.049518
     47          6           0        1.777717    0.691303   -0.142727
     48          1           0        1.806604    1.473914   -0.909829
     49          6           0        2.484601   -0.552567   -0.711208
     50          6           0        2.473173    1.186190    1.142820
     51          1           0        3.541782    1.301135    0.904374
     52          8           0        3.287882   -1.236592   -0.063512
     53          6           0        1.924249    2.521841    1.627236
     54          1           0        2.090426    3.306278    0.880899
     55          1           0        2.431311    2.807321    2.553049
     56          1           0        0.851083    2.455750    1.829325
     57          8           0        2.300329    0.236527    2.185557
     58          1           0        2.763472   -0.568757    1.890848
     59          7           0        2.137130   -0.860432   -1.989162
     60          1           0        1.358531   -0.332506   -2.400747
     61          6           0        2.578322   -2.125977   -2.552764
     62          1           0        2.559555   -2.879253   -1.756265
     63          6           0        4.021266   -2.004247   -3.077308
     64          6           0        1.658050   -2.622076   -3.676814
     65          1           0        0.614356   -2.558984   -3.356097
     66          1           0        1.898630   -3.677525   -3.868097
     67          8           0        4.251080   -1.594304   -4.234827
     68          8           0        1.792681   -1.856082   -4.890760
     69          1           0        2.718930   -1.479781   -4.832293
     70          7           0        5.005042   -2.374103   -2.252586
     71          1           0        4.776584   -2.538700   -1.278362
     72          6           0        6.368471   -2.448687   -2.735979
     73          1           0        6.716380   -1.463122   -3.065031
     74          1           0        7.005962   -2.778788   -1.910654
     75          6           0        6.476134   -3.471782   -3.888329
     76          8           0        5.721117   -4.433960   -3.977004
     77          7           0        7.473455   -3.210571   -4.770290
     78          1           0        8.123715   -2.450746   -4.592907
     79          6           0        7.943092   -4.185668   -5.744433
     80          1           0        7.802822   -5.191226   -5.329928
     81          6           0        9.445410   -3.941928   -5.901902
     82          6           0        7.249665   -4.132590   -7.131656
     83          1           0        7.291476   -3.102879   -7.509236
     84          1           0        7.861885   -4.738908   -7.806204
     85          8           0       10.030248   -2.982340   -5.447607
     86          6           0        5.802979   -4.675863   -7.172569
     87          1           0        5.662830   -5.201213   -8.126317
     88          1           0        5.672190   -5.417009   -6.376871
     89          6           0        4.701207   -3.606864   -7.050491
     90          1           0        4.786158   -2.902658   -7.891769
     91          1           0        4.810058   -3.034573   -6.124957
     92          6           0        3.330691   -4.279673   -7.086925
     93          1           0        3.221377   -4.915097   -7.970692
     94          1           0        3.164536   -4.890697   -6.196168
     95          7           0        2.194554   -3.273639   -7.135100
     96          1           0        1.303250   -3.731803   -7.350065
     97          1           0        2.358225   -2.579453   -7.871887
     98          1           0        2.051813   -2.732988   -6.208719
     99          8           0       10.037583   -4.911813   -6.617590
    100          1           0       10.985146   -4.684712   -6.687770
 ---------------------------------------------------------------------

 SCF Done:  E(RB3LYP) =  -2418.47204598     A.U. after    1 cycles

 Alpha  occ. eigenvalues --  -19.29347 -19.27288 -19.23978 -19.23937 -19.21567
 Alpha  occ. eigenvalues --  -19.21129 -19.19945 -19.19235 -19.18177 -19.18098
 Alpha  occ. eigenvalues --  -19.16240 -14.57653 -14.47185 -14.45520 -14.44925
 Alpha  occ. eigenvalues --  -14.42612 -14.42127 -14.41601 -14.40539 -14.39152
 Alpha  occ. eigenvalues --  -10.41904 -10.40165 -10.38645 -10.37752 -10.37598
 Alpha  occ. eigenvalues --  -10.35797 -10.35696 -10.34770 -10.34741 -10.34461
 Alpha  occ. eigenvalues --  -10.34152 -10.33764 -10.33293 -10.30786 -10.30560
 Alpha  occ. eigenvalues --  -10.30463 -10.29882 -10.29190 -10.29080 -10.29034
 Alpha  occ. eigenvalues --  -10.28680 -10.25243 -10.24488 -10.23484 -10.23362
 Alpha  occ. eigenvalues --  -10.23180 -10.22146 -10.21799  -1.20442  -1.16389
 Alpha  occ. eigenvalues --   -1.13783  -1.13081  -1.12857  -1.11820  -1.11544
 Alpha  occ. eigenvalues --   -1.10764  -1.10086  -1.09316  -1.07956  -1.07682
 Alpha  occ. eigenvalues --   -1.03503  -1.02209  -1.01719  -0.99281  -0.99010
 Alpha  occ. eigenvalues --   -0.97931  -0.95525  -0.95230  -0.92134  -0.88574
 Alpha  occ. eigenvalues --   -0.87752  -0.86178  -0.84488  -0.83497  -0.82564
 Alpha  occ. eigenvalues --   -0.81861  -0.81641  -0.78814  -0.78279  -0.76131
 Alpha  occ. eigenvalues --   -0.75736  -0.75412  -0.72317  -0.71825  -0.71602
 Alpha  occ. eigenvalues --   -0.70810  -0.70651  -0.69426  -0.69123  -0.68382
 Alpha  occ. eigenvalues --   -0.68134  -0.67749  -0.65782  -0.65441  -0.64441
 Alpha  occ. eigenvalues --   -0.63677  -0.63386  -0.63093  -0.62883  -0.62402
 Alpha  occ. eigenvalues --   -0.61524  -0.60948  -0.59813  -0.59665  -0.59101
 Alpha  occ. eigenvalues --   -0.58795  -0.58567  -0.58500  -0.57968  -0.57930
 Alpha  occ. eigenvalues --   -0.57618  -0.56402  -0.56175  -0.55800  -0.55609
 Alpha  occ. eigenvalues --   -0.55035  -0.54902  -0.54482  -0.54160  -0.54010
 Alpha  occ. eigenvalues --   -0.53970  -0.53406  -0.52569  -0.52003  -0.51740
 Alpha  occ. eigenvalues --   -0.51720  -0.51296  -0.50673  -0.50485  -0.50276
 Alpha  occ. eigenvalues --   -0.49961  -0.49342  -0.49070  -0.48868  -0.48739
 Alpha  occ. eigenvalues --   -0.48524  -0.48410  -0.47662  -0.47591  -0.47376
 Alpha  occ. eigenvalues --   -0.46410  -0.46260  -0.46088  -0.45763  -0.45527
 Alpha  occ. eigenvalues --   -0.45160  -0.44901  -0.44673  -0.44355  -0.44237
 Alpha  occ. eigenvalues --   -0.44121  -0.44044  -0.43995  -0.43835  -0.43275
 Alpha  occ. eigenvalues --   -0.43037  -0.42524  -0.42382  -0.41766  -0.41396
 Alpha  occ. eigenvalues --   -0.41367  -0.41211  -0.40948  -0.40588  -0.39378
 Alpha  occ. eigenvalues --   -0.38181  -0.37814  -0.37776  -0.37257  -0.37167
 Alpha  occ. eigenvalues --   -0.37114  -0.36130  -0.35259  -0.34906  -0.34815
 Alpha  occ. eigenvalues --   -0.34312  -0.33814  -0.33443  -0.33144  -0.32001
 Alpha  occ. eigenvalues --   -0.31634  -0.31096  -0.30801  -0.30143  -0.29654
 Alpha virt. eigenvalues --   -0.09880  -0.09795  -0.08931  -0.07390  -0.07163
 Alpha virt. eigenvalues --   -0.05716  -0.04991  -0.04150  -0.03402  -0.03355
 Alpha virt. eigenvalues --   -0.02255  -0.01893  -0.01307   0.00022   0.00859

 Mulliken charges:
               1
     1  N   -0.743338
     2  H    0.320713
     3  H    0.313097
     4  C   -0.081745
     5  H    0.203993
     6  C    0.632036
     7  C   -0.363200
     8  H    0.172735
     9  H    0.147289
    10  O   -0.564818
    11  C    0.626951
    12  N   -0.740698
    13  H    0.341287
    14  H    0.340313
    15  O   -0.522715
    16  N   -0.607808
    17  H    0.365705
    18  C   -0.044420
    19  H    0.175510
    20  C    0.618058
    21  C   -0.097609
    22  H    0.149304
    23  O   -0.547872
    24  C   -0.260797
    25  H    0.144583
    26  H    0.129703
    27  C   -0.481348
    28  H    0.140565
    29  H    0.151994
    30  H    0.187275
    31  C   -0.457909
    32  H    0.151897
    33  H    0.154197
    34  H    0.147725
    35  N   -0.615276
    36  H    0.384710
    37  C   -0.057113
    38  H    0.181904
    39  C    0.625082
    40  C   -0.479355
    41  H    0.163696
    42  H    0.194733
    43  H    0.161986
    44  O   -0.562203
    45  N   -0.616563
    46  H    0.399118
    47  C   -0.072600
    48  H    0.179794
    49  C    0.630711
    50  C    0.121206
    51  H    0.132839
    52  O   -0.561635
    53  C   -0.454845
    54  H    0.146277
    55  H    0.173374
    56  H    0.163403
    57  O   -0.633000
    58  H    0.415295
    59  N   -0.617457
    60  H    0.394868
    61  C   -0.097204
    62  H    0.192757
    63  C    0.668398
    64  C   -0.062725
    65  H    0.190770
    66  H    0.149757
    67  O   -0.583766
    68  O   -0.675276
    69  H    0.450689
    70  N   -0.561578
    71  H    0.379921
    72  C   -0.240042
    73  H    0.195037
    74  H    0.205192
    75  C    0.632482
    76  O   -0.534468
    77  N   -0.609132
    78  H    0.359465
    79  C   -0.035366
    80  H    0.201212
    81  C    0.581541
    82  C   -0.279117
    83  H    0.156530
    84  H    0.183216
    85  O   -0.456645
    86  C   -0.273976
    87  H    0.147343
    88  H    0.182340
    89  C   -0.302877
    90  H    0.145276
    91  H    0.218063
    92  C   -0.193547
    93  H    0.198663
    94  H    0.218489
    95  N   -0.775067
    96  H    0.402925
    97  H    0.399818
    98  H    0.446198
    99  O   -0.556661
   100  H    0.431766
 Sum of Mulliken charges =   1.00000

 Dipole moment (field-independent basis, Debye):
    X=              9.4533    Y=            -11.5084    Z=            -22.0527  Tot=             26.6107
 Quadrupole moment (field-independent basis, Debye-Ang):
   XX=           -113.9481   YY=           -218.6477   ZZ=            -78.7100
   XY=            -78.5295   XZ=           -129.8727   YZ=            103.8372

 Normal termination of Gaussian 16 at Fri May 27 02:49:15 2022.
