 Gaussian 16, Revision C.01,
 Gaussian 16:  ES64L-G16RevC.01  3-Jul-2019

 -------------------------------------------------------------------
 # B3LYP/6-31G* guess=read geom=check nosymm integral(ultrafinegrid)
 -------------------------------------------------------------------

 ------------------------------------------------------
 Candidate Structure: Conf:110 Charge calc in gas phase
 ------------------------------------------------------
 Structure from the checkpoint file:  "conf-110.chk"
 Charge =  1 Multiplicity = 1

                          Input orientation:
 ---------------------------------------------------------------------
 Center     Atomic      Atomic             Coordinates (Angstroms)
 Number     Number       Type             X           Y           Z
 ---------------------------------------------------------------------
      1          7           0       -0.009587   -2.149201    4.155976
      2          1           0        0.613367   -2.756561    3.624229
      3          1           0        0.584067   -1.447859    4.594743
      4          6           0       -0.950543   -1.514305    3.244122
      5          1           0       -1.447882   -0.702385    3.785782
      6          6           0       -0.253487   -0.900602    2.013875
      7          6           0       -2.015850   -2.564652    2.845458
      8          1           0       -2.407602   -2.970150    3.782983
      9          1           0       -1.518585   -3.393676    2.327176
     10          8           0        0.816712   -1.335927    1.570669
     11          6           0       -3.183915   -2.082769    1.952553
     12          1           0       -3.887603   -2.907857    1.818226
     13          1           0       -2.816236   -1.788876    0.964443
     14          6           0       -3.914084   -0.892733    2.534872
     15          8           0       -3.518834    0.264850    2.477225
     16          8           0       -5.045618   -1.228244    3.162992
     17          7           0       -0.838732    0.186196    1.443832
     18          1           0       -1.770840    0.478095    1.753200
     19          6           0       -0.278100    0.731169    0.218621
     20          1           0       -0.610060    1.775533    0.147666
     21          6           0        1.236481    0.823206    0.390307
     22          6           0       -0.779251   -0.051595   -1.027616
     23          1           0       -0.462326   -1.094703   -0.919299
     24          1           0       -1.872549   -0.049361   -0.940437
     25          8           0        1.620615    1.381474    1.504610
     26          6           0       -0.369520    0.486140   -2.386123
     27          6           0        0.337401   -0.323439   -3.293758
     28          1           0        0.564982   -1.355147   -3.029462
     29          6           0       -0.698296    1.789277   -2.790438
     30          1           0       -1.274330    2.436644   -2.132519
     31          6           0        0.723101    0.150180   -4.545943
     32          1           0        1.257187   -0.482641   -5.247139
     33          6           0       -0.323234    2.275106   -4.040580
     34          1           0       -0.598390    3.285446   -4.335314
     35          8           0        0.801258    1.867392   -6.152792
     36          1           0        0.484567    2.767767   -6.329953
     37          6           0        0.396372    1.457892   -4.925495
     38          7           0        2.062151    0.528143   -0.589355
     39          1           0        1.616359    0.170612   -1.434080
     40          6           0        3.527554    0.745147   -0.710382
     41          1           0        3.790497    0.278900   -1.661368
     42          6           0        4.325243   -0.042239    0.334476
     43          6           0        3.916497    2.239538   -0.757866
     44          1           0        3.608654    2.740024    0.167354
     45          1           0        5.012758    2.283313   -0.783923
     46          8           0        5.088929   -0.933540    0.097037
     47          6           0        3.337334    2.965817   -1.979666
     48          1           0        2.240475    2.905356   -1.962140
     49          1           0        3.658642    2.445931   -2.893408
     50          6           0        3.759559    4.439388   -2.059041
     51          1           0        3.457881    4.962592   -1.139618
     52          1           0        4.855389    4.509082   -2.111830
     53          6           0        3.144616    5.159836   -3.275258
     54          1           0        3.441188    4.633888   -4.192619
     55          1           0        2.049588    5.083224   -3.218507
     56          7           0        3.483695    6.568025   -3.442913
     57          1           0        4.488634    6.683802   -3.561130
     58          1           0        3.224436    7.102391   -2.615352
     59          8           0        4.104620    0.437831    1.600813
     60          1           0        2.576120    1.208929    1.704129
     61          1           0        4.612645   -0.105875    2.235917
     62          1           0       -5.436530   -0.411690    3.532107
 ---------------------------------------------------------------------

 SCF Done:  E(RB3LYP) =  -1526.18685271     A.U. after    3 cycles

 Alpha  occ. eigenvalues --  -19.35408 -19.35240 -19.30380 -19.28727 -19.28110
 Alpha  occ. eigenvalues --  -19.25301 -19.24121 -14.54699 -14.47865 -14.40997
 Alpha  occ. eigenvalues --  -14.38934 -10.48827 -10.46894 -10.43271 -10.40092
 Alpha  occ. eigenvalues --  -10.39686 -10.38869 -10.36112 -10.32880 -10.32561
 Alpha  occ. eigenvalues --  -10.32468 -10.31300 -10.30885 -10.30787 -10.30562
 Alpha  occ. eigenvalues --  -10.30291 -10.29983 -10.29745 -10.29652 -10.29329
 Alpha  occ. eigenvalues --  -10.27895  -1.26474  -1.24958  -1.21554  -1.16744
 Alpha  occ. eigenvalues --   -1.16422  -1.15758  -1.12355  -1.11729  -1.04964
 Alpha  occ. eigenvalues --   -0.98834  -0.97106  -0.96074  -0.95088  -0.91279
 Alpha  occ. eigenvalues --   -0.89580  -0.88339  -0.86424  -0.86102  -0.81830
 Alpha  occ. eigenvalues --   -0.80955  -0.80741  -0.78575  -0.76389  -0.74418
 Alpha  occ. eigenvalues --   -0.73682  -0.73511  -0.72095  -0.70711  -0.70171
 Alpha  occ. eigenvalues --   -0.69748  -0.68767  -0.67668  -0.65505  -0.65023
 Alpha  occ. eigenvalues --   -0.63292  -0.61983  -0.61486  -0.60662  -0.60313
 Alpha  occ. eigenvalues --   -0.59953  -0.59268  -0.58710  -0.58560  -0.57784
 Alpha  occ. eigenvalues --   -0.57671  -0.57141  -0.56518  -0.56159  -0.55480
 Alpha  occ. eigenvalues --   -0.55273  -0.54906  -0.54609  -0.54418  -0.53404
 Alpha  occ. eigenvalues --   -0.52900  -0.52688  -0.51879  -0.51753  -0.51399
 Alpha  occ. eigenvalues --   -0.50622  -0.50206  -0.49854  -0.49070  -0.48940
 Alpha  occ. eigenvalues --   -0.48584  -0.47281  -0.47126  -0.46829  -0.46612
 Alpha  occ. eigenvalues --   -0.46281  -0.45881  -0.45364  -0.44838  -0.44508
 Alpha  occ. eigenvalues --   -0.44327  -0.43884  -0.42538  -0.42506  -0.41387
 Alpha  occ. eigenvalues --   -0.39146  -0.38088  -0.37536  -0.36767  -0.33654
 Alpha  occ. eigenvalues --   -0.32954  -0.30979
 Alpha virt. eigenvalues --   -0.16903  -0.14041  -0.12380  -0.10977  -0.10384
 Alpha virt. eigenvalues --   -0.09581  -0.07180  -0.04197  -0.02940  -0.02739
 Alpha virt. eigenvalues --   -0.02158  -0.01998  -0.00713  -0.00489  -0.00462

 Mulliken charges:
               1
     1  N   -0.685894
     2  H    0.317100
     3  H    0.308277
     4  C   -0.098322
     5  H    0.171951
     6  C    0.605232
     7  C   -0.269896
     8  H    0.198608
     9  H    0.169252
    10  O   -0.557018
    11  C   -0.364152
    12  H    0.200725
    13  H    0.168857
    14  C    0.597444
    15  O   -0.490657
    16  O   -0.530337
    17  N   -0.617065
    18  H    0.396290
    19  C   -0.028903
    20  H    0.207166
    21  C    0.651550
    22  C   -0.381678
    23  H    0.188232
    24  H    0.192702
    25  O   -0.560254
    26  C    0.113239
    27  C   -0.234625
    28  H    0.157588
    29  C   -0.187993
    30  H    0.145518
    31  C   -0.150459
    32  H    0.174059
    33  C   -0.187053
    34  H    0.154623
    35  O   -0.620353
    36  H    0.424437
    37  C    0.359599
    38  N   -0.586146
    39  H    0.396964
    40  C   -0.100404
    41  H    0.219984
    42  C    0.625308
    43  C   -0.278147
    44  H    0.160866
    45  H    0.186765
    46  O   -0.391187
    47  C   -0.277306
    48  H    0.140535
    49  H    0.154594
    50  C   -0.269308
    51  H    0.134007
    52  H    0.143809
    53  C   -0.139669
    54  H    0.148505
    55  H    0.133682
    56  N   -0.699182
    57  H    0.304394
    58  H    0.300204
    59  O   -0.609612
    60  H    0.481235
    61  H    0.453748
    62  H    0.428570
 Sum of Mulliken charges =   1.00000

 Dipole moment (field-independent basis, Debye):
    X=              3.7524    Y=              5.2945    Z=              0.0991  Tot=              6.4902
 Quadrupole moment (field-independent basis, Debye-Ang):
   XX=           -125.1428   YY=           -160.1702   ZZ=           -149.5562
   XY=             21.9226   XZ=             -5.2370   YZ=             -9.8597

 Normal termination of Gaussian 16 at Tue May 24 03:30:45 2022.
