 Gaussian 16, Revision C.01,
 Gaussian 16:  ES64L-G16RevC.01  3-Jul-2019

 -------------------------------------------------------------------
 # B3LYP/6-31G* guess=read geom=check nosymm integral(ultrafinegrid)
 -------------------------------------------------------------------

 ------------------------------------------------------
 Candidate Structure: Conf:772 Charge calc in gas phase
 ------------------------------------------------------
 Structure from the checkpoint file:  "conf-772.chk"
 Charge =  1 Multiplicity = 1

                          Input orientation:
 ---------------------------------------------------------------------
 Center     Atomic      Atomic             Coordinates (Angstroms)
 Number     Number       Type             X           Y           Z
 ---------------------------------------------------------------------
      1          7           0       -0.820939   -1.635685    4.108236
      2          1           0       -0.049521   -2.096261    3.627286
      3          1           0       -0.403150   -0.881452    4.649381
      4          6           0       -1.750382   -1.097689    3.122783
      5          1           0       -2.313235   -0.286569    3.601506
      6          6           0       -1.022326   -0.494069    1.912073
      7          6           0       -2.796882   -2.170099    2.713705
      8          1           0       -3.460794   -1.771982    1.937923
      9          1           0       -3.400612   -2.344963    3.608849
     10          8           0        0.083383   -0.886141    1.529629
     11          6           0       -2.228774   -3.517879    2.260486
     12          1           0       -3.008912   -4.286743    2.340264
     13          1           0       -1.425998   -3.859568    2.921874
     14          6           0       -1.752355   -3.551161    0.826094
     15          8           0       -1.963769   -2.696377   -0.013115
     16          8           0       -1.081978   -4.687205    0.553306
     17          7           0       -1.608273    0.564982    1.280654
     18          1           0       -2.536807    0.873654    1.535479
     19          6           0       -1.024234    1.069073    0.045192
     20          1           0       -1.335031    2.118337   -0.054749
     21          6           0        0.472781    1.144063    0.238880
     22          6           0       -1.484563    0.267378   -1.201105
     23          1           0       -1.252063   -0.787704   -1.036987
     24          1           0       -2.579714    0.332695   -1.197444
     25          8           0        0.946773    1.740880    1.325469
     26          6           0       -0.935654    0.747177   -2.530756
     27          6           0       -1.144834    2.059329   -2.991811
     28          1           0       -1.728306    2.759166   -2.396778
     29          6           0       -0.210051   -0.127073   -3.354071
     30          1           0       -0.069208   -1.161301   -3.045404
     31          6           0       -0.642401    2.487261   -4.213574
     32          1           0       -0.813942    3.497488   -4.570691
     33          6           0        0.302404    0.289051   -4.586083
     34          1           0        0.848897   -0.412617   -5.212536
     35          8           0        0.552001    2.083550   -6.201423
     36          1           0        0.984164    1.376224   -6.706305
     37          6           0        0.087850    1.601345   -5.021171
     38          7           0        1.404158    0.885250   -0.637660
     39          1           0        1.194706    0.506913   -1.561113
     40          6           0        2.741907    1.244114   -0.149638
     41          1           0        3.352823    0.339069   -0.006807
     42          6           0        2.388968    1.809124    1.214342
     43          6           0        3.474282    2.239683   -1.077848
     44          1           0        3.499719    1.783058   -2.075944
     45          1           0        2.882166    3.159243   -1.164693
     46          8           0        3.041145    2.254257    2.095482
     47          6           0        4.904853    2.554549   -0.617056
     48          1           0        5.459496    1.613189   -0.512606
     49          1           0        4.877064    3.014910    0.378040
     50          6           0        5.621452    3.492699   -1.596862
     51          1           0        5.666028    3.021634   -2.590529
     52          1           0        5.055065    4.424156   -1.720488
     53          6           0        7.040728    3.855002   -1.147121
     54          1           0        6.989005    4.354625   -0.171490
     55          1           0        7.621381    2.925722   -0.992216
     56          7           0        7.644059    4.793752   -2.094402
     57          1           0        7.879006    4.313140   -2.961854
     58          1           0        8.522098    5.150740   -1.722811
     59          8           0        4.956822   -0.917513    0.387760
     60          1           0        5.434868   -0.839671    1.227478
     61          1           0        5.383916   -1.658873   -0.067632
     62          1           0       -0.858062   -4.667379   -0.396245
 ---------------------------------------------------------------------

 SCF Done:  E(RB3LYP) =  -1526.16777457     A.U. after    1 cycles

 Alpha  occ. eigenvalues --  -19.36772 -19.30158 -19.28633 -19.27833 -19.26209
 Alpha  occ. eigenvalues --  -19.24966 -19.23388 -14.54830 -14.49625 -14.41226
 Alpha  occ. eigenvalues --  -14.37712 -10.48695 -10.47264 -10.41425 -10.41001
 Alpha  occ. eigenvalues --  -10.39541 -10.38584 -10.35747 -10.33357 -10.31808
 Alpha  occ. eigenvalues --  -10.31372 -10.30780 -10.30498 -10.30246 -10.29919
 Alpha  occ. eigenvalues --  -10.29301 -10.29058 -10.28878 -10.28109 -10.27943
 Alpha  occ. eigenvalues --  -10.26272  -1.29224  -1.20576  -1.19723  -1.16765
 Alpha  occ. eigenvalues --   -1.16121  -1.11843  -1.11544  -1.10661  -1.06130
 Alpha  occ. eigenvalues --   -0.99074  -0.96799  -0.95029  -0.94554  -0.91079
 Alpha  occ. eigenvalues --   -0.88399  -0.87695  -0.85873  -0.85329  -0.81741
 Alpha  occ. eigenvalues --   -0.81120  -0.79690  -0.77453  -0.76142  -0.74446
 Alpha  occ. eigenvalues --   -0.73163  -0.71916  -0.71229  -0.70150  -0.67917
 Alpha  occ. eigenvalues --   -0.67703  -0.66270  -0.65645  -0.65112  -0.64052
 Alpha  occ. eigenvalues --   -0.63795  -0.62133  -0.60964  -0.60191  -0.59423
 Alpha  occ. eigenvalues --   -0.59146  -0.59024  -0.58426  -0.57716  -0.57080
 Alpha  occ. eigenvalues --   -0.56703  -0.56015  -0.55347  -0.55032  -0.54782
 Alpha  occ. eigenvalues --   -0.54324  -0.54025  -0.53724  -0.53196  -0.52959
 Alpha  occ. eigenvalues --   -0.52280  -0.51945  -0.51476  -0.50962  -0.50350
 Alpha  occ. eigenvalues --   -0.50234  -0.49920  -0.49237  -0.49121  -0.47563
 Alpha  occ. eigenvalues --   -0.47377  -0.46975  -0.45760  -0.45530  -0.45202
 Alpha  occ. eigenvalues --   -0.45017  -0.44287  -0.43984  -0.43611  -0.43118
 Alpha  occ. eigenvalues --   -0.42393  -0.41959  -0.41383  -0.40970  -0.40907
 Alpha  occ. eigenvalues --   -0.39222  -0.38381  -0.37127  -0.36391  -0.33873
 Alpha  occ. eigenvalues --   -0.32623  -0.29973
 Alpha virt. eigenvalues --   -0.18102  -0.13521  -0.11860  -0.10699  -0.09821
 Alpha virt. eigenvalues --   -0.08240  -0.05043  -0.04730  -0.03181  -0.02349
 Alpha virt. eigenvalues --   -0.02118  -0.01804  -0.01492  -0.00901  -0.00640

 Mulliken charges:
               1
     1  N   -0.694798
     2  H    0.321079
     3  H    0.318635
     4  C   -0.102980
     5  H    0.157797
     6  C    0.661993
     7  C   -0.246933
     8  H    0.153445
     9  H    0.179611
    10  O   -0.544660
    11  C   -0.369493
    12  H    0.205497
    13  H    0.202791
    14  C    0.590343
    15  O   -0.485020
    16  O   -0.549192
    17  N   -0.603760
    18  H    0.355928
    19  C   -0.053876
    20  H    0.209724
    21  C    0.724420
    22  C   -0.379480
    23  H    0.229600
    24  H    0.185794
    25  O   -0.445385
    26  C    0.121090
    27  C   -0.190330
    28  H    0.141199
    29  C   -0.244128
    30  H    0.155474
    31  C   -0.150806
    32  H    0.172798
    33  C   -0.184036
    34  H    0.147740
    35  O   -0.620690
    36  H    0.421465
    37  C    0.357640
    38  N   -0.618244
    39  H    0.392146
    40  C   -0.090012
    41  H    0.299285
    42  C    0.615287
    43  C   -0.272223
    44  H    0.166548
    45  H    0.165211
    46  O   -0.367229
    47  C   -0.289886
    48  H    0.159156
    49  H    0.168973
    50  C   -0.251166
    51  H    0.129351
    52  H    0.158148
    53  C   -0.136906
    54  H    0.147730
    55  H    0.114734
    56  N   -0.714533
    57  H    0.297455
    58  H    0.308669
    59  O   -0.775085
    60  H    0.415919
    61  H    0.414162
    62  H    0.414014
 Sum of Mulliken charges =   1.00000

 Dipole moment (field-independent basis, Debye):
    X=              5.8738    Y=             -0.0364    Z=             -3.3865  Tot=              6.7802
 Quadrupole moment (field-independent basis, Debye-Ang):
   XX=           -103.3015   YY=           -165.4373   ZZ=           -145.0007
   XY=             -3.1441   XZ=            -20.0152   YZ=              1.2846

 Normal termination of Gaussian 16 at Tue May 24 03:29:56 2022.
