 Gaussian 16, Revision C.01,
 Gaussian 16:  ES64L-G16RevC.01  3-Jul-2019

 -------------------------------------------------------------------
 # B3LYP/6-31G* guess=read geom=check nosymm integral(ultrafinegrid)
 -------------------------------------------------------------------

 ------------------------------------------------------
 Candidate Structure: Conf:727 Charge calc in gas phase
 ------------------------------------------------------
 Structure from the checkpoint file:  "conf-727.chk"
 Charge =  1 Multiplicity = 1

                          Input orientation:
 ---------------------------------------------------------------------
 Center     Atomic      Atomic             Coordinates (Angstroms)
 Number     Number       Type             X           Y           Z
 ---------------------------------------------------------------------
      1          7           0       -0.116911   -3.183568    3.705362
      2          1           0        0.591206   -3.509798    3.048466
      3          1           0        0.368648   -2.620513    4.400656
      4          6           0       -1.105171   -2.390602    2.994462
      5          1           0       -1.746292   -1.900116    3.739929
      6          6           0       -0.475059   -1.310089    2.102756
      7          6           0       -1.991688   -3.295676    2.106603
      8          1           0       -1.347427   -3.790863    1.367825
      9          1           0       -2.704582   -2.680804    1.545664
     10          8           0        0.620771   -1.449524    1.554732
     11          6           0       -2.750427   -4.350575    2.928140
     12          1           0       -3.404494   -3.848784    3.653828
     13          1           0       -2.053658   -4.980633    3.480972
     14          6           0       -3.614017   -5.247345    2.064441
     15          8           0       -3.544276   -6.451559    2.004614
     16          8           0       -4.512149   -4.526926    1.338159
     17          7           0       -1.180182   -0.154643    1.904914
     18          1           0       -2.071246    0.001291    2.355837
     19          6           0       -0.698516    0.804550    0.919613
     20          1           0       -1.208246    1.755743    1.118221
     21          6           0        0.776697    1.072330    1.230394
     22          6           0       -1.033041    0.305837   -0.511582
     23          1           0       -0.593856   -0.690511   -0.616398
     24          1           0       -2.121157    0.163866   -0.509735
     25          8           0        1.044318    1.194037    2.497804
     26          6           0       -0.634934    1.161570   -1.701749
     27          6           0       -0.954470    2.529097   -1.799339
     28          1           0       -1.468590    3.031101   -0.982349
     29          6           0       -0.006227    0.556786   -2.801909
     30          1           0        0.231635   -0.503969   -2.767873
     31          6           0       -0.648897    3.264091   -2.939483
     32          1           0       -0.903368    4.316249   -3.014585
     33          6           0        0.294614    1.277783   -3.956973
     34          1           0        0.770681    0.780992   -4.799222
     35          8           0        0.252521    3.406462   -5.116949
     36          1           0        0.579278    2.848956   -5.842254
     37          6           0       -0.025434    2.637569   -4.029035
     38          7           0        1.652759    1.308826    0.277575
     39          1           0        1.253860    1.271499   -0.663872
     40          6           0        3.141691    1.243842    0.281722
     41          1           0        3.406542    0.218964    0.576908
     42          6           0        3.904642    2.159020    1.244868
     43          6           0        3.635849    1.508642   -1.158495
     44          1           0        4.700951    1.262582   -1.182421
     45          1           0        3.131504    0.795020   -1.822659
     46          8           0        5.091198    2.317668    1.191524
     47          6           0        3.410938    2.952871   -1.633791
     48          1           0        4.063927    3.622727   -1.058903
     49          1           0        2.378426    3.266740   -1.420191
     50          6           0        3.675063    3.139791   -3.132287
     51          1           0        4.670109    2.766749   -3.403702
     52          1           0        2.953780    2.537625   -3.700750
     53          6           0        3.553893    4.606345   -3.570290
     54          1           0        2.677772    5.062720   -3.072293
     55          1           0        4.432314    5.159113   -3.216277
     56          7           0        3.510788    4.697192   -5.031387
     57          1           0        3.728115    5.645568   -5.330389
     58          1           0        2.559090    4.513693   -5.346300
     59          8           0        3.125470    2.744652    2.208952
     60          1           0        1.901262    1.668307    2.647536
     61          1           0        3.713236    3.269820    2.790618
     62          1           0       -5.032012   -5.177474    0.828464
 ---------------------------------------------------------------------

 SCF Done:  E(RB3LYP) =  -1526.17092716     A.U. after    3 cycles

 Alpha  occ. eigenvalues --  -19.36545 -19.36154 -19.29365 -19.29332 -19.26370
 Alpha  occ. eigenvalues --  -19.25209 -19.20573 -14.55219 -14.50104 -14.41443
 Alpha  occ. eigenvalues --  -14.38502 -10.49563 -10.47883 -10.41265 -10.40505
 Alpha  occ. eigenvalues --  -10.40092 -10.38838 -10.36936 -10.33578 -10.32973
 Alpha  occ. eigenvalues --  -10.32298 -10.31963 -10.31579 -10.31544 -10.30809
 Alpha  occ. eigenvalues --  -10.30481 -10.29610 -10.29176 -10.28854 -10.27585
 Alpha  occ. eigenvalues --  -10.27153  -1.27552  -1.26016  -1.17644  -1.17393
 Alpha  occ. eigenvalues --   -1.17076  -1.17034  -1.12292  -1.08124  -1.06477
 Alpha  occ. eigenvalues --   -0.99352  -0.97788  -0.95878  -0.95313  -0.91840
 Alpha  occ. eigenvalues --   -0.88372  -0.87994  -0.86994  -0.86665  -0.82251
 Alpha  occ. eigenvalues --   -0.81668  -0.81011  -0.77677  -0.77031  -0.74882
 Alpha  occ. eigenvalues --   -0.73994  -0.73488  -0.71912  -0.71501  -0.70860
 Alpha  occ. eigenvalues --   -0.68235  -0.67848  -0.67281  -0.66382  -0.65635
 Alpha  occ. eigenvalues --   -0.64461  -0.64027  -0.61812  -0.60899  -0.60565
 Alpha  occ. eigenvalues --   -0.59296  -0.59016  -0.58434  -0.58154  -0.57734
 Alpha  occ. eigenvalues --   -0.57205  -0.56688  -0.56361  -0.55707  -0.55375
 Alpha  occ. eigenvalues --   -0.55080  -0.54904  -0.54497  -0.54060  -0.53391
 Alpha  occ. eigenvalues --   -0.52721  -0.52367  -0.52151  -0.51897  -0.51346
 Alpha  occ. eigenvalues --   -0.51232  -0.50391  -0.49537  -0.49211  -0.48936
 Alpha  occ. eigenvalues --   -0.48053  -0.47979  -0.46803  -0.46532  -0.45690
 Alpha  occ. eigenvalues --   -0.45524  -0.45260  -0.44764  -0.44485  -0.44326
 Alpha  occ. eigenvalues --   -0.43817  -0.43461  -0.42398  -0.41866  -0.39639
 Alpha  occ. eigenvalues --   -0.39024  -0.38505  -0.37326  -0.34343  -0.33978
 Alpha  occ. eigenvalues --   -0.33596  -0.30889
 Alpha virt. eigenvalues --   -0.17976  -0.14554  -0.12714  -0.11865  -0.10752
 Alpha virt. eigenvalues --   -0.07521  -0.05839  -0.05417  -0.04282  -0.03922
 Alpha virt. eigenvalues --   -0.03319  -0.01745  -0.01564  -0.00941  -0.00140

 Mulliken charges:
               1
     1  N   -0.683447
     2  H    0.321220
     3  H    0.313139
     4  C   -0.089204
     5  H    0.151107
     6  C    0.627521
     7  C   -0.275990
     8  H    0.165812
     9  H    0.157327
    10  O   -0.540419
    11  C   -0.328090
    12  H    0.170180
    13  H    0.211418
    14  C    0.560568
    15  O   -0.438729
    16  O   -0.570861
    17  N   -0.595862
    18  H    0.355784
    19  C   -0.049919
    20  H    0.206803
    21  C    0.667108
    22  C   -0.351196
    23  H    0.194570
    24  H    0.193357
    25  O   -0.551258
    26  C    0.063948
    27  C   -0.182694
    28  H    0.142683
    29  C   -0.196994
    30  H    0.159340
    31  C   -0.153038
    32  H    0.174299
    33  C   -0.183805
    34  H    0.158900
    35  O   -0.630667
    36  H    0.428240
    37  C    0.367419
    38  N   -0.620211
    39  H    0.402634
    40  C   -0.071687
    41  H    0.245118
    42  C    0.629826
    43  C   -0.319269
    44  H    0.208746
    45  H    0.169204
    46  O   -0.394519
    47  C   -0.294953
    48  H    0.164720
    49  H    0.137039
    50  C   -0.245363
    51  H    0.162213
    52  H    0.129805
    53  C   -0.143038
    54  H    0.114306
    55  H    0.151769
    56  N   -0.725813
    57  H    0.309904
    58  H    0.297283
    59  O   -0.620211
    60  H    0.472554
    61  H    0.454480
    62  H    0.416888
 Sum of Mulliken charges =   1.00000

 Dipole moment (field-independent basis, Debye):
    X=              2.6476    Y=              8.9963    Z=              1.0162  Tot=              9.4327
 Quadrupole moment (field-independent basis, Debye-Ang):
   XX=           -155.1083   YY=           -169.5238   ZZ=           -134.1780
   XY=             13.1934   XZ=              4.6197   YZ=              5.0821

 Normal termination of Gaussian 16 at Tue May 24 03:30:52 2022.
