 Gaussian 16, Revision C.01,
 Gaussian 16:  ES64L-G16RevC.01  3-Jul-2019

 -------------------------------------------------------------------
 # B3LYP/6-31G* guess=read geom=check nosymm integral(ultrafinegrid)
 -------------------------------------------------------------------

 ------------------------------------------------------
 Candidate Structure: Conf:112 Charge calc in gas phase
 ------------------------------------------------------
 Structure from the checkpoint file:  "conf-112.chk"
 Charge =  1 Multiplicity = 1

                          Input orientation:
 ---------------------------------------------------------------------
 Center     Atomic      Atomic             Coordinates (Angstroms)
 Number     Number       Type             X           Y           Z
 ---------------------------------------------------------------------
      1          7           0        0.851108   -3.240798    2.762070
      2          1           0        1.517730   -3.307245    1.993542
      3          1           0        1.348064   -2.797816    3.532693
      4          6           0       -0.279140   -2.422648    2.348217
      5          1           0       -0.878642   -2.204760    3.239576
      6          6           0        0.164342   -1.084991    1.728077
      7          6           0       -1.139990   -3.242107    1.357132
      8          1           0       -1.325857   -4.206863    1.838092
      9          1           0       -0.545750   -3.442436    0.457060
     10          8           0        1.223621   -0.961602    1.103928
     11          6           0       -2.483780   -2.616417    0.919373
     12          1           0       -2.980604   -3.310146    0.236248
     13          1           0       -2.328130   -1.672184    0.388539
     14          6           0       -3.426052   -2.399763    2.083766
     15          8           0       -4.199200   -3.201826    2.537743
     16          8           0       -3.288365   -1.142549    2.637016
     17          7           0       -0.637757    0.001640    1.918002
     18          1           0       -1.559041   -0.111483    2.335150
     19          6           0       -0.314931    1.242081    1.225384
     20          1           0       -0.825980    2.051831    1.761297
     21          6           0        1.173340    1.508796    1.437742
     22          6           0       -0.793108    1.212421   -0.250429
     23          1           0       -0.297195    0.372222   -0.747563
     24          1           0       -1.859238    0.958391   -0.200038
     25          8           0        1.578297    1.382276    2.672190
     26          6           0       -0.601043    2.485539   -1.053935
     27          6           0        0.107118    2.460965   -2.269277
     28          1           0        0.503149    1.517245   -2.640429
     29          6           0       -1.143292    3.711346   -0.637812
     30          1           0       -1.724491    3.769604    0.280169
     31          6           0        0.285195    3.611814   -3.032827
     32          1           0        0.821409    3.584872   -3.975700
     33          6           0       -0.975323    4.869631   -1.391401
     34          1           0       -1.410754    5.806538   -1.051098
     35          8           0       -0.049552    5.914740   -3.376649
     36          1           0       -0.497053    6.689989   -3.001326
     37          6           0       -0.255833    4.827059   -2.594831
     38          7           0        1.953333    1.975596    0.488341
     39          1           0        1.508331    2.170916   -0.410886
     40          6           0        3.437944    2.020832    0.509828
     41          1           0        3.776028    1.127894    1.049102
     42          6           0        3.897413    3.263366    1.289179
     43          6           0        3.970241    2.002632   -0.925962
     44          1           0        3.469695    1.181430   -1.453761
     45          1           0        3.688096    2.940199   -1.420106
     46          8           0        4.333170    4.282755    0.835630
     47          6           0        5.491209    1.801620   -1.004603
     48          1           0        5.761906    0.874174   -0.479580
     49          1           0        5.999820    2.623518   -0.486278
     50          6           0        5.982291    1.727023   -2.456145
     51          1           0        5.476907    0.912257   -2.989519
     52          1           0        5.713747    2.657281   -2.978104
     53          6           0        7.494308    1.505844   -2.567550
     54          1           0        8.020590    2.305985   -2.013799
     55          1           0        7.755413    0.561624   -2.072631
     56          7           0        7.880310    1.389743   -3.974776
     57          1           0        8.852592    1.096658   -4.047611
     58          1           0        7.826323    2.301313   -4.427477
     59          8           0        3.717647    3.052201    2.633176
     60          1           0        2.449880    1.818221    2.840733
     61          1           0        3.979274    3.858144    3.122309
     62          1           0       -3.912396   -1.109046    3.388772
 ---------------------------------------------------------------------

 SCF Done:  E(RB3LYP) =  -1526.18119754     A.U. after    2 cycles

 Alpha  occ. eigenvalues --  -19.36124 -19.35677 -19.30424 -19.29318 -19.28138
 Alpha  occ. eigenvalues --  -19.24690 -19.23903 -14.54897 -14.48922 -14.41104
 Alpha  occ. eigenvalues --  -14.37809 -10.49259 -10.47204 -10.42038 -10.40675
 Alpha  occ. eigenvalues --  -10.39713 -10.39412 -10.36130 -10.33186 -10.32624
 Alpha  occ. eigenvalues --  -10.31659 -10.31331 -10.30952 -10.30806 -10.30262
 Alpha  occ. eigenvalues --  -10.30238 -10.29640 -10.29580 -10.28881 -10.28099
 Alpha  occ. eigenvalues --  -10.26549  -1.27072  -1.25422  -1.20409  -1.17200
 Alpha  occ. eigenvalues --   -1.16459  -1.16424  -1.12027  -1.11617  -1.05679
 Alpha  occ. eigenvalues --   -0.99007  -0.97190  -0.95309  -0.94666  -0.91427
 Alpha  occ. eigenvalues --   -0.89400  -0.87818  -0.86381  -0.86092  -0.81859
 Alpha  occ. eigenvalues --   -0.81267  -0.80906  -0.77596  -0.76382  -0.74949
 Alpha  occ. eigenvalues --   -0.73796  -0.73377  -0.71556  -0.70652  -0.70288
 Alpha  occ. eigenvalues --   -0.69232  -0.67587  -0.66849  -0.65789  -0.65401
 Alpha  occ. eigenvalues --   -0.64696  -0.63507  -0.62025  -0.60615  -0.59649
 Alpha  occ. eigenvalues --   -0.59297  -0.58692  -0.58515  -0.58107  -0.57566
 Alpha  occ. eigenvalues --   -0.57273  -0.56884  -0.56450  -0.56227  -0.55674
 Alpha  occ. eigenvalues --   -0.55321  -0.54369  -0.54027  -0.53766  -0.53475
 Alpha  occ. eigenvalues --   -0.53263  -0.52631  -0.52037  -0.51610  -0.51284
 Alpha  occ. eigenvalues --   -0.50612  -0.50215  -0.49893  -0.49748  -0.48789
 Alpha  occ. eigenvalues --   -0.48141  -0.47633  -0.47310  -0.46911  -0.46651
 Alpha  occ. eigenvalues --   -0.45886  -0.45235  -0.44776  -0.44297  -0.43964
 Alpha  occ. eigenvalues --   -0.43661  -0.42371  -0.42052  -0.41992  -0.41412
 Alpha  occ. eigenvalues --   -0.39126  -0.38183  -0.37200  -0.36776  -0.33726
 Alpha  occ. eigenvalues --   -0.33015  -0.30096
 Alpha virt. eigenvalues --   -0.17482  -0.14782  -0.12263  -0.11087  -0.09987
 Alpha virt. eigenvalues --   -0.09345  -0.07097  -0.04043  -0.03097  -0.02640
 Alpha virt. eigenvalues --   -0.02464  -0.01716  -0.01015  -0.00983  -0.00320

 Mulliken charges:
               1
     1  N   -0.683029
     2  H    0.318404
     3  H    0.311216
     4  C   -0.094260
     5  H    0.163080
     6  C    0.615575
     7  C   -0.272586
     8  H    0.206183
     9  H    0.166763
    10  O   -0.548809
    11  C   -0.358984
    12  H    0.206398
    13  H    0.158035
    14  C    0.579189
    15  O   -0.415795
    16  O   -0.601105
    17  N   -0.615308
    18  H    0.385264
    19  C   -0.031229
    20  H    0.203035
    21  C    0.661404
    22  C   -0.373005
    23  H    0.188914
    24  H    0.192341
    25  O   -0.555905
    26  C    0.102092
    27  C   -0.229339
    28  H    0.155363
    29  C   -0.185776
    30  H    0.141257
    31  C   -0.147954
    32  H    0.173709
    33  C   -0.184351
    34  H    0.151568
    35  O   -0.619151
    36  H    0.423465
    37  C    0.361146
    38  N   -0.605542
    39  H    0.402353
    40  C   -0.078794
    41  H    0.219192
    42  C    0.632675
    43  C   -0.307311
    44  H    0.170202
    45  H    0.183465
    46  O   -0.394143
    47  C   -0.285370
    48  H    0.146687
    49  H    0.164507
    50  C   -0.251170
    51  H    0.156298
    52  H    0.138485
    53  C   -0.137649
    54  H    0.120917
    55  H    0.144431
    56  N   -0.715812
    57  H    0.309279
    58  H    0.299599
    59  O   -0.613287
    60  H    0.476963
    61  H    0.450628
    62  H    0.425582
 Sum of Mulliken charges =   1.00000

 Dipole moment (field-independent basis, Debye):
    X=              6.2893    Y=             11.7072    Z=              4.7644  Tot=             14.1179
 Quadrupole moment (field-independent basis, Debye-Ang):
   XX=           -122.8277   YY=           -137.1969   ZZ=           -154.9749
   XY=             11.2402   XZ=              3.3920   YZ=              7.7317

 Normal termination of Gaussian 16 at Tue May 24 03:30:33 2022.
