 Gaussian 16, Revision C.01,
 Gaussian 16:  ES64L-G16RevC.01  3-Jul-2019

 -------------------------------------------------------------------
 # B3LYP/6-31G* guess=read geom=check nosymm integral(ultrafinegrid)
 -------------------------------------------------------------------

 ------------------------------------------------------
 Candidate Structure: Conf:472 Charge calc in gas phase
 ------------------------------------------------------
 Structure from the checkpoint file:  "conf-472.chk"
 Charge =  1 Multiplicity = 1

                          Input orientation:
 ---------------------------------------------------------------------
 Center     Atomic      Atomic             Coordinates (Angstroms)
 Number     Number       Type             X           Y           Z
 ---------------------------------------------------------------------
      1          7           0        0.222715   -1.321097    4.176509
      2          1           0        0.835433   -2.127160    4.059100
      3          1           0        0.830894   -0.515545    4.308300
      4          6           0       -0.605609   -1.162544    2.995605
      5          1           0       -1.129952   -0.199851    3.073007
      6          6           0        0.199057   -1.164577    1.681957
      7          6           0       -1.656672   -2.290408    2.908206
      8          1           0       -1.135045   -3.250139    2.799398
      9          1           0       -2.259390   -2.171267    2.002942
     10          8           0        1.327212   -1.649499    1.589025
     11          6           0       -2.588153   -2.354921    4.117480
     12          1           0       -3.099292   -1.396285    4.280594
     13          1           0       -2.035311   -2.555667    5.039880
     14          6           0       -3.649725   -3.419158    3.920660
     15          8           0       -3.816657   -4.063103    2.905217
     16          8           0       -4.412277   -3.567723    5.022340
     17          7           0       -0.373847   -0.571879    0.575497
     18          1           0       -1.370833   -0.385926    0.590729
     19          6           0        0.180876   -0.887439   -0.746224
     20          1           0       -0.195511   -0.118616   -1.433375
     21          6           0        1.687580   -0.678944   -0.663476
     22          6           0       -0.225318   -2.274858   -1.298883
     23          1           0        0.276309   -2.413155   -2.263484
     24          1           0        0.157088   -3.048231   -0.626143
     25          8           0        2.444937   -1.583104   -1.206656
     26          6           0       -1.728680   -2.388253   -1.454023
     27          6           0       -2.493425   -3.154145   -0.560581
     28          1           0       -2.004751   -3.712703    0.232827
     29          6           0       -2.399907   -1.718656   -2.486376
     30          1           0       -1.838322   -1.138571   -3.217008
     31          6           0       -3.877663   -3.237274   -0.671337
     32          1           0       -4.455678   -3.825888    0.033125
     33          6           0       -3.785229   -1.796815   -2.617030
     34          1           0       -4.284878   -1.277991   -3.432473
     35          8           0       -5.884568   -2.669746   -1.769394
     36          1           0       -6.220726   -2.191471   -2.543863
     37          6           0       -4.531742   -2.555306   -1.705106
     38          7           0        2.156949    0.469495   -0.215451
     39          1           0        1.475076    1.062725    0.250163
     40          6           0        3.566797    0.921611   -0.180807
     41          1           0        3.995189    0.718142   -1.167996
     42          6           0        4.334905    0.087045    0.859126
     43          6           0        3.636665    2.419271    0.135913
     44          1           0        3.247629    2.578870    1.149149
     45          1           0        4.700123    2.679302    0.182411
     46          8           0        4.642985    0.423973    1.965855
     47          6           0        2.923964    3.330040   -0.878141
     48          1           0        3.040242    4.360687   -0.521136
     49          1           0        1.840124    3.139470   -0.869688
     50          6           0        3.448527    3.220683   -2.315389
     51          1           0        4.539346    3.364656   -2.318101
     52          1           0        3.265884    2.220723   -2.731078
     53          6           0        2.803615    4.233047   -3.268921
     54          1           0        1.712910    4.110326   -3.237738
     55          1           0        3.013042    5.255586   -2.905312
     56          7           0        3.238308    3.974304   -4.642584
     57          1           0        4.214976    4.243856   -4.755352
     58          1           0        2.712197    4.558037   -5.290209
     59          8           0        4.618606   -1.144638    0.329010
     60          1           0        3.383150   -1.535334   -0.889297
     61          1           0        5.036689   -1.702704    1.015787
     62          1           0       -5.074061   -4.256412    4.819508
 ---------------------------------------------------------------------

 SCF Done:  E(RB3LYP) =  -1526.17957644     A.U. after    2 cycles

 Alpha  occ. eigenvalues --  -19.36935 -19.35692 -19.29382 -19.26950 -19.26411
 Alpha  occ. eigenvalues --  -19.25979 -19.21652 -14.55835 -14.50506 -14.41911
 Alpha  occ. eigenvalues --  -14.39454 -10.49899 -10.47328 -10.42105 -10.40219
 Alpha  occ. eigenvalues --  -10.39851 -10.39327 -10.34074 -10.33699 -10.32554
 Alpha  occ. eigenvalues --  -10.31180 -10.30511 -10.29855 -10.29115 -10.28857
 Alpha  occ. eigenvalues --  -10.28665 -10.28546 -10.28403 -10.28030 -10.27928
 Alpha  occ. eigenvalues --  -10.26911  -1.27779  -1.25507  -1.18114  -1.17986
 Alpha  occ. eigenvalues --   -1.17292  -1.14203  -1.12917  -1.09022  -1.06635
 Alpha  occ. eigenvalues --   -0.99813  -0.96629  -0.95802  -0.94748  -0.91536
 Alpha  occ. eigenvalues --   -0.88603  -0.88320  -0.85153  -0.83697  -0.82383
 Alpha  occ. eigenvalues --   -0.82205  -0.80073  -0.77783  -0.76474  -0.75164
 Alpha  occ. eigenvalues --   -0.74060  -0.72708  -0.71692  -0.70997  -0.69031
 Alpha  occ. eigenvalues --   -0.67967  -0.67014  -0.66814  -0.66036  -0.64821
 Alpha  occ. eigenvalues --   -0.63698  -0.63116  -0.62097  -0.60898  -0.60104
 Alpha  occ. eigenvalues --   -0.59352  -0.58823  -0.58305  -0.57451  -0.57175
 Alpha  occ. eigenvalues --   -0.56968  -0.56203  -0.56170  -0.55934  -0.55614
 Alpha  occ. eigenvalues --   -0.55164  -0.54906  -0.54432  -0.53481  -0.52881
 Alpha  occ. eigenvalues --   -0.52327  -0.52204  -0.52098  -0.51722  -0.50969
 Alpha  occ. eigenvalues --   -0.49825  -0.49499  -0.48943  -0.48781  -0.48106
 Alpha  occ. eigenvalues --   -0.47414  -0.47120  -0.46873  -0.46476  -0.46234
 Alpha  occ. eigenvalues --   -0.45099  -0.44779  -0.44608  -0.44059  -0.44039
 Alpha  occ. eigenvalues --   -0.43297  -0.42421  -0.42249  -0.41950  -0.40670
 Alpha  occ. eigenvalues --   -0.39352  -0.39276  -0.35410  -0.34452  -0.34140
 Alpha  occ. eigenvalues --   -0.31827  -0.30728
 Alpha virt. eigenvalues --   -0.18238  -0.14740  -0.11989  -0.09425  -0.08382
 Alpha virt. eigenvalues --   -0.07631  -0.06577  -0.06414  -0.03541  -0.03279
 Alpha virt. eigenvalues --   -0.01932  -0.01403  -0.00698  -0.00680  -0.00152

 Mulliken charges:
               1
     1  N   -0.682845
     2  H    0.319444
     3  H    0.313263
     4  C   -0.090599
     5  H    0.157022
     6  C    0.596593
     7  C   -0.278939
     8  H    0.166569
     9  H    0.165225
    10  O   -0.523141
    11  C   -0.350078
    12  H    0.181705
    13  H    0.214571
    14  C    0.587297
    15  O   -0.468195
    16  O   -0.557567
    17  N   -0.615827
    18  H    0.363202
    19  C   -0.061552
    20  H    0.206953
    21  C    0.658208
    22  C   -0.353587
    23  H    0.183342
    24  H    0.187584
    25  O   -0.557903
    26  C    0.141416
    27  C   -0.212857
    28  H    0.154747
    29  C   -0.198186
    30  H    0.129800
    31  C   -0.162258
    32  H    0.184385
    33  C   -0.188164
    34  H    0.140320
    35  O   -0.624934
    36  H    0.417652
    37  C    0.357141
    38  N   -0.543735
    39  H    0.384148
    40  C   -0.091081
    41  H    0.217529
    42  C    0.640525
    43  C   -0.311011
    44  H    0.179464
    45  H    0.193329
    46  O   -0.393934
    47  C   -0.278693
    48  H    0.175851
    49  H    0.125257
    50  C   -0.259966
    51  H    0.144639
    52  H    0.139512
    53  C   -0.135341
    54  H    0.138779
    55  H    0.132169
    56  N   -0.719771
    57  H    0.303778
    58  H    0.312262
    59  O   -0.611856
    60  H    0.483326
    61  H    0.454314
    62  H    0.420700
 Sum of Mulliken charges =   1.00000

 Dipole moment (field-independent basis, Debye):
    X=              5.5884    Y=              2.0042    Z=             -1.8323  Tot=              6.2132
 Quadrupole moment (field-independent basis, Debye-Ang):
   XX=           -114.5471   YY=           -152.5941   ZZ=           -157.9585
   XY=             11.3835   XZ=             -4.7238   YZ=            -19.8041

 Normal termination of Gaussian 16 at Tue May 24 03:30:33 2022.
