 Gaussian 16, Revision C.01,
 Gaussian 16:  ES64L-G16RevC.01  3-Jul-2019

 -------------------------------------------------------------------
 # B3LYP/6-31G* guess=read geom=check nosymm integral(ultrafinegrid)
 -------------------------------------------------------------------

 -----------------------------------------------------
 Candidate Structure: Conf:95 Charge calc in gas phase
 -----------------------------------------------------
 Structure from the checkpoint file:  "conf-95.chk"
 Charge =  1 Multiplicity = 1

                          Input orientation:
 ---------------------------------------------------------------------
 Center     Atomic      Atomic             Coordinates (Angstroms)
 Number     Number       Type             X           Y           Z
 ---------------------------------------------------------------------
      1          7           0        0.723903   -2.268828    3.762044
      2          1           0        1.561492   -2.522100    3.238908
      3          1           0        0.950976   -1.427659    4.288352
      4          6           0       -0.365972   -2.021722    2.832843
      5          1           0       -1.186341   -1.548768    3.389671
      6          6           0        0.036929   -1.098763    1.673707
      7          6           0       -0.877906   -3.356552    2.239826
      8          1           0       -0.049346   -3.850176    1.719507
      9          1           0       -1.650351   -3.150418    1.487020
     10          8           0        1.177643   -1.068986    1.206800
     11          6           0       -1.438823   -4.286330    3.326796
     12          1           0       -2.301624   -3.835748    3.825258
     13          1           0       -0.661554   -4.450872    4.081086
     14          6           0       -1.888789   -5.628160    2.788447
     15          8           0       -2.981909   -6.118902    2.948047
     16          8           0       -0.900387   -6.246978    2.090990
     17          7           0       -0.927230   -0.290035    1.139090
     18          1           0       -1.868038   -0.282235    1.509162
     19          6           0       -0.641608    0.452612   -0.081994
     20          1           0       -1.375098    1.265973   -0.142092
     21          6           0        0.703803    1.150207    0.108496
     22          6           0       -0.761728   -0.452431   -1.335295
     23          1           0       -0.045069   -1.273367   -1.229020
     24          1           0       -1.759263   -0.904142   -1.269142
     25          8           0        0.834517    1.777641    1.245212
     26          6           0       -0.588346    0.230598   -2.679650
     27          6           0       -1.370741    1.339770   -3.051390
     28          1           0       -2.123376    1.730290   -2.369466
     29          6           0        0.339278   -0.257652   -3.612154
     30          1           0        0.932712   -1.137901   -3.371640
     31          6           0       -1.226548    1.943524   -4.292473
     32          1           0       -1.836689    2.793490   -4.579885
     33          6           0        0.495404    0.339297   -4.865286
     34          1           0        1.213000   -0.066753   -5.574594
     35          8           0       -0.198921    2.082264   -6.403771
     36          1           0        0.442632    1.634328   -6.978188
     37          6           0       -0.288328    1.445373   -5.210979
     38          7           0        1.602409    1.229041   -0.845530
     39          1           0        1.348067    0.817254   -1.746251
     40          6           0        3.016479    1.656978   -0.686910
     41          1           0        3.350566    1.290618    0.290877
     42          6           0        3.079750    3.193138   -0.681314
     43          6           0        3.875131    1.047025   -1.797866
     44          1           0        3.632199   -0.021406   -1.861174
     45          1           0        3.598826    1.512403   -2.751876
     46          8           0        3.414558    3.907078   -1.582058
     47          6           0        5.377279    1.224378   -1.534333
     48          1           0        5.637382    0.737652   -0.583097
     49          1           0        5.629268    2.284300   -1.430621
     50          6           0        6.244797    0.637456   -2.654873
     51          1           0        6.063896   -0.441751   -2.753356
     52          1           0        5.955160    1.090610   -3.614752
     53          6           0        7.743840    0.870591   -2.422578
     54          1           0        8.035297    0.410510   -1.469815
     55          1           0        8.308762    0.344046   -3.210573
     56          7           0        8.038481    2.305261   -2.330836
     57          1           0        7.992690    2.727569   -3.257682
     58          1           0        8.993562    2.444605   -2.006816
     59          8           0        2.655045    3.661478    0.537494
     60          1           0        1.570290    2.439854    1.242028
     61          1           0        2.663183    4.639863    0.525053
     62          1           0       -1.265903   -7.105865    1.804969
 ---------------------------------------------------------------------

 SCF Done:  E(RB3LYP) =  -1526.17917291     A.U. after    2 cycles

 Alpha  occ. eigenvalues --  -19.36321 -19.35524 -19.29129 -19.28158 -19.26135
 Alpha  occ. eigenvalues --  -19.25084 -19.20338 -14.55103 -14.49998 -14.41445
 Alpha  occ. eigenvalues --  -14.38706 -10.49403 -10.47026 -10.41177 -10.39822
 Alpha  occ. eigenvalues --  -10.39628 -10.38665 -10.36145 -10.33470 -10.32706
 Alpha  occ. eigenvalues --  -10.31524 -10.31378 -10.31030 -10.30772 -10.30211
 Alpha  occ. eigenvalues --  -10.29682 -10.28999 -10.28556 -10.28149 -10.27411
 Alpha  occ. eigenvalues --  -10.27032  -1.27206  -1.25282  -1.17061  -1.16913
 Alpha  occ. eigenvalues --   -1.16887  -1.16481  -1.12191  -1.07905  -1.06345
 Alpha  occ. eigenvalues --   -0.99300  -0.97252  -0.95690  -0.95045  -0.91562
 Alpha  occ. eigenvalues --   -0.87973  -0.87596  -0.86404  -0.86010  -0.81930
 Alpha  occ. eigenvalues --   -0.81351  -0.80810  -0.77473  -0.76513  -0.74837
 Alpha  occ. eigenvalues --   -0.73565  -0.72495  -0.71270  -0.71169  -0.70401
 Alpha  occ. eigenvalues --   -0.67642  -0.67269  -0.66888  -0.65852  -0.65520
 Alpha  occ. eigenvalues --   -0.64835  -0.63394  -0.61802  -0.60558  -0.59794
 Alpha  occ. eigenvalues --   -0.59096  -0.58996  -0.57936  -0.57660  -0.57182
 Alpha  occ. eigenvalues --   -0.56609  -0.56340  -0.55679  -0.54835  -0.54592
 Alpha  occ. eigenvalues --   -0.54462  -0.54184  -0.53848  -0.53478  -0.53367
 Alpha  occ. eigenvalues --   -0.53251  -0.53009  -0.51887  -0.51604  -0.50862
 Alpha  occ. eigenvalues --   -0.50663  -0.49979  -0.48878  -0.48492  -0.47876
 Alpha  occ. eigenvalues --   -0.47650  -0.47466  -0.47009  -0.46663  -0.45633
 Alpha  occ. eigenvalues --   -0.45052  -0.44743  -0.44450  -0.44018  -0.43603
 Alpha  occ. eigenvalues --   -0.43529  -0.42500  -0.41961  -0.41813  -0.39487
 Alpha  occ. eigenvalues --   -0.38867  -0.38272  -0.36756  -0.33982  -0.33751
 Alpha  occ. eigenvalues --   -0.33065  -0.31011
 Alpha virt. eigenvalues --   -0.17711  -0.14602  -0.12211  -0.11140  -0.10264
 Alpha virt. eigenvalues --   -0.06971  -0.05683  -0.05103  -0.03124  -0.02644
 Alpha virt. eigenvalues --   -0.02360  -0.01779  -0.00863  -0.00731   0.00144

 Mulliken charges:
               1
     1  N   -0.686314
     2  H    0.321551
     3  H    0.314320
     4  C   -0.088746
     5  H    0.152337
     6  C    0.627929
     7  C   -0.275982
     8  H    0.181112
     9  H    0.141836
    10  O   -0.540341
    11  C   -0.333279
    12  H    0.171927
    13  H    0.211995
    14  C    0.562676
    15  O   -0.445051
    16  O   -0.565710
    17  N   -0.598904
    18  H    0.356004
    19  C   -0.036188
    20  H    0.205812
    21  C    0.665204
    22  C   -0.365503
    23  H    0.190656
    24  H    0.191771
    25  O   -0.557192
    26  C    0.098923
    27  C   -0.186887
    28  H    0.140949
    29  C   -0.224469
    30  H    0.154324
    31  C   -0.149275
    32  H    0.174040
    33  C   -0.182373
    34  H    0.150971
    35  O   -0.618348
    36  H    0.423092
    37  C    0.360920
    38  N   -0.600997
    39  H    0.400642
    40  C   -0.078769
    41  H    0.218952
    42  C    0.632803
    43  C   -0.307385
    44  H    0.163875
    45  H    0.179571
    46  O   -0.390904
    47  C   -0.273340
    48  H    0.140832
    49  H    0.192870
    50  C   -0.260776
    51  H    0.138429
    52  H    0.136758
    53  C   -0.144529
    54  H    0.146402
    55  H    0.135403
    56  N   -0.720525
    57  H    0.301858
    58  H    0.312191
    59  O   -0.613613
    60  H    0.478206
    61  H    0.451151
    62  H    0.417109
 Sum of Mulliken charges =   1.00000

 Dipole moment (field-independent basis, Debye):
    X=              7.9406    Y=              5.5542    Z=             -4.8485  Tot=             10.8357
 Quadrupole moment (field-independent basis, Debye-Ang):
   XX=           -129.1303   YY=           -159.7904   ZZ=           -139.0690
   XY=              4.0599   XZ=            -17.1095   YZ=              9.0297

 Normal termination of Gaussian 16 at Tue May 24 03:30:32 2022.
