 Gaussian 16, Revision C.01,
 Gaussian 16:  ES64L-G16RevC.01  3-Jul-2019

 -------------------------------------------------------------------
 # B3LYP/6-31G* guess=read geom=check nosymm integral(ultrafinegrid)
 -------------------------------------------------------------------

 ------------------------------------------------------
 Candidate Structure: Conf:771 Charge calc in gas phase
 ------------------------------------------------------
 Structure from the checkpoint file:  "conf-771.chk"
 Charge =  1 Multiplicity = 1

                          Input orientation:
 ---------------------------------------------------------------------
 Center     Atomic      Atomic             Coordinates (Angstroms)
 Number     Number       Type             X           Y           Z
 ---------------------------------------------------------------------
      1          7           0        2.129750   -3.903441    2.541625
      2          1           0        2.054616   -4.427213    1.669943
      3          1           0        2.968367   -3.332546    2.448005
      4          6           0        0.976994   -3.025166    2.711596
      5          1           0        1.134051   -2.489099    3.659519
      6          6           0        0.943244   -1.888071    1.666594
      7          6           0       -0.314273   -3.841399    2.895930
      8          1           0       -1.126706   -3.175413    3.204534
      9          1           0       -0.122296   -4.506730    3.741426
     10          8           0        1.997337   -1.375451    1.265845
     11          6           0       -0.771646   -4.699272    1.688282
     12          1           0       -0.833943   -5.758693    1.946571
     13          1           0       -0.056301   -4.640833    0.854526
     14          6           0       -2.105335   -4.266276    1.116477
     15          8           0       -2.509677   -3.112439    1.071923
     16          8           0       -2.810146   -5.289404    0.623315
     17          7           0       -0.249493   -1.375943    1.264257
     18          1           0       -1.127997   -1.882935    1.404615
     19          6           0       -0.242116   -0.347431    0.231374
     20          1           0       -1.199298    0.183979    0.305809
     21          6           0        0.812664    0.683923    0.614085
     22          6           0       -0.104395   -0.969248   -1.182919
     23          1           0        0.839496   -1.523508   -1.217909
     24          1           0       -0.907598   -1.714194   -1.240369
     25          8           0        0.755095    1.089679    1.853602
     26          6           0       -0.197037   -0.011886   -2.356768
     27          6           0       -1.309813    0.830905   -2.535453
     28          1           0       -2.133893    0.802695   -1.825693
     29          6           0        0.820324    0.035673   -3.321619
     30          1           0        1.676890   -0.630556   -3.234736
     31          6           0       -1.398214    1.692243   -3.620052
     32          1           0       -2.260638    2.335864   -3.759317
     33          6           0        0.745797    0.897794   -4.418400
     34          1           0        1.543468    0.906697   -5.157785
     35          8           0       -0.515638    2.597950   -5.604194
     36          1           0        0.231980    2.521339   -6.218496
     37          6           0       -0.366139    1.732648   -4.571341
     38          7           0        1.608423    1.245003   -0.270351
     39          1           0        1.478436    0.959994   -1.242948
     40          6           0        2.818582    2.052215    0.023628
     41          1           0        3.273583    1.629257    0.927241
     42          6           0        2.400508    3.500923    0.321212
     43          6           0        3.794062    1.954236   -1.152727
     44          1           0        3.918705    0.889988   -1.388891
     45          1           0        3.343926    2.441024   -2.026406
     46          8           0        2.507715    4.448945   -0.403418
     47          6           0        5.167814    2.574971   -0.857872
     48          1           0        5.594205    2.108201    0.041689
     49          1           0        5.047944    3.642768   -0.638792
     50          6           0        6.135323    2.404586   -2.036309
     51          1           0        6.273112    1.332858   -2.244338
     52          1           0        5.708504    2.846627   -2.945023
     53          6           0        7.502811    3.049813   -1.789286
     54          1           0        7.364787    4.125917   -1.624945
     55          1           0        7.934768    2.643099   -0.855405
     56          7           0        8.354228    2.886690   -2.969132
     57          1           0        8.667045    1.919480   -3.042747
     58          1           0        9.197756    3.448364   -2.871750
     59          8           0        1.844062    3.567044    1.573103
     60          1           0        1.236246    1.939292    2.005666
     61          1           0        1.543168    4.482525    1.741978
     62          1           0       -3.640990   -4.930973    0.253982
 ---------------------------------------------------------------------

 SCF Done:  E(RB3LYP) =  -1526.18500423     A.U. after    2 cycles

 Alpha  occ. eigenvalues --  -19.35422 -19.35125 -19.30683 -19.28788 -19.27702
 Alpha  occ. eigenvalues --  -19.25707 -19.23964 -14.54226 -14.47846 -14.40997
 Alpha  occ. eigenvalues --  -14.37812 -10.48589 -10.46677 -10.43667 -10.40139
 Alpha  occ. eigenvalues --  -10.39231 -10.38451 -10.35654 -10.33044 -10.31971
 Alpha  occ. eigenvalues --  -10.31393 -10.30993 -10.30818 -10.30535 -10.30203
 Alpha  occ. eigenvalues --  -10.29740 -10.29605 -10.29190 -10.28663 -10.28045
 Alpha  occ. eigenvalues --  -10.26478  -1.26407  -1.24869  -1.21932  -1.16666
 Alpha  occ. eigenvalues --   -1.16009  -1.15725  -1.12785  -1.11399  -1.04798
 Alpha  occ. eigenvalues --   -0.98837  -0.96661  -0.94998  -0.94454  -0.90867
 Alpha  occ. eigenvalues --   -0.89376  -0.87455  -0.85958  -0.85516  -0.81995
 Alpha  occ. eigenvalues --   -0.81119  -0.80859  -0.77161  -0.75946  -0.74882
 Alpha  occ. eigenvalues --   -0.73918  -0.72346  -0.71112  -0.70230  -0.69983
 Alpha  occ. eigenvalues --   -0.69515  -0.67334  -0.66491  -0.65259  -0.65011
 Alpha  occ. eigenvalues --   -0.64021  -0.62944  -0.61486  -0.60664  -0.60126
 Alpha  occ. eigenvalues --   -0.59728  -0.58666  -0.58365  -0.57859  -0.57382
 Alpha  occ. eigenvalues --   -0.56859  -0.56621  -0.56213  -0.55871  -0.55806
 Alpha  occ. eigenvalues --   -0.54943  -0.54328  -0.53784  -0.53216  -0.52926
 Alpha  occ. eigenvalues --   -0.52775  -0.52376  -0.51895  -0.51656  -0.51026
 Alpha  occ. eigenvalues --   -0.50400  -0.50009  -0.49903  -0.49486  -0.47849
 Alpha  occ. eigenvalues --   -0.47726  -0.47238  -0.46998  -0.46417  -0.46339
 Alpha  occ. eigenvalues --   -0.46001  -0.44943  -0.44394  -0.44245  -0.43531
 Alpha  occ. eigenvalues --   -0.43481  -0.42931  -0.42368  -0.41473  -0.41286
 Alpha  occ. eigenvalues --   -0.39698  -0.38083  -0.37575  -0.36258  -0.33584
 Alpha  occ. eigenvalues --   -0.32551  -0.30094
 Alpha virt. eigenvalues --   -0.16734  -0.14223  -0.11717  -0.10914  -0.10245
 Alpha virt. eigenvalues --   -0.09463  -0.06549  -0.03092  -0.02611  -0.02228
 Alpha virt. eigenvalues --   -0.01971  -0.01219  -0.00611  -0.00561   0.00034

 Mulliken charges:
               1
     1  N   -0.688360
     2  H    0.301787
     3  H    0.324761
     4  C   -0.092351
     5  H    0.190846
     6  C    0.609592
     7  C   -0.297617
     8  H    0.170850
     9  H    0.197942
    10  O   -0.552121
    11  C   -0.369041
    12  H    0.212535
    13  H    0.181141
    14  C    0.590911
    15  O   -0.487983
    16  O   -0.532067
    17  N   -0.628818
    18  H    0.401773
    19  C   -0.030542
    20  H    0.206739
    21  C    0.662316
    22  C   -0.372390
    23  H    0.181880
    24  H    0.191480
    25  O   -0.554444
    26  C    0.102945
    27  C   -0.187894
    28  H    0.144638
    29  C   -0.227244
    30  H    0.150965
    31  C   -0.150119
    32  H    0.172298
    33  C   -0.183171
    34  H    0.150657
    35  O   -0.619520
    36  H    0.422741
    37  C    0.360114
    38  N   -0.605673
    39  H    0.399535
    40  C   -0.079003
    41  H    0.218191
    42  C    0.633533
    43  C   -0.305543
    44  H    0.167187
    45  H    0.181223
    46  O   -0.395317
    47  C   -0.285365
    48  H    0.145330
    49  H    0.167197
    50  C   -0.249460
    51  H    0.131278
    52  H    0.158595
    53  C   -0.138565
    54  H    0.147961
    55  H    0.118701
    56  N   -0.715799
    57  H    0.298167
    58  H    0.309438
    59  O   -0.612433
    60  H    0.476110
    61  H    0.450321
    62  H    0.429162
 Sum of Mulliken charges =   1.00000

 Dipole moment (field-independent basis, Debye):
    X=              5.1637    Y=              0.6759    Z=             -0.7273  Tot=              5.2583
 Quadrupole moment (field-independent basis, Debye-Ang):
   XX=           -127.2619   YY=           -139.6785   ZZ=           -152.3504
   XY=             26.0830   XZ=             -7.0740   YZ=              4.5053

 Normal termination of Gaussian 16 at Tue May 24 03:30:07 2022.
