 Gaussian 16, Revision C.01,
 Gaussian 16:  ES64L-G16RevC.01  3-Jul-2019

 -------------------------------------------------------------------
 # B3LYP/6-31G* guess=read geom=check nosymm integral(ultrafinegrid)
 -------------------------------------------------------------------

 ------------------------------------------------------
 Candidate Structure: Conf:879 Charge calc in gas phase
 ------------------------------------------------------
 Structure from the checkpoint file:  "conf-879.chk"
 Charge =  1 Multiplicity = 1

                          Input orientation:
 ---------------------------------------------------------------------
 Center     Atomic      Atomic             Coordinates (Angstroms)
 Number     Number       Type             X           Y           Z
 ---------------------------------------------------------------------
      1          7           0        0.666686    0.970559    2.688645
      2          1           0        0.561253    1.781569    3.295886
      3          1           0        1.075659    0.220916    3.245154
      4          6           0       -0.642815    0.543578    2.179196
      5          1           0       -1.037329    1.371732    1.586320
      6          6           0       -0.307107   -0.611259    1.229784
      7          6           0       -1.695939    0.150724    3.234204
      8          1           0       -1.842242    1.007831    3.903100
      9          1           0       -1.305719   -0.671391    3.845765
     10          8           0        0.406676   -1.552149    1.567281
     11          6           0       -3.061057   -0.292749    2.652332
     12          1           0       -3.765166   -0.476552    3.466854
     13          1           0       -2.941589   -1.230020    2.097149
     14          6           0       -3.663435    0.702731    1.681899
     15          8           0       -3.195579    0.991569    0.589320
     16          8           0       -4.788978    1.263491    2.143878
     17          7           0       -0.693305   -0.429897   -0.077300
     18          1           0       -1.524360    0.143374   -0.232521
     19          6           0       -0.293879   -1.397077   -1.088823
     20          1           0       -0.561402   -0.955734   -2.058692
     21          6           0        1.230387   -1.475202   -1.090199
     22          6           0       -0.954062   -2.799817   -0.998562
     23          1           0       -0.560201   -3.403192   -1.823741
     24          1           0       -0.632264   -3.272654   -0.067823
     25          8           0        1.753160   -2.564100   -1.574364
     26          6           0       -2.464587   -2.732673   -1.062950
     27          6           0       -3.244732   -3.114589    0.037890
     28          1           0       -2.755055   -3.476385    0.939530
     29          6           0       -3.128496   -2.317374   -2.224555
     30          1           0       -2.559572   -2.042404   -3.111165
     31          6           0       -4.635403   -3.072942   -0.006073
     32          1           0       -5.236786   -3.384304    0.841982
     33          6           0       -4.519405   -2.264935   -2.284792
     34          1           0       -5.013164   -1.943617   -3.199469
     35          8           0       -6.640708   -2.614398   -1.157060
     36          1           0       -6.974098   -2.347447   -2.028313
     37          6           0       -5.280799   -2.641180   -1.171038
     38          7           0        1.948954   -0.450103   -0.698289
     39          1           0        1.416312    0.302390   -0.263256
     40          6           0        3.418945   -0.260098   -0.734319
     41          1           0        3.763140   -0.544311   -1.736842
     42          6           0        4.092893   -1.197754    0.282208
     43          6           0        3.746245    1.209523   -0.452661
     44          1           0        3.342191    1.470830    0.534598
     45          1           0        4.835634    1.281308   -0.362812
     46          8           0        4.614919   -0.888059    1.312937
     47          6           0        3.247315    2.168037   -1.541860
     48          1           0        2.149100    2.138409   -1.608524
     49          1           0        3.622571    1.857972   -2.524243
     50          6           0        3.685887    3.617227   -1.294409
     51          1           0        3.258141    3.989959   -0.354049
     52          1           0        4.778332    3.649243   -1.169391
     53          6           0        3.285117    4.560888   -2.435892
     54          1           0        2.195070    4.531474   -2.563123
     55          1           0        3.538578    5.594279   -2.145016
     56          7           0        3.891080    4.130147   -3.702073
     57          1           0        4.886669    4.350756   -3.697998
     58          1           0        3.493002    4.659470   -4.475562
     59          8           0        4.031189   -2.491008   -0.176660
     60          1           0        2.703620   -2.678902   -1.315581
     61          1           0        4.419659   -3.088489    0.493834
     62          1           0       -5.113546    1.880897    1.459146
 ---------------------------------------------------------------------

 SCF Done:  E(RB3LYP) =  -1526.19002671     A.U. after    1 cycles

 Alpha  occ. eigenvalues --  -19.36450 -19.35145 -19.29909 -19.28744 -19.26068
 Alpha  occ. eigenvalues --  -19.24687 -19.24319 -14.55063 -14.48476 -14.42464
 Alpha  occ. eigenvalues --  -14.39025 -10.48784 -10.46682 -10.42783 -10.40641
 Alpha  occ. eigenvalues --  -10.39482 -10.38415 -10.33712 -10.33007 -10.31024
 Alpha  occ. eigenvalues --  -10.30382 -10.30130 -10.29849 -10.28829 -10.28621
 Alpha  occ. eigenvalues --  -10.28512 -10.28458 -10.28162 -10.27860 -10.27233
 Alpha  occ. eigenvalues --  -10.27132  -1.27154  -1.24898  -1.21008  -1.16672
 Alpha  occ. eigenvalues --   -1.16354  -1.14265  -1.12128  -1.11773  -1.05134
 Alpha  occ. eigenvalues --   -0.99498  -0.95900  -0.94881  -0.94432  -0.90771
 Alpha  occ. eigenvalues --   -0.89450  -0.87365  -0.84733  -0.83731  -0.81794
 Alpha  occ. eigenvalues --   -0.81190  -0.79621  -0.77367  -0.76074  -0.74737
 Alpha  occ. eigenvalues --   -0.73613  -0.72510  -0.71284  -0.70042  -0.69455
 Alpha  occ. eigenvalues --   -0.67885  -0.67448  -0.65541  -0.65280  -0.64126
 Alpha  occ. eigenvalues --   -0.63248  -0.63160  -0.61908  -0.60872  -0.59855
 Alpha  occ. eigenvalues --   -0.58609  -0.58345  -0.58035  -0.57601  -0.57179
 Alpha  occ. eigenvalues --   -0.57002  -0.56233  -0.55875  -0.55411  -0.55099
 Alpha  occ. eigenvalues --   -0.55064  -0.54339  -0.53645  -0.52841  -0.52502
 Alpha  occ. eigenvalues --   -0.52246  -0.52041  -0.51332  -0.51074  -0.50517
 Alpha  occ. eigenvalues --   -0.50330  -0.48981  -0.48876  -0.48690  -0.47999
 Alpha  occ. eigenvalues --   -0.47429  -0.47165  -0.46642  -0.46168  -0.46124
 Alpha  occ. eigenvalues --   -0.45809  -0.45634  -0.44812  -0.43754  -0.42668
 Alpha  occ. eigenvalues --   -0.42526  -0.42122  -0.42020  -0.41730  -0.41335
 Alpha  occ. eigenvalues --   -0.39298  -0.38071  -0.37426  -0.34616  -0.34164
 Alpha  occ. eigenvalues --   -0.31357  -0.30627
 Alpha virt. eigenvalues --   -0.17497  -0.14015  -0.10749  -0.10083  -0.09101
 Alpha virt. eigenvalues --   -0.08086  -0.06803  -0.04538  -0.02211  -0.01931
 Alpha virt. eigenvalues --   -0.01241  -0.00850  -0.00671  -0.00520   0.00462

 Mulliken charges:
               1
     1  N   -0.734884
     2  H    0.320870
     3  H    0.326513
     4  C   -0.066812
     5  H    0.169985
     6  C    0.592590
     7  C   -0.288101
     8  H    0.165470
     9  H    0.174130
    10  O   -0.525825
    11  C   -0.374453
    12  H    0.197257
    13  H    0.190504
    14  C    0.600797
    15  O   -0.491291
    16  O   -0.535354
    17  N   -0.652769
    18  H    0.398598
    19  C   -0.037110
    20  H    0.213660
    21  C    0.654773
    22  C   -0.362401
    23  H    0.183733
    24  H    0.191196
    25  O   -0.563423
    26  C    0.166163
    27  C   -0.207188
    28  H    0.142479
    29  C   -0.194706
    30  H    0.129641
    31  C   -0.161102
    32  H    0.160052
    33  C   -0.185063
    34  H    0.140407
    35  O   -0.628384
    36  H    0.417984
    37  C    0.357203
    38  N   -0.554450
    39  H    0.402586
    40  C   -0.085999
    41  H    0.212744
    42  C    0.640437
    43  C   -0.314525
    44  H    0.189726
    45  H    0.188431
    46  O   -0.387951
    47  C   -0.267848
    48  H    0.121983
    49  H    0.178114
    50  C   -0.259273
    51  H    0.143160
    52  H    0.142473
    53  C   -0.144148
    54  H    0.140050
    55  H    0.138083
    56  N   -0.722481
    57  H    0.303037
    58  H    0.311356
    59  O   -0.619327
    60  H    0.481253
    61  H    0.453134
    62  H    0.424299
 Sum of Mulliken charges =   1.00000

 Dipole moment (field-independent basis, Debye):
    X=              2.3966    Y=             -0.2536    Z=             -2.9854  Tot=              3.8368
 Quadrupole moment (field-independent basis, Debye-Ang):
   XX=           -111.7614   YY=           -145.6951   ZZ=           -150.8878
   XY=             -2.4699   XZ=             -7.2711   YZ=             -0.6798

 Normal termination of Gaussian 16 at Tue May 24 03:30:00 2022.
