 Gaussian 16, Revision C.01,
 Gaussian 16:  ES64L-G16RevC.01  3-Jul-2019

 -------------------------------------------------------------------
 # B3LYP/6-31G* guess=read geom=check nosymm integral(ultrafinegrid)
 -------------------------------------------------------------------

 ------------------------------------------------------
 Candidate Structure: Conf:538 Charge calc in gas phase
 ------------------------------------------------------
 Structure from the checkpoint file:  "conf-538.chk"
 Charge =  1 Multiplicity = 1

                          Input orientation:
 ---------------------------------------------------------------------
 Center     Atomic      Atomic             Coordinates (Angstroms)
 Number     Number       Type             X           Y           Z
 ---------------------------------------------------------------------
      1          7           0       -1.332303    0.153891    4.958576
      2          1           0       -1.915902   -0.322891    5.640496
      3          1           0       -0.569436    0.603663    5.459775
      4          6           0       -0.838332   -0.789786    3.967020
      5          1           0       -1.685029   -1.400940    3.645925
      6          6           0       -0.382191   -0.000472    2.751274
      7          6           0        0.302898   -1.729856    4.454495
      8          1           0       -0.098626   -2.277932    5.314816
      9          1           0        1.128396   -1.112784    4.828462
     10          8           0        0.277377    1.090773    3.021999
     11          6           0        0.889005   -2.726222    3.424284
     12          1           0        1.635869   -3.350740    3.919203
     13          1           0        1.391602   -2.179504    2.617052
     14          6           0       -0.158021   -3.610470    2.785055
     15          8           0       -1.055900   -3.206551    2.051822
     16          8           0       -0.026074   -4.899621    3.098128
     17          7           0       -0.651606   -0.440745    1.551090
     18          1           0       -1.068132   -1.383671    1.527327
     19          6           0       -0.233027    0.153282    0.275260
     20          1           0       -0.715664    1.135159    0.192065
     21          6           0        1.300870    0.331091    0.290820
     22          6           0       -0.709247   -0.737987   -0.901926
     23          1           0       -0.294420   -0.298928   -1.816785
     24          1           0       -0.243319   -1.724199   -0.791643
     25          8           0        2.015829   -0.335090    1.032865
     26          6           0       -2.214996   -0.858788   -0.999627
     27          6           0       -2.879488   -2.021192   -0.580068
     28          1           0       -2.308936   -2.861222   -0.192295
     29          6           0       -2.984825    0.195446   -1.509181
     30          1           0       -2.499639    1.103047   -1.864408
     31          6           0       -4.264524   -2.127370   -0.655913
     32          1           0       -4.777962   -3.028984   -0.338522
     33          6           0       -4.371427    0.103760   -1.591656
     34          1           0       -4.949328    0.930533   -1.998919
     35          8           0       -6.366941   -1.224598   -1.213168
     36          1           0       -6.781880   -0.438528   -1.602501
     37          6           0       -5.019356   -1.062544   -1.162154
     38          7           0        1.773375    1.308527   -0.521487
     39          1           0        1.111909    1.905392   -1.003430
     40          6           0        3.120822    1.835536   -0.337343
     41          1           0        3.792265    0.983336   -0.193051
     42          6           0        3.238362    2.674870    0.941750
     43          6           0        3.589069    2.651504   -1.556788
     44          1           0        2.882315    3.476506   -1.733504
     45          1           0        4.541778    3.116322   -1.284418
     46          8           0        4.245805    3.215731    1.307409
     47          6           0        3.761356    1.811372   -2.828590
     48          1           0        2.806809    1.337206   -3.100866
     49          1           0        4.472338    1.000312   -2.623510
     50          6           0        4.280784    2.645644   -4.006356
     51          1           0        3.578454    3.464699   -4.218346
     52          1           0        5.238767    3.101706   -3.727250
     53          6           0        4.492885    1.830538   -5.288911
     54          1           0        3.517306    1.458767   -5.652371
     55          1           0        4.873308    2.506402   -6.062460
     56          7           0        5.489194    0.770739   -5.087608
     57          1           0        5.897487    0.500698   -5.979441
     58          1           0        5.048398   -0.069185   -4.718789
     59          8           0        2.059311    2.791428    1.657258
     60          1           0        0.781148    1.522533    2.290211
     61          1           0        2.276628    3.378267    2.409416
     62          1           0       -0.734652   -5.398104    2.644260
 ---------------------------------------------------------------------

 SCF Done:  E(RB3LYP) =  -1526.19400306     A.U. after    3 cycles

 Alpha  occ. eigenvalues --  -19.36072 -19.33145 -19.32187 -19.27218 -19.26572
 Alpha  occ. eigenvalues --  -19.26263 -19.25812 -14.53945 -14.49847 -14.44133
 Alpha  occ. eigenvalues --  -14.37754 -10.47685 -10.45178 -10.44308 -10.42839
 Alpha  occ. eigenvalues --  -10.38744 -10.36930 -10.36080 -10.34324 -10.32570
 Alpha  occ. eigenvalues --  -10.32535 -10.31988 -10.29599 -10.29467 -10.29214
 Alpha  occ. eigenvalues --  -10.28735 -10.28461 -10.27703 -10.27591 -10.27312
 Alpha  occ. eigenvalues --  -10.25454  -1.26143  -1.23425  -1.22906  -1.17866
 Alpha  occ. eigenvalues --   -1.14814  -1.14243  -1.14144  -1.11289  -1.06455
 Alpha  occ. eigenvalues --   -1.02354  -0.95917  -0.94556  -0.93346  -0.91662
 Alpha  occ. eigenvalues --   -0.90300  -0.86408  -0.85326  -0.84358  -0.83312
 Alpha  occ. eigenvalues --   -0.80937  -0.78804  -0.78140  -0.75912  -0.74859
 Alpha  occ. eigenvalues --   -0.73556  -0.72435  -0.71801  -0.71728  -0.70568
 Alpha  occ. eigenvalues --   -0.68960  -0.66276  -0.65423  -0.65085  -0.64056
 Alpha  occ. eigenvalues --   -0.63812  -0.62507  -0.62123  -0.61574  -0.60751
 Alpha  occ. eigenvalues --   -0.60275  -0.59130  -0.58485  -0.58265  -0.56829
 Alpha  occ. eigenvalues --   -0.56787  -0.56210  -0.55665  -0.55607  -0.55519
 Alpha  occ. eigenvalues --   -0.55367  -0.54681  -0.54290  -0.53860  -0.53243
 Alpha  occ. eigenvalues --   -0.52904  -0.51978  -0.51833  -0.51215  -0.50834
 Alpha  occ. eigenvalues --   -0.50372  -0.50013  -0.49853  -0.49340  -0.48877
 Alpha  occ. eigenvalues --   -0.47874  -0.47611  -0.47165  -0.46279  -0.45836
 Alpha  occ. eigenvalues --   -0.45540  -0.45255  -0.44481  -0.44299  -0.43045
 Alpha  occ. eigenvalues --   -0.42504  -0.42220  -0.41887  -0.41325  -0.40666
 Alpha  occ. eigenvalues --   -0.40296  -0.39390  -0.37757  -0.36349  -0.34770
 Alpha  occ. eigenvalues --   -0.31281  -0.30026
 Alpha virt. eigenvalues --   -0.16637  -0.12842  -0.12273  -0.11418  -0.09942
 Alpha virt. eigenvalues --   -0.08684  -0.06803  -0.04485  -0.03723  -0.03193
 Alpha virt. eigenvalues --   -0.01235  -0.00865  -0.00383  -0.00134   0.00284

 Mulliken charges:
               1
     1  N   -0.702934
     2  H    0.335089
     3  H    0.326683
     4  C   -0.098383
     5  H    0.199208
     6  C    0.676338
     7  C   -0.295027
     8  H    0.183572
     9  H    0.180334
    10  O   -0.584048
    11  C   -0.393220
    12  H    0.207001
    13  H    0.220880
    14  C    0.605973
    15  O   -0.500878
    16  O   -0.524852
    17  N   -0.575150
    18  H    0.437146
    19  C   -0.075251
    20  H    0.190871
    21  C    0.583661
    22  C   -0.407584
    23  H    0.183576
    24  H    0.187759
    25  O   -0.503087
    26  C    0.165863
    27  C   -0.208375
    28  H    0.154547
    29  C   -0.188447
    30  H    0.124055
    31  C   -0.158463
    32  H    0.161891
    33  C   -0.186228
    34  H    0.143065
    35  O   -0.624713
    36  H    0.419592
    37  C    0.359715
    38  N   -0.591747
    39  H    0.344934
    40  C   -0.057293
    41  H    0.228411
    42  C    0.618875
    43  C   -0.301232
    44  H    0.143216
    45  H    0.200280
    46  O   -0.412997
    47  C   -0.269024
    48  H    0.123007
    49  H    0.159923
    50  C   -0.235271
    51  H    0.127521
    52  H    0.157153
    53  C   -0.152312
    54  H    0.116579
    55  H    0.154813
    56  N   -0.715695
    57  H    0.311404
    58  H    0.295344
    59  O   -0.625941
    60  H    0.490692
    61  H    0.437651
    62  H    0.431528
 Sum of Mulliken charges =   1.00000

 Dipole moment (field-independent basis, Debye):
    X=             -1.9571    Y=             -0.5554    Z=              4.6772  Tot=              5.1005
 Quadrupole moment (field-independent basis, Debye-Ang):
   XX=           -164.6200   YY=           -145.4392   ZZ=           -114.2960
   XY=              0.9341   XZ=             -7.4549   YZ=            -19.8103

 Normal termination of Gaussian 16 at Tue May 24 03:30:42 2022.
