 Gaussian 16, Revision C.01,
 Gaussian 16:  ES64L-G16RevC.01  3-Jul-2019

 -------------------------------------------------------------------
 # B3LYP/6-31G* guess=read geom=check nosymm integral(ultrafinegrid)
 -------------------------------------------------------------------

 ------------------------------------------------------
 Candidate Structure: Conf:123 Charge calc in gas phase
 ------------------------------------------------------
 Structure from the checkpoint file:  "conf-123.chk"
 Charge =  1 Multiplicity = 1

                          Input orientation:
 ---------------------------------------------------------------------
 Center     Atomic      Atomic             Coordinates (Angstroms)
 Number     Number       Type             X           Y           Z
 ---------------------------------------------------------------------
      1          7           0        0.140738   -2.914357    3.622375
      2          1           0        0.555919   -3.522306    2.917057
      3          1           0        0.910716   -2.422020    4.070946
      4          6           0       -0.767000   -1.979714    2.979418
      5          1           0       -1.058428   -1.224581    3.722467
      6          6           0       -0.133736   -1.264551    1.777168
      7          6           0       -2.042743   -2.706909    2.493133
      8          1           0       -1.747030   -3.466339    1.757131
      9          1           0       -2.697930   -1.998777    1.973173
     10          8           0        0.709333   -1.793368    1.050110
     11          6           0       -2.808741   -3.369823    3.649454
     12          1           0       -3.115135   -2.602664    4.373314
     13          1           0       -2.174228   -4.088387    4.168290
     14          6           0       -4.055505   -4.092816    3.181927
     15          8           0       -4.307463   -5.259555    3.366168
     16          8           0       -4.895707   -3.257798    2.511009
     17          7           0       -0.538748    0.014192    1.504961
     18          1           0       -1.232419    0.479067    2.074627
     19          6           0       -0.093061    0.643832    0.271001
     20          1           0       -0.216554    1.729057    0.385585
     21          6           0        1.401782    0.455496    0.161161
     22          6           0       -0.904108    0.145454   -0.956970
     23          1           0       -0.784207   -0.940618   -1.014914
     24          1           0       -1.954747    0.331028   -0.703829
     25          8           0        2.146908    0.653261    1.230039
     26          6           0       -0.565822    0.784679   -2.289692
     27          6           0       -0.080302    0.003515   -3.354331
     28          1           0        0.024385   -1.072695   -3.226410
     29          6           0       -0.745721    2.157329   -2.513571
     30          1           0       -1.142013    2.792184   -1.724033
     31          6           0        0.232115    0.568533   -4.589056
     32          1           0        0.590984   -0.040277   -5.412486
     33          6           0       -0.443309    2.734980   -3.743939
     34          1           0       -0.599615    3.800780   -3.895792
     35          8           0        0.371209    2.439249   -6.011489
     36          1           0        0.135622    3.379350   -6.063429
     37          6           0        0.050495    1.942623   -4.789918
     38          7           0        2.101132    0.277084   -0.926786
     39          1           0        1.671326    0.199214   -1.848221
     40          6           0        3.543383    0.333590   -0.669018
     41          1           0        3.967444   -0.676142   -0.760377
     42          6           0        3.537073    0.669365    0.821048
     43          6           0        4.274557    1.310835   -1.608440
     44          1           0        4.202790    0.898558   -2.623497
     45          1           0        3.727941    2.252236   -1.596211
     46          8           0        4.399549    0.798035    1.619980
     47          6           0        5.752991    1.529630   -1.244171
     48          1           0        6.311798    0.612628   -1.468078
     49          1           0        5.854825    1.695445   -0.166746
     50          6           0        6.389293    2.716790   -1.997240
     51          1           0        7.459920    2.519366   -2.124957
     52          1           0        5.978878    2.788256   -3.015484
     53          6           0        6.278715    4.075509   -1.294339
     54          1           0        6.697993    3.994123   -0.284790
     55          1           0        6.898665    4.801537   -1.840341
     56          7           0        4.882810    4.558284   -1.149562
     57          1           0        4.487825    4.717357   -2.078180
     58          1           0        4.903791    5.480727   -0.712258
     59          8           0        2.876257    3.206452    0.359420
     60          1           0        2.970672    3.469801    1.287706
     61          1           0        3.601597    3.696231   -0.117106
     62          1           0       -5.670468   -3.797052    2.261684
 ---------------------------------------------------------------------

 SCF Done:  E(RB3LYP) =  -1526.17729906     A.U. after    1 cycles

 Alpha  occ. eigenvalues --  -19.36451 -19.29680 -19.28268 -19.26045 -19.24819
 Alpha  occ. eigenvalues --  -19.23426 -19.20245 -14.54807 -14.49749 -14.44362
 Alpha  occ. eigenvalues --  -14.40968 -10.48543 -10.47390 -10.40868 -10.39724
 Alpha  occ. eigenvalues --  -10.39618 -10.38509 -10.36169 -10.33159 -10.32460
 Alpha  occ. eigenvalues --  -10.31840 -10.31611 -10.31265 -10.30845 -10.30770
 Alpha  occ. eigenvalues --  -10.30286 -10.29757 -10.29453 -10.28980 -10.28768
 Alpha  occ. eigenvalues --  -10.27233  -1.29120  -1.20327  -1.16750  -1.16712
 Alpha  occ. eigenvalues --   -1.16550  -1.11614  -1.08959  -1.07794  -1.06201
 Alpha  occ. eigenvalues --   -0.99937  -0.98915  -0.97211  -0.95115  -0.91561
 Alpha  occ. eigenvalues --   -0.88575  -0.87646  -0.86294  -0.86022  -0.82704
 Alpha  occ. eigenvalues --   -0.80652  -0.80315  -0.77995  -0.76639  -0.73757
 Alpha  occ. eigenvalues --   -0.73620  -0.73038  -0.70990  -0.70643  -0.69055
 Alpha  occ. eigenvalues --   -0.67153  -0.66923  -0.66388  -0.65553  -0.64711
 Alpha  occ. eigenvalues --   -0.62240  -0.61852  -0.60779  -0.60323  -0.59779
 Alpha  occ. eigenvalues --   -0.59636  -0.58799  -0.58073  -0.57714  -0.57090
 Alpha  occ. eigenvalues --   -0.56741  -0.56302  -0.55857  -0.55076  -0.54734
 Alpha  occ. eigenvalues --   -0.54643  -0.54205  -0.53760  -0.53559  -0.53407
 Alpha  occ. eigenvalues --   -0.52628  -0.51919  -0.51757  -0.51296  -0.50805
 Alpha  occ. eigenvalues --   -0.50616  -0.49680  -0.49131  -0.48655  -0.48120
 Alpha  occ. eigenvalues --   -0.47608  -0.47282  -0.46401  -0.46265  -0.44978
 Alpha  occ. eigenvalues --   -0.44792  -0.44676  -0.44398  -0.44113  -0.43847
 Alpha  occ. eigenvalues --   -0.43683  -0.43417  -0.42025  -0.39398  -0.39287
 Alpha  occ. eigenvalues --   -0.38580  -0.38176  -0.36821  -0.36688  -0.33952
 Alpha  occ. eigenvalues --   -0.33229  -0.33035
 Alpha virt. eigenvalues --   -0.17932  -0.12922  -0.12249  -0.11095  -0.10143
 Alpha virt. eigenvalues --   -0.05458  -0.04905  -0.04070  -0.03370  -0.02731
 Alpha virt. eigenvalues --   -0.02551  -0.02091  -0.01168  -0.00617  -0.00261

 Mulliken charges:
               1
     1  N   -0.684530
     2  H    0.321932
     3  H    0.315723
     4  C   -0.088689
     5  H    0.150910
     6  C    0.626301
     7  C   -0.275990
     8  H    0.167209
     9  H    0.156864
    10  O   -0.534090
    11  C   -0.328430
    12  H    0.169669
    13  H    0.211455
    14  C    0.560906
    15  O   -0.439351
    16  O   -0.570874
    17  N   -0.600909
    18  H    0.355383
    19  C   -0.066127
    20  H    0.221382
    21  C    0.758324
    22  C   -0.364296
    23  H    0.195312
    24  H    0.188764
    25  O   -0.449668
    26  C    0.120752
    27  C   -0.249905
    28  H    0.159338
    29  C   -0.178890
    30  H    0.143722
    31  C   -0.149101
    32  H    0.172987
    33  C   -0.186526
    34  H    0.149207
    35  O   -0.621917
    36  H    0.421883
    37  C    0.357450
    38  N   -0.627752
    39  H    0.392683
    40  C   -0.040140
    41  H    0.238458
    42  C    0.653081
    43  C   -0.281384
    44  H    0.164728
    45  H    0.188217
    46  O   -0.384238
    47  C   -0.282614
    48  H    0.158496
    49  H    0.180147
    50  C   -0.279141
    51  H    0.170889
    52  H    0.142389
    53  C   -0.143842
    54  H    0.166150
    55  H    0.155253
    56  N   -0.762581
    57  H    0.319323
    58  H    0.331705
    59  O   -0.856337
    60  H    0.394444
    61  H    0.449346
    62  H    0.416544
 Sum of Mulliken charges =   1.00000

 Dipole moment (field-independent basis, Debye):
    X=              8.4462    Y=             10.9476    Z=             -5.4267  Tot=             14.8539
 Quadrupole moment (field-independent basis, Debye-Ang):
   XX=           -116.3486   YY=           -146.5335   ZZ=           -152.8998
   XY=             25.1061   XZ=            -17.9527   YZ=            -10.9039

 Normal termination of Gaussian 16 at Tue May 24 03:30:23 2022.
