 Gaussian 16, Revision C.01,
 Gaussian 16:  ES64L-G16RevC.01  3-Jul-2019

 -------------------------------------------------------------------
 # B3LYP/6-31G* guess=read geom=check nosymm integral(ultrafinegrid)
 -------------------------------------------------------------------

 ------------------------------------------------------
 Candidate Structure: Conf:353 Charge calc in gas phase
 ------------------------------------------------------
 Structure from the checkpoint file:  "conf-353.chk"
 Charge =  1 Multiplicity = 1

                          Input orientation:
 ---------------------------------------------------------------------
 Center     Atomic      Atomic             Coordinates (Angstroms)
 Number     Number       Type             X           Y           Z
 ---------------------------------------------------------------------
      1          7           0        0.301407   -4.446549    2.507757
      2          1           0        0.015563   -4.981296    1.688271
      3          1           0        1.316104   -4.377716    2.451478
      4          6           0       -0.274734   -3.108293    2.476843
      5          1           0        0.093849   -2.592852    3.376743
      6          6           0        0.285680   -2.250991    1.318358
      7          6           0       -1.806496   -3.165762    2.621862
      8          1           0       -2.199667   -2.155329    2.775575
      9          1           0       -1.989494   -3.712844    3.549959
     10          8           0        1.459246   -2.386264    0.950648
     11          6           0       -2.588417   -3.862075    1.479199
     12          1           0       -3.189131   -4.694306    1.852958
     13          1           0       -1.912864   -4.302423    0.731048
     14          6           0       -3.497622   -2.924539    0.712923
     15          8           0       -3.272636   -1.738945    0.506311
     16          8           0       -4.588163   -3.536429    0.244596
     17          7           0       -0.476413   -1.258669    0.773568
     18          1           0       -1.498607   -1.284343    0.859684
     19          6           0        0.035170   -0.581496   -0.418518
     20          1           0       -0.463561    0.393688   -0.478455
     21          6           0        1.493546   -0.263789   -0.186439
     22          6           0       -0.233945   -1.346432   -1.742827
     23          1           0        0.419735   -2.222352   -1.790742
     24          1           0       -1.263390   -1.712805   -1.657397
     25          8           0        2.414360   -0.575534   -1.074237
     26          6           0       -0.095852   -0.483442   -2.981292
     27          6           0       -1.067793    0.486820   -3.278249
     28          1           0       -1.938368    0.593129   -2.633460
     29          6           0        0.992403   -0.609627   -3.852161
     30          1           0        1.756697   -1.356840   -3.658625
     31          6           0       -0.956368    1.313366   -4.389835
     32          1           0       -1.714956    2.053834   -4.621720
     33          6           0        1.122771    0.215454   -4.972572
     34          1           0        1.972612    0.092317   -5.640704
     35          8           0        0.202431    2.015575   -6.318291
     36          1           0        0.961536    1.786959   -6.878239
     37          6           0        0.144868    1.180422   -5.248043
     38          7           0        1.952014    0.496529    0.777854
     39          1           0        1.377681    0.823992    1.544010
     40          6           0        3.391883    0.731016    0.650991
     41          1           0        3.576775    1.802619    0.518716
     42          6           0        3.662523    0.030718   -0.670820
     43          6           0        4.231724    0.153693    1.805774
     44          1           0        3.981920   -0.907529    1.923610
     45          1           0        5.280493    0.208111    1.490380
     46          8           0        4.645792   -0.106713   -1.310842
     47          6           0        4.037315    0.906977    3.128769
     48          1           0        2.977623    0.879512    3.426944
     49          1           0        4.292940    1.966631    2.986353
     50          6           0        4.884071    0.312635    4.261505
     51          1           0        4.618108   -0.739146    4.422935
     52          1           0        5.942962    0.324215    3.964924
     53          6           0        4.722923    1.058863    5.590156
     54          1           0        4.992287    2.122088    5.444204
     55          1           0        3.665075    1.044307    5.884363
     56          7           0        5.482021    0.379335    6.640090
     57          1           0        5.280702    0.798921    7.545615
     58          1           0        6.481602    0.505987    6.486526
     59          8           0        1.879856    2.049304   -1.853916
     60          1           0        1.794236    2.998603   -2.030312
     61          1           0        1.763555    1.631692   -2.724311
     62          1           0       -5.110570   -2.881000   -0.258166
 ---------------------------------------------------------------------

 SCF Done:  E(RB3LYP) =  -1526.17090927     A.U. after    1 cycles

 Alpha  occ. eigenvalues --  -19.36859 -19.31241 -19.30108 -19.27124 -19.26349
 Alpha  occ. eigenvalues --  -19.25901 -19.25311 -14.54821 -14.48908 -14.41645
 Alpha  occ. eigenvalues --  -14.38264 -10.48798 -10.47331 -10.44286 -10.41274
 Alpha  occ. eigenvalues --  -10.39430 -10.38788 -10.34920 -10.34018 -10.31879
 Alpha  occ. eigenvalues --  -10.31564 -10.31405 -10.30357 -10.29872 -10.29606
 Alpha  occ. eigenvalues --  -10.29321 -10.29249 -10.28922 -10.28717 -10.28319
 Alpha  occ. eigenvalues --  -10.27136  -1.29449  -1.22530  -1.20612  -1.17062
 Alpha  occ. eigenvalues --   -1.15359  -1.13390  -1.11716  -1.11504  -1.05645
 Alpha  occ. eigenvalues --   -0.99595  -0.95970  -0.95425  -0.94819  -0.91330
 Alpha  occ. eigenvalues --   -0.90006  -0.87962  -0.85059  -0.84734  -0.82820
 Alpha  occ. eigenvalues --   -0.80964  -0.80090  -0.77985  -0.76435  -0.75519
 Alpha  occ. eigenvalues --   -0.72669  -0.72116  -0.71543  -0.70164  -0.69269
 Alpha  occ. eigenvalues --   -0.67741  -0.67171  -0.65888  -0.64214  -0.63827
 Alpha  occ. eigenvalues --   -0.63562  -0.62407  -0.62049  -0.61091  -0.60405
 Alpha  occ. eigenvalues --   -0.59677  -0.58944  -0.58476  -0.57915  -0.57652
 Alpha  occ. eigenvalues --   -0.57265  -0.56367  -0.56221  -0.55700  -0.55641
 Alpha  occ. eigenvalues --   -0.54620  -0.53841  -0.53651  -0.53292  -0.52859
 Alpha  occ. eigenvalues --   -0.52484  -0.52295  -0.51947  -0.51154  -0.50857
 Alpha  occ. eigenvalues --   -0.50523  -0.50239  -0.50072  -0.49374  -0.48248
 Alpha  occ. eigenvalues --   -0.47238  -0.47185  -0.46853  -0.46176  -0.45999
 Alpha  occ. eigenvalues --   -0.45534  -0.44993  -0.43821  -0.43566  -0.43521
 Alpha  occ. eigenvalues --   -0.43371  -0.42870  -0.42414  -0.41949  -0.41232
 Alpha  occ. eigenvalues --   -0.40428  -0.39139  -0.38588  -0.35307  -0.34270
 Alpha  occ. eigenvalues --   -0.31742  -0.30556
 Alpha virt. eigenvalues --   -0.18203  -0.13047  -0.11724  -0.10839  -0.10345
 Alpha virt. eigenvalues --   -0.09031  -0.06748  -0.04559  -0.03243  -0.01909
 Alpha virt. eigenvalues --   -0.01788  -0.01372  -0.00968  -0.00521  -0.00080

 Mulliken charges:
               1
     1  N   -0.685663
     2  H    0.306664
     3  H    0.327875
     4  C   -0.091118
     5  H    0.185105
     6  C    0.592012
     7  C   -0.295435
     8  H    0.166816
     9  H    0.200493
    10  O   -0.529113
    11  C   -0.370683
    12  H    0.215595
    13  H    0.186052
    14  C    0.593529
    15  O   -0.490690
    16  O   -0.529305
    17  N   -0.650712
    18  H    0.403992
    19  C   -0.059226
    20  H    0.213845
    21  C    0.756666
    22  C   -0.373121
    23  H    0.189022
    24  H    0.177368
    25  O   -0.455768
    26  C    0.154019
    27  C   -0.188739
    28  H    0.139564
    29  C   -0.205471
    30  H    0.155736
    31  C   -0.160993
    32  H    0.165720
    33  C   -0.217010
    34  H    0.149187
    35  O   -0.623745
    36  H    0.420811
    37  C    0.351340
    38  N   -0.577838
    39  H    0.383137
    40  C   -0.057219
    41  H    0.236674
    42  C    0.642838
    43  C   -0.274356
    44  H    0.184829
    45  H    0.195509
    46  O   -0.369027
    47  C   -0.279704
    48  H    0.121716
    49  H    0.152735
    50  C   -0.252319
    51  H    0.161134
    52  H    0.144786
    53  C   -0.134870
    54  H    0.120975
    55  H    0.138345
    56  N   -0.714914
    57  H    0.309617
    58  H    0.302209
    59  O   -0.821988
    60  H    0.412178
    61  H    0.420270
    62  H    0.430662
 Sum of Mulliken charges =   1.00000

 Dipole moment (field-independent basis, Debye):
    X=              3.0708    Y=              0.5558    Z=              0.7061  Tot=              3.1996
 Quadrupole moment (field-independent basis, Debye-Ang):
   XX=           -133.1370   YY=           -156.8581   ZZ=           -130.1991
   XY=             30.4824   XZ=              9.3367   YZ=              4.1962

 Normal termination of Gaussian 16 at Tue May 24 03:30:10 2022.
