 Gaussian 16, Revision C.01,
 Gaussian 16:  ES64L-G16RevC.01  3-Jul-2019

 -------------------------------------------------------------------
 # B3LYP/6-31G* guess=read geom=check nosymm integral(ultrafinegrid)
 -------------------------------------------------------------------

 ------------------------------------------------------
 Candidate Structure: Conf:553 Charge calc in gas phase
 ------------------------------------------------------
 Structure from the checkpoint file:  "conf-553.chk"
 Charge =  1 Multiplicity = 1

                          Input orientation:
 ---------------------------------------------------------------------
 Center     Atomic      Atomic             Coordinates (Angstroms)
 Number     Number       Type             X           Y           Z
 ---------------------------------------------------------------------
      1          7           0        0.640035   -3.120418    2.878395
      2          1           0        0.377469   -3.776070    3.610434
      3          1           0        1.078002   -3.651797    2.127723
      4          6           0       -0.537682   -2.426649    2.365679
      5          1           0       -0.982132   -1.874548    3.205578
      6          6           0       -0.035050   -1.427974    1.322692
      7          6           0       -1.641801   -3.285445    1.701327
      8          1           0       -1.212575   -3.800029    0.832771
      9          1           0       -2.431510   -2.631547    1.317113
     10          8           0        0.770936   -1.779453    0.449505
     11          6           0       -2.281330   -4.305977    2.643067
     12          1           0       -2.628100   -3.829665    3.571602
     13          1           0       -1.580359   -5.090783    2.947993
     14          6           0       -3.490052   -4.964582    2.000293
     15          8           0       -4.035376   -4.588673    0.985228
     16          8           0       -3.906052   -6.029301    2.715561
     17          7           0       -0.518462   -0.156916    1.401811
     18          1           0       -1.204967    0.031082    2.120410
     19          6           0       -0.405789    0.874100    0.364349
     20          1           0       -0.883548    1.767988    0.771714
     21          6           0        1.022465    1.268599    0.098248
     22          6           0       -1.124838    0.517248   -0.983570
     23          1           0       -0.905633    1.325973   -1.689873
     24          1           0       -0.666963   -0.393801   -1.379731
     25          8           0        1.322571    2.550524   -0.020770
     26          6           0       -2.609879    0.328567   -0.783546
     27          6           0       -3.172206   -0.956751   -0.753531
     28          1           0       -2.540223   -1.825053   -0.920668
     29          6           0       -3.462167    1.425732   -0.601422
     30          1           0       -3.064709    2.438581   -0.640498
     31          6           0       -4.531112   -1.152665   -0.532328
     32          1           0       -4.952309   -2.152052   -0.498172
     33          6           0       -4.827192    1.249047   -0.385428
     34          1           0       -5.474140    2.114129   -0.255990
     35          8           0       -6.686397   -0.288440   -0.131951
     36          1           0       -7.169297    0.548961   -0.046722
     37          6           0       -5.367303   -0.043957   -0.345288
     38          7           0        2.031892    0.473649   -0.093033
     39          1           0        1.871517   -0.553223   -0.018976
     40          6           0        3.259762    1.214436   -0.397902
     41          1           0        3.953829    1.118961    0.448542
     42          6           0        2.725988    2.641871   -0.412468
     43          6           0        3.963164    0.767688   -1.695909
     44          1           0        4.075361   -0.322534   -1.639697
     45          1           0        3.305162    0.993028   -2.540231
     46          8           0        3.218603    3.690593   -0.640657
     47          6           0        5.342724    1.417825   -1.873744
     48          1           0        5.964570    1.193608   -0.997026
     49          1           0        5.236326    2.508908   -1.927606
     50          6           0        6.059541    0.896936   -3.125703
     51          1           0        6.147898   -0.195205   -3.061298
     52          1           0        5.463407    1.126663   -4.020308
     53          6           0        7.468515    1.482677   -3.299262
     54          1           0        7.913370    1.034850   -4.194307
     55          1           0        7.393197    2.565813   -3.496821
     56          7           0        8.322955    1.158233   -2.148245
     57          1           0        8.285754    1.901785   -1.454600
     58          1           0        9.295924    1.100403   -2.438466
     59          8           0        1.144869    2.258337   -2.887256
     60          1           0        1.053292    1.848381   -3.761689
     61          1           0        1.130704    3.211947   -3.067160
     62          1           0       -4.693854   -6.387046    2.262789
 ---------------------------------------------------------------------

 SCF Done:  E(RB3LYP) =  -1526.17083834     A.U. after    1 cycles

 Alpha  occ. eigenvalues --  -19.37874 -19.31311 -19.27907 -19.27404 -19.26245
 Alpha  occ. eigenvalues --  -19.26005 -19.22055 -14.54993 -14.50848 -14.41595
 Alpha  occ. eigenvalues --  -14.38425 -10.48664 -10.48364 -10.42556 -10.40337
 Alpha  occ. eigenvalues --  -10.40190 -10.39921 -10.33992 -10.33768 -10.31844
 Alpha  occ. eigenvalues --  -10.31811 -10.29338 -10.29086 -10.28885 -10.28716
 Alpha  occ. eigenvalues --  -10.28437 -10.28367 -10.28318 -10.28152 -10.27193
 Alpha  occ. eigenvalues --  -10.26496  -1.30022  -1.21717  -1.18423  -1.17716
 Alpha  occ. eigenvalues --   -1.14481  -1.13417  -1.12036  -1.09491  -1.07120
 Alpha  occ. eigenvalues --   -0.99396  -0.96233  -0.95231  -0.94733  -0.91523
 Alpha  occ. eigenvalues --   -0.88511  -0.87549  -0.84889  -0.83970  -0.82575
 Alpha  occ. eigenvalues --   -0.80649  -0.79511  -0.77542  -0.76970  -0.73920
 Alpha  occ. eigenvalues --   -0.72592  -0.71965  -0.71320  -0.68861  -0.68349
 Alpha  occ. eigenvalues --   -0.67120  -0.66573  -0.65796  -0.65176  -0.65022
 Alpha  occ. eigenvalues --   -0.63398  -0.62891  -0.61963  -0.60106  -0.59845
 Alpha  occ. eigenvalues --   -0.58913  -0.58489  -0.58224  -0.57035  -0.56734
 Alpha  occ. eigenvalues --   -0.56484  -0.56047  -0.55921  -0.55852  -0.55307
 Alpha  occ. eigenvalues --   -0.54733  -0.54367  -0.53162  -0.53030  -0.52525
 Alpha  occ. eigenvalues --   -0.52397  -0.51634  -0.51197  -0.51151  -0.49781
 Alpha  occ. eigenvalues --   -0.49578  -0.49465  -0.49159  -0.48045  -0.47945
 Alpha  occ. eigenvalues --   -0.47286  -0.46751  -0.46512  -0.46179  -0.45594
 Alpha  occ. eigenvalues --   -0.45039  -0.44376  -0.44042  -0.43201  -0.42894
 Alpha  occ. eigenvalues --   -0.42652  -0.42321  -0.42049  -0.41145  -0.40130
 Alpha  occ. eigenvalues --   -0.39705  -0.39545  -0.35756  -0.34436  -0.33714
 Alpha  occ. eigenvalues --   -0.30955  -0.30769
 Alpha virt. eigenvalues --   -0.19357  -0.14374  -0.11784  -0.09611  -0.08647
 Alpha virt. eigenvalues --   -0.07027  -0.06578  -0.06279  -0.03565  -0.02413
 Alpha virt. eigenvalues --   -0.01497  -0.00909  -0.00173   0.00016   0.00609

 Mulliken charges:
               1
     1  N   -0.712705
     2  H    0.321764
     3  H    0.321683
     4  C   -0.081818
     5  H    0.147874
     6  C    0.669790
     7  C   -0.280637
     8  H    0.169175
     9  H    0.174521
    10  O   -0.571234
    11  C   -0.367789
    12  H    0.185617
    13  H    0.181588
    14  C    0.590765
    15  O   -0.459409
    16  O   -0.557896
    17  N   -0.604540
    18  H    0.366919
    19  C   -0.078717
    20  H    0.212917
    21  C    0.710362
    22  C   -0.384267
    23  H    0.195276
    24  H    0.184673
    25  O   -0.450289
    26  C    0.163008
    27  C   -0.210071
    28  H    0.150773
    29  C   -0.199357
    30  H    0.132843
    31  C   -0.161952
    32  H    0.186406
    33  C   -0.187776
    34  H    0.141990
    35  O   -0.623348
    36  H    0.418450
    37  C    0.356786
    38  N   -0.607419
    39  H    0.435948
    40  C   -0.046788
    41  H    0.243345
    42  C    0.633010
    43  C   -0.276429
    44  H    0.176053
    45  H    0.177683
    46  O   -0.364952
    47  C   -0.288911
    48  H    0.160362
    49  H    0.163276
    50  C   -0.234998
    51  H    0.150043
    52  H    0.129052
    53  C   -0.157069
    54  H    0.155555
    55  H    0.129883
    56  N   -0.721114
    57  H    0.300785
    58  H    0.314841
    59  O   -0.784302
    60  H    0.418297
    61  H    0.419860
    62  H    0.422612
 Sum of Mulliken charges =   1.00000

 Dipole moment (field-independent basis, Debye):
    X=              2.5914    Y=              2.7904    Z=             -0.7490  Tot=              3.8811
 Quadrupole moment (field-independent basis, Debye-Ang):
   XX=           -104.5343   YY=           -145.3312   ZZ=           -147.7640
   XY=             13.8124   XZ=            -29.0417   YZ=            -24.5086

 Normal termination of Gaussian 16 at Tue May 24 03:30:23 2022.
