 Gaussian 16, Revision C.01,
 Gaussian 16:  ES64L-G16RevC.01  3-Jul-2019

 -------------------------------------------------------------------
 # B3LYP/6-31G* guess=read geom=check nosymm integral(ultrafinegrid)
 -------------------------------------------------------------------

 ------------------------------------------------------
 Candidate Structure: Conf:883 Charge calc in gas phase
 ------------------------------------------------------
 Structure from the checkpoint file:  "conf-883.chk"
 Charge =  1 Multiplicity = 1

                          Input orientation:
 ---------------------------------------------------------------------
 Center     Atomic      Atomic             Coordinates (Angstroms)
 Number     Number       Type             X           Y           Z
 ---------------------------------------------------------------------
      1          7           0       -3.330341   -1.469443    3.082111
      2          1           0       -4.242820   -1.902318    3.203855
      3          1           0       -2.851922   -1.553983    3.978996
      4          6           0       -2.565283   -2.173089    2.036732
      5          1           0       -3.279838   -2.458372    1.251963
      6          6           0       -1.608029   -1.176962    1.363732
      7          6           0       -1.833224   -3.438389    2.533213
      8          1           0       -2.521135   -3.971063    3.200412
      9          1           0       -0.973449   -3.150544    3.149293
     10          8           0       -0.678254   -1.501693    0.616296
     11          6           0       -1.370332   -4.393772    1.429500
     12          1           0       -0.731019   -3.872434    0.709115
     13          1           0       -2.218485   -4.789721    0.857470
     14          6           0       -0.584961   -5.558896    1.995100
     15          8           0       -0.158214   -5.636032    3.126359
     16          8           0       -0.389642   -6.520396    1.064548
     17          7           0       -1.845167    0.130512    1.640574
     18          1           0       -2.612417    0.332843    2.277471
     19          6           0       -1.079832    1.151773    0.951244
     20          1           0       -1.191948    2.083079    1.520719
     21          6           0        0.399871    0.779152    1.081175
     22          6           0       -1.622057    1.337077   -0.490452
     23          1           0       -1.578208    0.359553   -0.979836
     24          1           0       -2.686494    1.568863   -0.359495
     25          8           0        0.740432    0.335595    2.256488
     26          6           0       -0.979470    2.382998   -1.383544
     27          6           0       -0.760069    3.708877   -0.964302
     28          1           0       -1.009434    4.010506    0.050729
     29          6           0       -0.667495    2.055946   -2.712038
     30          1           0       -0.845913    1.045286   -3.072165
     31          6           0       -0.243508    4.665107   -1.829901
     32          1           0       -0.070556    5.684736   -1.503158
     33          6           0       -0.161756    3.008825   -3.596675
     34          1           0        0.058686    2.733065   -4.625585
     35          8           0        0.556456    5.296569   -3.958749
     36          1           0        0.608247    4.979162   -4.875099
     37          6           0        0.050401    4.317919   -3.155773
     38          7           0        1.271523    1.021572    0.125207
     39          1           0        0.870558    1.474744   -0.699297
     40          6           0        2.607526    0.412152   -0.121112
     41          1           0        2.449693   -0.675551   -0.143276
     42          6           0        3.703952    0.644399    0.924516
     43          6           0        3.116140    0.884416   -1.501080
     44          1           0        3.989750    0.270532   -1.739439
     45          1           0        2.346556    0.640579   -2.245041
     46          8           0        4.860864    0.398275    0.730139
     47          6           0        3.485033    2.374458   -1.551272
     48          1           0        4.306824    2.561582   -0.847943
     49          1           0        2.651629    3.007444   -1.224883
     50          6           0        3.923352    2.833855   -2.947812
     51          1           0        4.711362    2.172600   -3.333081
     52          1           0        3.076277    2.744890   -3.644194
     53          6           0        4.450732    4.275810   -2.956309
     54          1           0        5.335847    4.328640   -2.309899
     55          1           0        4.796065    4.517971   -3.976386
     56          7           0        3.455244    5.213342   -2.422853
     57          1           0        2.720359    5.380081   -3.109560
     58          1           0        3.891881    6.117217   -2.252317
     59          8           0        3.240332    1.098215    2.131748
     60          1           0        1.716342    0.410475    2.407091
     61          1           0        4.004857    1.166749    2.739953
     62          1           0        0.130932   -7.224556    1.496308
 ---------------------------------------------------------------------

 SCF Done:  E(RB3LYP) =  -1526.18601042     A.U. after    1 cycles

 Alpha  occ. eigenvalues --  -19.35666 -19.35250 -19.28762 -19.28549 -19.26470
 Alpha  occ. eigenvalues --  -19.23913 -19.20973 -14.54271 -14.47973 -14.43325
 Alpha  occ. eigenvalues --  -14.38538 -10.48551 -10.47028 -10.40268 -10.39611
 Alpha  occ. eigenvalues --  -10.39228 -10.38866 -10.36096 -10.33559 -10.31952
 Alpha  occ. eigenvalues --  -10.31411 -10.31079 -10.30728 -10.30632 -10.30099
 Alpha  occ. eigenvalues --  -10.29577 -10.28616 -10.28303 -10.28226 -10.27860
 Alpha  occ. eigenvalues --  -10.27097  -1.26655  -1.25147  -1.17415  -1.16791
 Alpha  occ. eigenvalues --   -1.16783  -1.15685  -1.11328  -1.08475  -1.05234
 Alpha  occ. eigenvalues --   -1.00168  -0.96908  -0.95551  -0.94530  -0.90731
 Alpha  occ. eigenvalues --   -0.87988  -0.87312  -0.86186  -0.85844  -0.81358
 Alpha  occ. eigenvalues --   -0.81004  -0.80676  -0.77231  -0.76329  -0.74043
 Alpha  occ. eigenvalues --   -0.73757  -0.72834  -0.71680  -0.70542  -0.69922
 Alpha  occ. eigenvalues --   -0.67374  -0.67024  -0.66385  -0.65666  -0.64888
 Alpha  occ. eigenvalues --   -0.63974  -0.63004  -0.60691  -0.60482  -0.59780
 Alpha  occ. eigenvalues --   -0.58475  -0.58170  -0.57760  -0.57280  -0.57027
 Alpha  occ. eigenvalues --   -0.56705  -0.56452  -0.55810  -0.55488  -0.54969
 Alpha  occ. eigenvalues --   -0.54898  -0.54398  -0.53886  -0.53268  -0.53077
 Alpha  occ. eigenvalues --   -0.52910  -0.51927  -0.51869  -0.51446  -0.50662
 Alpha  occ. eigenvalues --   -0.50353  -0.50088  -0.48373  -0.48035  -0.47999
 Alpha  occ. eigenvalues --   -0.47613  -0.47149  -0.46970  -0.46126  -0.45817
 Alpha  occ. eigenvalues --   -0.45393  -0.44746  -0.44247  -0.43972  -0.43912
 Alpha  occ. eigenvalues --   -0.43344  -0.42781  -0.41762  -0.41470  -0.38772
 Alpha  occ. eigenvalues --   -0.38182  -0.38079  -0.36495  -0.35422  -0.34462
 Alpha  occ. eigenvalues --   -0.33268  -0.30963
 Alpha virt. eigenvalues --   -0.17113  -0.13725  -0.11802  -0.10947  -0.09552
 Alpha virt. eigenvalues --   -0.06701  -0.05900  -0.03772  -0.03410  -0.02481
 Alpha virt. eigenvalues --   -0.02406  -0.00890  -0.00800  -0.00356   0.00713

 Mulliken charges:
               1
     1  N   -0.758908
     2  H    0.334607
     3  H    0.326033
     4  C   -0.082410
     5  H    0.183818
     6  C    0.643206
     7  C   -0.271488
     8  H    0.163177
     9  H    0.167034
    10  O   -0.552580
    11  C   -0.372636
    12  H    0.212598
    13  H    0.177553
    14  C    0.582193
    15  O   -0.459205
    16  O   -0.564558
    17  N   -0.590174
    18  H    0.377729
    19  C   -0.039385
    20  H    0.206454
    21  C    0.662232
    22  C   -0.352557
    23  H    0.191246
    24  H    0.193570
    25  O   -0.550915
    26  C    0.066977
    27  C   -0.184986
    28  H    0.142600
    29  C   -0.199586
    30  H    0.155380
    31  C   -0.134318
    32  H    0.173703
    33  C   -0.181351
    34  H    0.151024
    35  O   -0.634099
    36  H    0.423796
    37  C    0.363522
    38  N   -0.615635
    39  H    0.403351
    40  C   -0.075270
    41  H    0.242561
    42  C    0.631589
    43  C   -0.319863
    44  H    0.201105
    45  H    0.164554
    46  O   -0.397782
    47  C   -0.275268
    48  H    0.156645
    49  H    0.167734
    50  C   -0.259904
    51  H    0.147446
    52  H    0.124380
    53  C   -0.147317
    54  H    0.148314
    55  H    0.131843
    56  N   -0.745296
    57  H    0.314382
    58  H    0.308228
    59  O   -0.618102
    60  H    0.472044
    61  H    0.453129
    62  H    0.417834
 Sum of Mulliken charges =   1.00000

 Dipole moment (field-independent basis, Debye):
    X=              1.1979    Y=              5.4310    Z=             -0.0489  Tot=              5.5618
 Quadrupole moment (field-independent basis, Debye-Ang):
   XX=           -142.4496   YY=           -140.0439   ZZ=           -134.2295
   XY=             20.8568   XZ=            -12.3143   YZ=            -17.8107

 Normal termination of Gaussian 16 at Tue May 24 03:29:53 2022.
