 Gaussian 16, Revision C.01,
 Gaussian 16:  ES64L-G16RevC.01  3-Jul-2019

 -------------------------------------------------------------------
 # B3LYP/6-31G* guess=read geom=check nosymm integral(ultrafinegrid)
 -------------------------------------------------------------------

 ------------------------------------------------------
 Candidate Structure: Conf:746 Charge calc in gas phase
 ------------------------------------------------------
 Structure from the checkpoint file:  "conf-746.chk"
 Charge =  1 Multiplicity = 1

                          Input orientation:
 ---------------------------------------------------------------------
 Center     Atomic      Atomic             Coordinates (Angstroms)
 Number     Number       Type             X           Y           Z
 ---------------------------------------------------------------------
      1          7           0        0.492003   -3.732395    3.219492
      2          1           0        0.944466   -4.031064    2.355715
      3          1           0        1.223867   -3.321933    3.796188
      4          6           0       -0.526156   -2.743491    2.903184
      5          1           0       -0.852606   -2.279311    3.844393
      6          6           0       -0.012645   -1.638288    1.966572
      7          6           0       -1.745463   -3.418784    2.234516
      8          1           0       -1.422221   -3.885390    1.296170
      9          1           0       -2.488190   -2.662257    1.954869
     10          8           0        0.920304   -1.806558    1.180406
     11          6           0       -2.395825   -4.472639    3.130250
     12          1           0       -2.765347   -4.033068    4.066327
     13          1           0       -1.663573   -5.230179    3.428233
     14          6           0       -3.558717   -5.151704    2.438155
     15          8           0       -3.943752   -4.912891    1.313903
     16          8           0       -4.135546   -6.076743    3.236481
     17          7           0       -0.646735   -0.424446    2.008917
     18          1           0       -1.424288   -0.263381    2.634028
     19          6           0       -0.340333    0.564960    0.987619
     20          1           0       -0.762769    1.521087    1.324008
     21          6           0        1.174495    0.796069    0.994793
     22          6           0       -0.998164    0.149048   -0.362952
     23          1           0       -0.714206   -0.890487   -0.543456
     24          1           0       -2.075583    0.148345   -0.155448
     25          8           0        1.722226    0.720972    2.173830
     26          6           0       -0.697025    0.966489   -1.602096
     27          6           0       -0.197911    0.321437   -2.749625
     28          1           0       -0.043075   -0.755103   -2.729337
     29          6           0       -0.927102    2.351513   -1.676216
     30          1           0       -1.362116    2.878763   -0.828612
     31          6           0        0.107472    1.028784   -3.906794
     32          1           0        0.501026    0.526879   -4.784970
     33          6           0       -0.611256    3.073126   -2.824464
     34          1           0       -0.801933    4.141396   -2.869068
     35          8           0        0.333642    3.084981   -5.048441
     36          1           0        0.736366    3.970210   -4.781885
     37          6           0       -0.058464    2.423257   -3.946865
     38          7           0        1.822418    1.199665   -0.076428
     39          1           0        1.254012    1.237318   -0.930973
     40          6           0        3.289450    1.389475   -0.254794
     41          1           0        3.759969    0.423896   -0.035886
     42          6           0        3.856762    2.403647    0.760671
     43          6           0        3.608927    1.766858   -1.717215
     44          1           0        4.697137    1.681419   -1.824221
     45          1           0        3.182485    0.974458   -2.346651
     46          8           0        4.007205    3.584536    0.621199
     47          6           0        3.152696    3.146913   -2.229485
     48          1           0        3.665784    3.930078   -1.664953
     49          1           0        2.077327    3.275887   -2.052011
     50          6           0        3.453159    3.306556   -3.730498
     51          1           0        4.502707    3.040527   -3.916714
     52          1           0        2.840491    2.611283   -4.315208
     53          6           0        3.249556    4.728171   -4.271280
     54          1           0        3.938208    5.420417   -3.763676
     55          1           0        3.512273    4.735296   -5.333620
     56          7           0        1.843493    5.192587   -4.170187
     57          1           0        1.734280    6.052093   -4.708044
     58          1           0        1.629005    5.444089   -3.205672
     59          8           0        4.200237    1.749837    1.920263
     60          1           0        2.690632    0.923166    2.199167
     61          1           0        4.559888    2.409132    2.549126
     62          1           0       -4.867463   -6.470931    2.724726
 ---------------------------------------------------------------------

 SCF Done:  E(RB3LYP) =  -1526.18807828     A.U. after    2 cycles

 Alpha  occ. eigenvalues --  -19.36375 -19.36343 -19.30313 -19.25845 -19.24301
 Alpha  occ. eigenvalues --  -19.23708 -19.20414 -14.55233 -14.49212 -14.44162
 Alpha  occ. eigenvalues --  -14.40841 -10.49394 -10.48220 -10.40615 -10.40402
 Alpha  occ. eigenvalues --  -10.39496 -10.38665 -10.34412 -10.32806 -10.32758
 Alpha  occ. eigenvalues --  -10.31800 -10.31399 -10.30281 -10.30147 -10.29722
 Alpha  occ. eigenvalues --  -10.29645 -10.28870 -10.28497 -10.28285 -10.28108
 Alpha  occ. eigenvalues --  -10.27328  -1.27533  -1.26112  -1.18015  -1.16831
 Alpha  occ. eigenvalues --   -1.16172  -1.12687  -1.12200  -1.07895  -1.05711
 Alpha  occ. eigenvalues --   -0.99734  -0.98678  -0.96286  -0.95289  -0.90999
 Alpha  occ. eigenvalues --   -0.88637  -0.87324  -0.85990  -0.85029  -0.82831
 Alpha  occ. eigenvalues --   -0.81591  -0.80079  -0.78172  -0.76424  -0.74351
 Alpha  occ. eigenvalues --   -0.74058  -0.72288  -0.71892  -0.70816  -0.69217
 Alpha  occ. eigenvalues --   -0.68767  -0.67155  -0.65765  -0.65644  -0.64813
 Alpha  occ. eigenvalues --   -0.63619  -0.63350  -0.61677  -0.60606  -0.60056
 Alpha  occ. eigenvalues --   -0.59365  -0.59042  -0.58830  -0.58225  -0.57670
 Alpha  occ. eigenvalues --   -0.56902  -0.56525  -0.56002  -0.55880  -0.55266
 Alpha  occ. eigenvalues --   -0.54889  -0.54605  -0.54206  -0.53976  -0.53315
 Alpha  occ. eigenvalues --   -0.52901  -0.52234  -0.51364  -0.51313  -0.50725
 Alpha  occ. eigenvalues --   -0.50053  -0.49410  -0.49211  -0.49124  -0.48439
 Alpha  occ. eigenvalues --   -0.47758  -0.47473  -0.47099  -0.46106  -0.45749
 Alpha  occ. eigenvalues --   -0.45341  -0.45265  -0.44466  -0.43804  -0.43588
 Alpha  occ. eigenvalues --   -0.43436  -0.42990  -0.42024  -0.40390  -0.38725
 Alpha  occ. eigenvalues --   -0.38175  -0.38068  -0.36496  -0.35733  -0.34170
 Alpha  occ. eigenvalues --   -0.33394  -0.31626
 Alpha virt. eigenvalues --   -0.17454  -0.16100  -0.11032  -0.10382  -0.09574
 Alpha virt. eigenvalues --   -0.07585  -0.05381  -0.05037  -0.03781  -0.03315
 Alpha virt. eigenvalues --   -0.02441  -0.01570  -0.00842  -0.00377   0.00628

 Mulliken charges:
               1
     1  N   -0.686129
     2  H    0.320068
     3  H    0.310695
     4  C   -0.093774
     5  H    0.148970
     6  C    0.622351
     7  C   -0.259334
     8  H    0.172450
     9  H    0.147178
    10  O   -0.536857
    11  C   -0.353256
    12  H    0.175229
    13  H    0.217106
    14  C    0.582347
    15  O   -0.463341
    16  O   -0.561947
    17  N   -0.592497
    18  H    0.352953
    19  C   -0.062975
    20  H    0.207136
    21  C    0.670792
    22  C   -0.341627
    23  H    0.199595
    24  H    0.187752
    25  O   -0.556915
    26  C    0.045793
    27  C   -0.193741
    28  H    0.155785
    29  C   -0.182628
    30  H    0.134650
    31  C   -0.161103
    32  H    0.165265
    33  C   -0.192115
    34  H    0.146580
    35  O   -0.674745
    36  H    0.463334
    37  C    0.374449
    38  N   -0.612300
    39  H    0.412954
    40  C   -0.056992
    41  H    0.228480
    42  C    0.584490
    43  C   -0.323638
    44  H    0.185324
    45  H    0.181230
    46  O   -0.385338
    47  C   -0.294969
    48  H    0.181028
    49  H    0.143783
    50  C   -0.272814
    51  H    0.152005
    52  H    0.171538
    53  C   -0.150161
    54  H    0.151006
    55  H    0.176054
    56  N   -0.775695
    57  H    0.340938
    58  H    0.325274
    59  O   -0.594175
    60  H    0.475968
    61  H    0.450561
    62  H    0.417958
 Sum of Mulliken charges =   1.00000

 Dipole moment (field-independent basis, Debye):
    X=              8.4948    Y=              8.8147    Z=              2.9428  Tot=             12.5905
 Quadrupole moment (field-independent basis, Debye-Ang):
   XX=           -132.8593   YY=           -129.6172   ZZ=           -147.9131
   XY=             29.6940   XZ=            -14.3709   YZ=            -22.7679

 Normal termination of Gaussian 16 at Tue May 24 03:30:41 2022.
