 Gaussian 16, Revision C.01,
 Gaussian 16:  ES64L-G16RevC.01  3-Jul-2019

 -------------------------------------------------------------------
 # B3LYP/6-31G* guess=read geom=check nosymm integral(ultrafinegrid)
 -------------------------------------------------------------------

 ------------------------------------------------------
 Candidate Structure: Conf:817 Charge calc in gas phase
 ------------------------------------------------------
 Structure from the checkpoint file:  "conf-817.chk"
 Charge =  1 Multiplicity = 1

                          Input orientation:
 ---------------------------------------------------------------------
 Center     Atomic      Atomic             Coordinates (Angstroms)
 Number     Number       Type             X           Y           Z
 ---------------------------------------------------------------------
      1          7           0        0.253267    1.652459    3.604815
      2          1           0        1.135874    1.143808    3.642563
      3          1           0        0.479661    2.602144    3.316714
      4          6           0       -0.633901    1.018434    2.641766
      5          1           0       -1.483581    1.688838    2.472296
      6          6           0        0.047056    0.767504    1.282537
      7          6           0       -1.160568   -0.295527    3.270128
      8          1           0       -1.585340   -0.017335    4.239135
      9          1           0       -0.307550   -0.953134    3.476572
     10          8           0        1.261845    0.567724    1.173445
     11          6           0       -2.194312   -1.108007    2.454914
     12          1           0       -2.523061   -1.959671    3.055188
     13          1           0       -1.739744   -1.499796    1.539243
     14          6           0       -3.398983   -0.288456    2.048237
     15          8           0       -3.415947    0.513980    1.122273
     16          8           0       -4.464121   -0.499443    2.825992
     17          7           0       -0.735773    0.829406    0.165231
     18          1           0       -1.755902    0.816974    0.284208
     19          6           0       -0.177016    0.383840   -1.108374
     20          1           0       -0.753388    0.867576   -1.906711
     21          6           0        1.216683    0.957849   -1.229528
     22          6           0       -0.232147   -1.152196   -1.332471
     23          1           0        0.492975   -1.637093   -0.672051
     24          1           0       -1.230054   -1.459396   -0.997492
     25          8           0        2.250623    0.199333   -1.522082
     26          6           0       -0.027268   -1.563871   -2.776931
     27          6           0       -1.030153   -1.321755   -3.730804
     28          1           0       -1.970293   -0.867215   -3.423288
     29          6           0        1.153005   -2.180127   -3.208029
     30          1           0        1.944493   -2.392599   -2.495055
     31          6           0       -0.862192   -1.662835   -5.067364
     32          1           0       -1.644064   -1.484916   -5.798433
     33          6           0        1.340995   -2.526403   -4.548748
     34          1           0        2.263145   -3.013538   -4.858709
     35          8           0        0.439830   -2.581940   -6.803253
     36          1           0        1.266660   -3.064107   -6.964426
     37          6           0        0.330310   -2.271420   -5.485362
     38          7           0        1.504259    2.236073   -1.243670
     39          1           0        0.826260    2.956332   -1.027709
     40          6           0        2.926839    2.477481   -1.495399
     41          1           0        3.044335    3.052896   -2.419913
     42          6           0        3.394592    1.052917   -1.758561
     43          6           0        3.647459    3.160436   -0.312716
     44          1           0        3.110452    4.096771   -0.107611
     45          1           0        3.535562    2.526553    0.573386
     46          8           0        4.441570    0.592829   -2.055066
     47          6           0        5.123788    3.470872   -0.609337
     48          1           0        5.182915    4.058343   -1.535575
     49          1           0        5.666196    2.537327   -0.800290
     50          6           0        5.818434    4.245584    0.524941
     51          1           0        6.818237    4.534593    0.175146
     52          1           0        5.278390    5.184673    0.718147
     53          6           0        5.969216    3.460603    1.843180
     54          1           0        4.980364    3.203500    2.245937
     55          1           0        6.472840    2.506198    1.638390
     56          7           0        6.707690    4.132754    2.908466
     57          1           0        6.274065    5.026535    3.134987
     58          1           0        7.656819    4.342881    2.603546
     59          8           0        1.614665    1.119232   -4.079541
     60          1           0        1.485021    1.553502   -4.936428
     61          1           0        1.624243    0.169996   -4.290345
     62          1           0       -5.185402    0.082202    2.513839
 ---------------------------------------------------------------------

 SCF Done:  E(RB3LYP) =  -1526.17282125     A.U. after    3 cycles

 Alpha  occ. eigenvalues --  -19.37165 -19.30934 -19.30486 -19.27295 -19.26107
 Alpha  occ. eigenvalues --  -19.25910 -19.25458 -14.55226 -14.48983 -14.41740
 Alpha  occ. eigenvalues --  -14.38222 -10.49087 -10.47732 -10.43866 -10.41200
 Alpha  occ. eigenvalues --  -10.39862 -10.39171 -10.35117 -10.33767 -10.32309
 Alpha  occ. eigenvalues --  -10.31776 -10.31085 -10.30355 -10.29840 -10.29533
 Alpha  occ. eigenvalues --  -10.29479 -10.29110 -10.29080 -10.28550 -10.28505
 Alpha  occ. eigenvalues --  -10.27023  -1.29786  -1.22137  -1.20979  -1.17098
 Alpha  occ. eigenvalues --   -1.15539  -1.12937  -1.12062  -1.11714  -1.05825
 Alpha  occ. eigenvalues --   -0.99616  -0.96205  -0.95464  -0.94948  -0.91505
 Alpha  occ. eigenvalues --   -0.90128  -0.87842  -0.85056  -0.84871  -0.82203
 Alpha  occ. eigenvalues --   -0.80860  -0.80317  -0.78222  -0.76687  -0.75097
 Alpha  occ. eigenvalues --   -0.72933  -0.72502  -0.71576  -0.70465  -0.69499
 Alpha  occ. eigenvalues --   -0.67965  -0.66755  -0.66242  -0.64464  -0.64182
 Alpha  occ. eigenvalues --   -0.63793  -0.62577  -0.61944  -0.60785  -0.60409
 Alpha  occ. eigenvalues --   -0.59453  -0.59323  -0.58537  -0.58210  -0.57886
 Alpha  occ. eigenvalues --   -0.57125  -0.56401  -0.55957  -0.55580  -0.55305
 Alpha  occ. eigenvalues --   -0.55033  -0.54454  -0.54028  -0.53411  -0.52790
 Alpha  occ. eigenvalues --   -0.52562  -0.52153  -0.51353  -0.50995  -0.50677
 Alpha  occ. eigenvalues --   -0.50411  -0.50247  -0.49697  -0.49585  -0.48709
 Alpha  occ. eigenvalues --   -0.47498  -0.47272  -0.46740  -0.46375  -0.46215
 Alpha  occ. eigenvalues --   -0.46020  -0.45340  -0.44176  -0.43612  -0.43528
 Alpha  occ. eigenvalues --   -0.43093  -0.43022  -0.42342  -0.41582  -0.41438
 Alpha  occ. eigenvalues --   -0.40105  -0.38970  -0.38536  -0.35500  -0.34315
 Alpha  occ. eigenvalues --   -0.31942  -0.30269
 Alpha virt. eigenvalues --   -0.18600  -0.13425  -0.11356  -0.11000  -0.10534
 Alpha virt. eigenvalues --   -0.09230  -0.06778  -0.04631  -0.03072  -0.02747
 Alpha virt. eigenvalues --   -0.02029  -0.01748  -0.01154  -0.00862   0.00053

 Mulliken charges:
               1
     1  N   -0.684283
     2  H    0.321848
     3  H    0.307357
     4  C   -0.095998
     5  H    0.170434
     6  C    0.590998
     7  C   -0.271084
     8  H    0.200789
     9  H    0.174642
    10  O   -0.532806
    11  C   -0.369917
    12  H    0.204445
    13  H    0.174129
    14  C    0.600580
    15  O   -0.493773
    16  O   -0.527990
    17  N   -0.642292
    18  H    0.399355
    19  C   -0.056830
    20  H    0.213388
    21  C    0.755192
    22  C   -0.375302
    23  H    0.191124
    24  H    0.178975
    25  O   -0.454410
    26  C    0.154803
    27  C   -0.186539
    28  H    0.137512
    29  C   -0.203707
    30  H    0.156145
    31  C   -0.161034
    32  H    0.167098
    33  C   -0.217637
    34  H    0.149890
    35  O   -0.623021
    36  H    0.421217
    37  C    0.351415
    38  N   -0.582760
    39  H    0.381454
    40  C   -0.048992
    41  H    0.237585
    42  C    0.644379
    43  C   -0.280534
    44  H    0.160716
    45  H    0.190456
    46  O   -0.365696
    47  C   -0.284094
    48  H    0.149372
    49  H    0.176918
    50  C   -0.273021
    51  H    0.151215
    52  H    0.131426
    53  C   -0.142702
    54  H    0.134038
    55  H    0.151798
    56  N   -0.698689
    57  H    0.298171
    58  H    0.303848
    59  O   -0.822386
    60  H    0.412584
    61  H    0.420440
    62  H    0.429756
 Sum of Mulliken charges =   1.00000

 Dipole moment (field-independent basis, Debye):
    X=              2.4584    Y=              6.4260    Z=             -6.4911  Tot=              9.4590
 Quadrupole moment (field-independent basis, Debye-Ang):
   XX=           -137.5891   YY=           -134.4402   ZZ=           -141.7958
   XY=             22.5911   XZ=            -28.0548   YZ=              1.2743

 Normal termination of Gaussian 16 at Tue May 24 03:30:18 2022.
