 Gaussian 16, Revision C.01,
 Gaussian 16:  ES64L-G16RevC.01  3-Jul-2019

 -------------------------------------------------------------------
 # B3LYP/6-31G* guess=read geom=check nosymm integral(ultrafinegrid)
 -------------------------------------------------------------------

 -----------------------------------------------------
 Candidate Structure: Conf:34 Charge calc in gas phase
 -----------------------------------------------------
 Structure from the checkpoint file:  "conf-34.chk"
 Charge =  1 Multiplicity = 1

                          Input orientation:
 ---------------------------------------------------------------------
 Center     Atomic      Atomic             Coordinates (Angstroms)
 Number     Number       Type             X           Y           Z
 ---------------------------------------------------------------------
      1          7           0        1.218519   -3.171786    3.286024
      2          1           0        1.883093   -3.389357    2.544408
      3          1           0        1.700687   -2.538244    3.920542
      4          6           0        0.044734   -2.534695    2.719090
      5          1           0       -0.538982   -2.115568    3.547707
      6          6           0        0.349974   -1.357837    1.780451
      7          6           0       -0.830980   -3.590793    1.989272
      8          1           0       -0.158116   -4.340867    1.559358
      9          1           0       -1.380319   -3.143334    1.154785
     10          8           0        1.467324   -1.111874    1.320859
     11          6           0       -1.812086   -4.288115    2.933464
     12          1           0       -1.288360   -4.656143    3.823531
     13          1           0       -2.247317   -5.174726    2.456571
     14          6           0       -2.985661   -3.458373    3.418993
     15          8           0       -3.825486   -3.834613    4.195364
     16          8           0       -3.040219   -2.188476    2.880074
     17          7           0       -0.707491   -0.546239    1.478985
     18          1           0       -1.634469   -0.784221    1.819158
     19          6           0       -0.547002    0.479238    0.459823
     20          1           0       -1.347041    1.214629    0.611413
     21          6           0        0.742914    1.234857    0.772434
     22          6           0       -0.649799   -0.115935   -0.969173
     23          1           0        0.135193   -0.871930   -1.076316
     24          1           0       -1.603556   -0.657923   -0.985391
     25          8           0        0.873998    1.598557    2.018723
     26          6           0       -0.592975    0.870882   -2.121030
     27          6           0       -1.479743    1.960484   -2.205404
     28          1           0       -2.232775    2.112072   -1.434749
     29          6           0        0.332342    0.699164   -3.161750
     30          1           0        1.006529   -0.155345   -3.147730
     31          6           0       -1.437569    2.846907   -3.272303
     32          1           0       -2.127499    3.681731   -3.338871
     33          6           0        0.387073    1.583141   -4.241946
     34          1           0        1.106368    1.420099   -5.041300
     35          8           0       -0.511649    3.567133   -5.311137
     36          1           0        0.145082    3.328945   -5.985123
     37          6           0       -0.499219    2.664013   -4.301026
     38          7           0        1.585491    1.613592   -0.161959
     39          1           0        1.321403    1.397092   -1.125797
     40          6           0        2.968548    2.112510    0.046758
     41          1           0        3.377396    1.568241    0.906456
     42          6           0        2.920433    3.608581    0.395948
     43          6           0        3.805841    1.829080   -1.203697
     44          1           0        3.661283    0.773168   -1.464550
     45          1           0        3.419846    2.435087   -2.032305
     46          8           0        3.195352    4.528466   -0.320075
     47          6           0        5.304293    2.104446   -1.007282
     48          1           0        5.673846    1.521164   -0.151659
     49          1           0        5.453540    3.162882   -0.762354
     50          6           0        6.116749    1.754543   -2.260871
     51          1           0        5.984122    0.687973   -2.496679
     52          1           0        5.740595    2.314753   -3.125731
     53          6           0        7.611643    2.055648   -2.111667
     54          1           0        7.741752    3.127930   -1.918440
     55          1           0        8.003282    1.527139   -1.222035
     56          7           0        8.312210    1.741051   -3.357963
     57          1           0        8.385713    0.730962   -3.472126
     58          1           0        9.267770    2.090176   -3.319811
     59          8           0        2.482518    3.761361    1.687254
     60          1           0        1.548629    2.310548    2.144988
     61          1           0        2.418095    4.715631    1.893569
     62          1           0       -3.844392   -1.791205    3.268267
 ---------------------------------------------------------------------

 SCF Done:  E(RB3LYP) =  -1526.17967381     A.U. after    3 cycles

 Alpha  occ. eigenvalues --  -19.36162 -19.35644 -19.29668 -19.29291 -19.28051
 Alpha  occ. eigenvalues --  -19.24785 -19.22864 -14.54961 -14.48872 -14.41230
 Alpha  occ. eigenvalues --  -14.38010 -10.49245 -10.47187 -10.41298 -10.40613
 Alpha  occ. eigenvalues --  -10.39773 -10.39423 -10.36050 -10.33037 -10.32525
 Alpha  occ. eigenvalues --  -10.31806 -10.31267 -10.30936 -10.30675 -10.30112
 Alpha  occ. eigenvalues --  -10.29596 -10.29291 -10.29242 -10.29005 -10.28278
 Alpha  occ. eigenvalues --  -10.26746  -1.27095  -1.25403  -1.19660  -1.17179
 Alpha  occ. eigenvalues --   -1.16436  -1.16375  -1.12091  -1.10669  -1.05728
 Alpha  occ. eigenvalues --   -0.99075  -0.97124  -0.95394  -0.94820  -0.91446
 Alpha  occ. eigenvalues --   -0.88852  -0.87871  -0.86443  -0.85972  -0.81864
 Alpha  occ. eigenvalues --   -0.81336  -0.80758  -0.77297  -0.76378  -0.74839
 Alpha  occ. eigenvalues --   -0.73873  -0.72601  -0.71384  -0.70754  -0.70364
 Alpha  occ. eigenvalues --   -0.69147  -0.67799  -0.66997  -0.65858  -0.65519
 Alpha  occ. eigenvalues --   -0.64838  -0.63510  -0.61579  -0.60225  -0.59895
 Alpha  occ. eigenvalues --   -0.59111  -0.58901  -0.58014  -0.57764  -0.57449
 Alpha  occ. eigenvalues --   -0.56851  -0.56566  -0.56352  -0.56090  -0.55541
 Alpha  occ. eigenvalues --   -0.55324  -0.54477  -0.54065  -0.53454  -0.53305
 Alpha  occ. eigenvalues --   -0.53027  -0.52670  -0.51974  -0.51516  -0.51060
 Alpha  occ. eigenvalues --   -0.50652  -0.50319  -0.49765  -0.48982  -0.48319
 Alpha  occ. eigenvalues --   -0.48094  -0.47766  -0.47383  -0.46923  -0.46767
 Alpha  occ. eigenvalues --   -0.45815  -0.45277  -0.44636  -0.44156  -0.43892
 Alpha  occ. eigenvalues --   -0.43803  -0.42659  -0.41973  -0.41552  -0.40931
 Alpha  occ. eigenvalues --   -0.38840  -0.38351  -0.36668  -0.36363  -0.33874
 Alpha  occ. eigenvalues --   -0.32957  -0.30295
 Alpha virt. eigenvalues --   -0.17532  -0.14747  -0.12122  -0.10931  -0.09906
 Alpha virt. eigenvalues --   -0.08079  -0.07056  -0.04194  -0.03147  -0.02649
 Alpha virt. eigenvalues --   -0.02319  -0.01787  -0.01062  -0.00967  -0.00258

 Mulliken charges:
               1
     1  N   -0.689376
     2  H    0.316288
     3  H    0.314338
     4  C   -0.085755
     5  H    0.172246
     6  C    0.596879
     7  C   -0.264940
     8  H    0.171455
     9  H    0.150320
    10  O   -0.540278
    11  C   -0.371031
    12  H    0.220536
    13  H    0.204705
    14  C    0.587097
    15  O   -0.427605
    16  O   -0.605588
    17  N   -0.600665
    18  H    0.373694
    19  C   -0.032358
    20  H    0.203612
    21  C    0.662022
    22  C   -0.367788
    23  H    0.187827
    24  H    0.191112
    25  O   -0.554550
    26  C    0.099126
    27  C   -0.186757
    28  H    0.140510
    29  C   -0.225390
    30  H    0.153549
    31  C   -0.149621
    32  H    0.173422
    33  C   -0.182645
    34  H    0.152520
    35  O   -0.618424
    36  H    0.423634
    37  C    0.360729
    38  N   -0.602701
    39  H    0.400851
    40  C   -0.079519
    41  H    0.218990
    42  C    0.633782
    43  C   -0.306024
    44  H    0.168266
    45  H    0.182086
    46  O   -0.392898
    47  C   -0.285686
    48  H    0.145646
    49  H    0.167454
    50  C   -0.249685
    51  H    0.132025
    52  H    0.159000
    53  C   -0.138561
    54  H    0.148081
    55  H    0.118904
    56  N   -0.715779
    57  H    0.298618
    58  H    0.309929
    59  O   -0.613625
    60  H    0.477100
    61  H    0.451271
    62  H    0.419626
 Sum of Mulliken charges =   1.00000

 Dipole moment (field-independent basis, Debye):
    X=              6.2761    Y=              5.9352    Z=             -0.2549  Tot=              8.6418
 Quadrupole moment (field-independent basis, Debye-Ang):
   XX=           -130.0797   YY=           -156.5476   ZZ=           -154.7646
   XY=              8.6450   XZ=             -0.3494   YZ=             11.7752

 Normal termination of Gaussian 16 at Tue May 24 03:30:41 2022.
