 Gaussian 16, Revision C.01,
 Gaussian 16:  ES64L-G16RevC.01  3-Jul-2019

 -------------------------------------------------------------------
 # B3LYP/6-31G* guess=read geom=check nosymm integral(ultrafinegrid)
 -------------------------------------------------------------------

 ------------------------------------------------------
 Candidate Structure: Conf:306 Charge calc in gas phase
 ------------------------------------------------------
 Structure from the checkpoint file:  "conf-306.chk"
 Charge =  1 Multiplicity = 1

                          Input orientation:
 ---------------------------------------------------------------------
 Center     Atomic      Atomic             Coordinates (Angstroms)
 Number     Number       Type             X           Y           Z
 ---------------------------------------------------------------------
      1          7           0        0.135045   -2.409119    4.018421
      2          1           0        0.620974   -3.090912    3.437696
      3          1           0        0.844503   -1.808387    4.432621
      4          6           0       -0.792460   -1.643552    3.205267
      5          1           0       -1.178199   -0.818641    3.820113
      6          6           0       -0.143493   -1.045868    1.946439
      7          6           0       -1.979806   -2.527716    2.758102
      8          1           0       -1.597455   -3.351744    2.143525
      9          1           0       -2.651497   -1.954677    2.108349
     10          8           0        0.832603   -1.553239    1.385778
     11          6           0       -2.768457   -3.093157    3.939251
     12          1           0       -3.184724   -2.292245    4.564783
     13          1           0       -2.117649   -3.675417    4.599258
     14          6           0       -3.913629   -3.967033    3.470651
     15          8           0       -4.199989   -4.184492    2.313062
     16          8           0       -4.596755   -4.484332    4.513775
     17          7           0       -0.705068    0.081985    1.422280
     18          1           0       -1.514796    0.500224    1.860390
     19          6           0       -0.271276    0.594501    0.131226
     20          1           0       -0.677318    1.611216    0.042990
     21          6           0        1.229305    0.797483    0.149003
     22          6           0       -0.794221   -0.265026   -1.053900
     23          1           0       -0.405807   -1.280068   -0.931091
     24          1           0       -1.879745   -0.324812   -0.910386
     25          8           0        1.802943    1.271095    1.234376
     26          6           0       -0.474709    0.262396   -2.439759
     27          6           0       -0.899997    1.536326   -2.859439
     28          1           0       -1.487983    2.162770   -2.191493
     29          6           0        0.242345   -0.523778   -3.354832
     30          1           0        0.552280   -1.528966   -3.075476
     31          6           0       -0.611244    2.013187   -4.131326
     32          1           0       -0.951142    2.990981   -4.456676
     33          6           0        0.539223   -0.057583   -4.638280
     34          1           0        1.084166   -0.692487   -5.333183
     35          8           0        0.362699    1.742741   -6.255733
     36          1           0        0.804059    1.089074   -6.821751
     37          6           0        0.113142    1.215801   -5.032392
     38          7           0        2.043073    0.700441   -0.866456
     39          1           0        1.729160    0.391100   -1.787388
     40          6           0        3.404921    1.139202   -0.532830
     41          1           0        4.074131    0.275488   -0.575990
     42          6           0        3.224669    1.496116    0.933965
     43          6           0        3.924930    2.308485   -1.391360
     44          1           0        4.912491    2.561086   -0.986790
     45          1           0        4.093442    1.929271   -2.406994
     46          8           0        3.944559    1.954154    1.746951
     47          6           0        3.026277    3.551259   -1.424466
     48          1           0        2.849950    3.908643   -0.399277
     49          1           0        2.043519    3.288524   -1.841989
     50          6           0        3.632534    4.693603   -2.252759
     51          1           0        4.604801    4.979314   -1.826960
     52          1           0        3.830903    4.341260   -3.275593
     53          6           0        2.719618    5.934301   -2.313655
     54          1           0        1.749229    5.645786   -2.740782
     55          1           0        2.513897    6.281773   -1.292326
     56          7           0        3.219711    7.071706   -3.076145
     57          1           0        3.411759    6.804197   -4.039941
     58          1           0        4.097538    7.409390   -2.685569
     59          8           0        3.590775   -1.175047    1.178234
     60          1           0        2.742660   -1.607673    1.385802
     61          1           0        4.182868   -1.390749    1.914026
     62          1           0       -5.313009   -5.031491    4.138613
 ---------------------------------------------------------------------

 SCF Done:  E(RB3LYP) =  -1526.17070235     A.U. after    1 cycles

 Alpha  occ. eigenvalues --  -19.37652 -19.30863 -19.28756 -19.26570 -19.26433
 Alpha  occ. eigenvalues --  -19.25073 -19.21162 -14.56094 -14.51089 -14.42233
 Alpha  occ. eigenvalues --  -14.38632 -10.49657 -10.48107 -10.42451 -10.41085
 Alpha  occ. eigenvalues --  -10.39778 -10.39436 -10.36788 -10.34211 -10.33329
 Alpha  occ. eigenvalues --  -10.32771 -10.32015 -10.31594 -10.31420 -10.30870
 Alpha  occ. eigenvalues --  -10.30368 -10.30333 -10.29245 -10.29060 -10.28235
 Alpha  occ. eigenvalues --  -10.27848  -1.29985  -1.21507  -1.18150  -1.17577
 Alpha  occ. eigenvalues --   -1.17080  -1.12673  -1.10818  -1.08656  -1.07581
 Alpha  occ. eigenvalues --   -1.00090  -0.98003  -0.96174  -0.95611  -0.92420
 Alpha  occ. eigenvalues --   -0.88946  -0.88442  -0.86977  -0.86532  -0.82629
 Alpha  occ. eigenvalues --   -0.81693  -0.80528  -0.78439  -0.77296  -0.74734
 Alpha  occ. eigenvalues --   -0.74161  -0.72665  -0.72496  -0.71250  -0.69123
 Alpha  occ. eigenvalues --   -0.68272  -0.67293  -0.66637  -0.66086  -0.65161
 Alpha  occ. eigenvalues --   -0.64193  -0.62779  -0.61282  -0.60957  -0.60141
 Alpha  occ. eigenvalues --   -0.59815  -0.59553  -0.59119  -0.58378  -0.57321
 Alpha  occ. eigenvalues --   -0.57089  -0.56481  -0.56420  -0.56002  -0.55486
 Alpha  occ. eigenvalues --   -0.55319  -0.55061  -0.54516  -0.54222  -0.53985
 Alpha  occ. eigenvalues --   -0.53156  -0.52349  -0.52219  -0.51942  -0.51543
 Alpha  occ. eigenvalues --   -0.50394  -0.49135  -0.48918  -0.48731  -0.48665
 Alpha  occ. eigenvalues --   -0.48174  -0.47406  -0.47146  -0.46425  -0.45834
 Alpha  occ. eigenvalues --   -0.45387  -0.45089  -0.44697  -0.44634  -0.44266
 Alpha  occ. eigenvalues --   -0.44002  -0.43583  -0.42379  -0.41102  -0.40353
 Alpha  occ. eigenvalues --   -0.40070  -0.38904  -0.37453  -0.35064  -0.34530
 Alpha  occ. eigenvalues --   -0.33701  -0.30673
 Alpha virt. eigenvalues --   -0.19332  -0.13940  -0.12858  -0.12180  -0.11231
 Alpha virt. eigenvalues --   -0.06358  -0.06124  -0.04761  -0.03853  -0.03056
 Alpha virt. eigenvalues --   -0.02769  -0.02598  -0.01828  -0.00912  -0.00717

 Mulliken charges:
               1
     1  N   -0.686656
     2  H    0.316576
     3  H    0.315158
     4  C   -0.090755
     5  H    0.156607
     6  C    0.627753
     7  C   -0.262097
     8  H    0.173542
     9  H    0.150388
    10  O   -0.553159
    11  C   -0.353280
    12  H    0.178706
    13  H    0.216992
    14  C    0.583446
    15  O   -0.462830
    16  O   -0.560199
    17  N   -0.591778
    18  H    0.360541
    19  C   -0.074406
    20  H    0.216517
    21  C    0.736200
    22  C   -0.360648
    23  H    0.199795
    24  H    0.196162
    25  O   -0.456584
    26  C    0.105744
    27  C   -0.187701
    28  H    0.144332
    29  C   -0.239154
    30  H    0.161953
    31  C   -0.152828
    32  H    0.176769
    33  C   -0.183174
    34  H    0.155712
    35  O   -0.618415
    36  H    0.424412
    37  C    0.358893
    38  N   -0.611272
    39  H    0.395257
    40  C   -0.052289
    41  H    0.271126
    42  C    0.644871
    43  C   -0.280182
    44  H    0.199216
    45  H    0.174681
    46  O   -0.368181
    47  C   -0.292023
    48  H    0.154165
    49  H    0.136338
    50  C   -0.268136
    51  H    0.145802
    52  H    0.137093
    53  C   -0.139372
    54  H    0.139648
    55  H    0.148484
    56  N   -0.697450
    57  H    0.300457
    58  H    0.303488
    59  O   -0.828125
    60  H    0.432766
    61  H    0.411314
    62  H    0.419792
 Sum of Mulliken charges =   1.00000

 Dipole moment (field-independent basis, Debye):
    X=              5.5101    Y=              1.8760    Z=             -3.0048  Tot=              6.5505
 Quadrupole moment (field-independent basis, Debye-Ang):
   XX=           -138.6504   YY=           -171.5662   ZZ=           -128.6656
   XY=             12.7104   XZ=            -26.9757   YZ=            -13.3434

 Normal termination of Gaussian 16 at Tue May 24 03:30:23 2022.
