 Gaussian 16, Revision C.01,
 Gaussian 16:  ES64L-G16RevC.01  3-Jul-2019

 -------------------------------------------------------------------
 # B3LYP/6-31G* guess=read geom=check nosymm integral(ultrafinegrid)
 -------------------------------------------------------------------

 ------------------------------------------------------
 Candidate Structure: Conf:549 Charge calc in gas phase
 ------------------------------------------------------
 Structure from the checkpoint file:  "conf-549.chk"
 Charge =  1 Multiplicity = 1

                          Input orientation:
 ---------------------------------------------------------------------
 Center     Atomic      Atomic             Coordinates (Angstroms)
 Number     Number       Type             X           Y           Z
 ---------------------------------------------------------------------
      1          7           0       -0.185305   -3.729259    3.319006
      2          1           0        0.534854   -3.908469    2.621137
      3          1           0        0.287190   -3.304392    4.114260
      4          6           0       -1.180931   -2.822103    2.772367
      5          1           0       -1.775100   -2.432161    3.608916
      6          6           0       -0.563586   -1.628130    2.027173
      7          6           0       -2.158605   -3.572403    1.832221
      8          1           0       -2.893815   -2.867157    1.428183
      9          1           0       -2.700045   -4.295089    2.451181
     10          8           0        0.517136   -1.689959    1.434603
     11          6           0       -1.464072   -4.316027    0.676586
     12          1           0       -0.841957   -5.127370    1.059487
     13          1           0       -0.822744   -3.628353    0.110413
     14          6           0       -2.452269   -4.932376   -0.293132
     15          8           0       -2.534775   -6.104003   -0.571683
     16          8           0       -3.261855   -3.986669   -0.846138
     17          7           0       -1.266655   -0.455135    2.017149
     18          1           0       -2.142833   -0.365463    2.512987
     19          6           0       -0.809223    0.641291    1.172837
     20          1           0       -1.314284    1.549874    1.523973
     21          6           0        0.673160    0.865143    1.480878
     22          6           0       -1.178008    0.362450   -0.307428
     23          1           0       -0.733194   -0.599604   -0.577514
     24          1           0       -2.264198    0.206733   -0.301880
     25          8           0        0.977396    0.786921    2.744087
     26          6           0       -0.817276    1.400540   -1.354870
     27          6           0       -1.128421    2.766011   -1.210801
     28          1           0       -1.603611    3.127058   -0.301162
     29          6           0       -0.232641    0.985101   -2.561109
     30          1           0       -0.001261   -0.066907   -2.711562
     31          6           0       -0.859479    3.679460   -2.222422
     32          1           0       -1.094762    4.731869   -2.107163
     33          6           0        0.029460    1.888258   -3.591443
     34          1           0        0.469910    1.538282   -4.522414
     35          8           0       -0.043852    4.180409   -4.379103
     36          1           0        0.241031    3.751671   -5.202661
     37          6           0       -0.285360    3.239637   -3.423387
     38          7           0        1.529787    1.241487    0.556172
     39          1           0        1.114687    1.369063   -0.370214
     40          6           0        3.015824    1.142122    0.534808
     41          1           0        3.255714    0.086316    0.724711
     42          6           0        3.801504    1.935369    1.584948
     43          6           0        3.514532    1.535691   -0.873410
     44          1           0        4.572482    1.260673   -0.918021
     45          1           0        2.993249    0.903790   -1.604285
     46          8           0        4.987033    2.101789    1.531202
     47          6           0        3.338819    3.025687   -1.201475
     48          1           0        3.931134    3.618802   -0.492547
     49          1           0        2.298030    3.346436   -1.075966
     50          6           0        3.785417    3.379298   -2.625935
     51          1           0        4.804225    3.009827   -2.804991
     52          1           0        3.137147    2.864407   -3.350498
     53          6           0        3.761461    4.891015   -2.893396
     54          1           0        4.462271    5.379642   -2.204835
     55          1           0        4.147158    5.074254   -3.911126
     56          7           0        2.429570    5.457186   -2.647326
     57          1           0        1.797669    5.222343   -3.412171
     58          1           0        2.486729    6.473680   -2.631532
     59          8           0        3.040593    2.387672    2.631943
     60          1           0        1.832820    1.246195    2.942296
     61          1           0        3.637788    2.838226    3.264135
     62          1           0       -3.865064   -4.465989   -1.445885
 ---------------------------------------------------------------------

 SCF Done:  E(RB3LYP) =  -1526.17380948     A.U. after    3 cycles

 Alpha  occ. eigenvalues --  -19.36185 -19.35907 -19.29146 -19.29044 -19.26954
 Alpha  occ. eigenvalues --  -19.25104 -19.21112 -14.54928 -14.49926 -14.41211
 Alpha  occ. eigenvalues --  -14.38862 -10.49264 -10.47531 -10.41134 -10.40145
 Alpha  occ. eigenvalues --  -10.39825 -10.39422 -10.36525 -10.33415 -10.32629
 Alpha  occ. eigenvalues --  -10.31857 -10.31578 -10.31180 -10.31110 -10.30512
 Alpha  occ. eigenvalues --  -10.30005 -10.28935 -10.28924 -10.28632 -10.28273
 Alpha  occ. eigenvalues --  -10.27435  -1.27271  -1.25693  -1.17633  -1.17308
 Alpha  occ. eigenvalues --   -1.17183  -1.16862  -1.11977  -1.08697  -1.06296
 Alpha  occ. eigenvalues --   -0.99120  -0.97435  -0.95909  -0.95130  -0.91551
 Alpha  occ. eigenvalues --   -0.88209  -0.87736  -0.86657  -0.86328  -0.81956
 Alpha  occ. eigenvalues --   -0.81452  -0.81014  -0.77583  -0.76844  -0.74629
 Alpha  occ. eigenvalues --   -0.73888  -0.73292  -0.71766  -0.71411  -0.70620
 Alpha  occ. eigenvalues --   -0.68012  -0.67726  -0.67476  -0.66026  -0.65122
 Alpha  occ. eigenvalues --   -0.64081  -0.63733  -0.61813  -0.60686  -0.60363
 Alpha  occ. eigenvalues --   -0.59014  -0.58729  -0.58119  -0.57835  -0.57454
 Alpha  occ. eigenvalues --   -0.57157  -0.56579  -0.56257  -0.55439  -0.55230
 Alpha  occ. eigenvalues --   -0.54840  -0.54712  -0.54362  -0.53708  -0.53522
 Alpha  occ. eigenvalues --   -0.53220  -0.52828  -0.51948  -0.51576  -0.51141
 Alpha  occ. eigenvalues --   -0.50910  -0.50485  -0.49689  -0.48860  -0.48260
 Alpha  occ. eigenvalues --   -0.47945  -0.47656  -0.47161  -0.46399  -0.45795
 Alpha  occ. eigenvalues --   -0.45371  -0.45171  -0.44592  -0.44472  -0.44252
 Alpha  occ. eigenvalues --   -0.43728  -0.43163  -0.42125  -0.41960  -0.39396
 Alpha  occ. eigenvalues --   -0.39073  -0.38710  -0.36934  -0.34671  -0.33732
 Alpha  occ. eigenvalues --   -0.33605  -0.31298
 Alpha virt. eigenvalues --   -0.17827  -0.14219  -0.12240  -0.11465  -0.10540
 Alpha virt. eigenvalues --   -0.07207  -0.06430  -0.05355  -0.04104  -0.03578
 Alpha virt. eigenvalues --   -0.02932  -0.01894  -0.01420  -0.00872  -0.00131

 Mulliken charges:
               1
     1  N   -0.686783
     2  H    0.323670
     3  H    0.313497
     4  C   -0.094776
     5  H    0.154558
     6  C    0.631158
     7  C   -0.264719
     8  H    0.153901
     9  H    0.189977
    10  O   -0.544601
    11  C   -0.356211
    12  H    0.198295
    13  H    0.170748
    14  C    0.564096
    15  O   -0.434718
    16  O   -0.574256
    17  N   -0.595008
    18  H    0.356052
    19  C   -0.051314
    20  H    0.207459
    21  C    0.667613
    22  C   -0.350201
    23  H    0.193021
    24  H    0.194864
    25  O   -0.552313
    26  C    0.065120
    27  C   -0.185012
    28  H    0.141582
    29  C   -0.198790
    30  H    0.156655
    31  C   -0.133438
    32  H    0.174827
    33  C   -0.181315
    34  H    0.152726
    35  O   -0.633317
    36  H    0.424596
    37  C    0.364217
    38  N   -0.615270
    39  H    0.404040
    40  C   -0.075119
    41  H    0.242893
    42  C    0.631216
    43  C   -0.320129
    44  H    0.202521
    45  H    0.165199
    46  O   -0.395756
    47  C   -0.275974
    48  H    0.156600
    49  H    0.167524
    50  C   -0.259647
    51  H    0.148403
    52  H    0.124677
    53  C   -0.147771
    54  H    0.148633
    55  H    0.133201
    56  N   -0.745938
    57  H    0.314736
    58  H    0.308756
    59  O   -0.619136
    60  H    0.472483
    61  H    0.453867
    62  H    0.418131
 Sum of Mulliken charges =   1.00000

 Dipole moment (field-independent basis, Debye):
    X=              3.2573    Y=              8.8439    Z=              1.3672  Tot=              9.5234
 Quadrupole moment (field-independent basis, Debye-Ang):
   XX=           -149.8694   YY=           -171.6951   ZZ=           -122.8285
   XY=             15.2724   XZ=             -1.6116   YZ=             -8.6475

 Normal termination of Gaussian 16 at Tue May 24 03:30:45 2022.
