 Gaussian 16, Revision C.01,
 Gaussian 16:  ES64L-G16RevC.01  3-Jul-2019

 -------------------------------------------------------------------
 # B3LYP/6-31G* guess=read geom=check nosymm integral(ultrafinegrid)
 -------------------------------------------------------------------

 ------------------------------------------------------
 Candidate Structure: Conf:966 Charge calc in gas phase
 ------------------------------------------------------
 Structure from the checkpoint file:  "conf-966.chk"
 Charge =  1 Multiplicity = 1

                          Input orientation:
 ---------------------------------------------------------------------
 Center     Atomic      Atomic             Coordinates (Angstroms)
 Number     Number       Type             X           Y           Z
 ---------------------------------------------------------------------
      1          7           0       -2.674877   -2.551620    1.648728
      2          1           0       -2.811299   -3.262034    2.363993
      3          1           0       -3.602821   -2.311788    1.299985
      4          6           0       -2.024380   -1.366616    2.233179
      5          1           0       -1.335366   -1.721496    3.007569
      6          6           0       -1.144338   -0.700766    1.171006
      7          6           0       -3.009228   -0.378295    2.901995
      8          1           0       -3.700242   -0.986717    3.496012
      9          1           0       -3.605694    0.119097    2.126157
     10          8           0       -0.608570    0.409125    1.301036
     11          6           0       -2.388940    0.690148    3.810350
     12          1           0       -3.162062    1.387853    4.153554
     13          1           0       -1.653269    1.291239    3.266705
     14          6           0       -1.717964    0.109043    5.036929
     15          8           0       -1.550759   -1.072687    5.263330
     16          8           0       -1.302589    1.078109    5.880311
     17          7           0       -0.921324   -1.436624    0.055498
     18          1           0       -1.371227   -2.349323    0.012332
     19          6           0       -0.130349   -0.888252   -1.017974
     20          1           0       -0.718916   -0.165290   -1.601884
     21          6           0        1.051274   -0.126394   -0.450709
     22          6           0        0.369421   -2.005472   -1.979303
     23          1           0        0.936836   -2.734728   -1.392127
     24          1           0       -0.528223   -2.515142   -2.350805
     25          8           0        1.831394   -0.782152    0.362244
     26          6           0        1.198944   -1.472824   -3.126577
     27          6           0        0.598046   -0.781571   -4.191793
     28          1           0       -0.484311   -0.670097   -4.222435
     29          6           0        2.590073   -1.628750   -3.143505
     30          1           0        3.081256   -2.179710   -2.344454
     31          6           0        1.354888   -0.255392   -5.232071
     32          1           0        0.888425    0.262574   -6.063755
     33          6           0        3.364276   -1.110182   -4.182602
     34          1           0        4.441831   -1.260567   -4.186074
     35          8           0        3.432204    0.112487   -6.279488
     36          1           0        4.370933   -0.126833   -6.220720
     37          6           0        2.748012   -0.419397   -5.233298
     38          7           0        1.377042    1.049855   -0.941904
     39          1           0        0.683975    1.504661   -1.526852
     40          6           0        2.656907    1.773717   -0.787949
     41          1           0        3.452235    1.020340   -0.851713
     42          6           0        2.758463    2.405903    0.611445
     43          6           0        2.836098    2.788533   -1.927813
     44          1           0        3.776994    3.313671   -1.730511
     45          1           0        2.980479    2.218221   -2.853522
     46          8           0        2.810507    3.571027    0.883164
     47          6           0        1.712549    3.822087   -2.114103
     48          1           0        1.531703    4.346703   -1.169985
     49          1           0        0.766669    3.328085   -2.393085
     50          6           0        2.063313    4.837932   -3.210619
     51          1           0        2.987876    5.366074   -2.948736
     52          1           0        2.262493    4.306873   -4.153339
     53          6           0        0.964486    5.881026   -3.438962
     54          1           0        0.015158    5.363915   -3.679547
     55          1           0        0.791345    6.427713   -2.503452
     56          7           0        1.396718    6.850010   -4.445560
     57          1           0        0.743256    7.629214   -4.488415
     58          1           0        1.392344    6.423157   -5.370800
     59          8           0        2.823635    1.411666    1.553639
     60          1           0        2.383844   -0.168526    0.909660
     61          1           0        2.837933    1.812899    2.445448
     62          1           0       -0.899722    0.628897    6.648080
 ---------------------------------------------------------------------

 SCF Done:  E(RB3LYP) =  -1526.19014632     A.U. after    3 cycles

 Alpha  occ. eigenvalues --  -19.35769 -19.35252 -19.28989 -19.27692 -19.27622
 Alpha  occ. eigenvalues --  -19.24213 -19.22371 -14.55122 -14.48067 -14.43128
 Alpha  occ. eigenvalues --  -14.38126 -10.48739 -10.46948 -10.40488 -10.40393
 Alpha  occ. eigenvalues --  -10.39827 -10.38691 -10.35454 -10.32995 -10.32564
 Alpha  occ. eigenvalues --  -10.31781 -10.30340 -10.30089 -10.29935 -10.29528
 Alpha  occ. eigenvalues --  -10.29502 -10.28954 -10.28949 -10.28585 -10.28525
 Alpha  occ. eigenvalues --  -10.26934  -1.26767  -1.25044  -1.18724  -1.16833
 Alpha  occ. eigenvalues --   -1.15909  -1.15868  -1.12120  -1.09719  -1.05423
 Alpha  occ. eigenvalues --   -1.00009  -0.96450  -0.95363  -0.94807  -0.91207
 Alpha  occ. eigenvalues --   -0.88434  -0.87966  -0.85515  -0.85364  -0.81616
 Alpha  occ. eigenvalues --   -0.81188  -0.80547  -0.77349  -0.76389  -0.74879
 Alpha  occ. eigenvalues --   -0.74267  -0.72858  -0.71573  -0.70515  -0.68767
 Alpha  occ. eigenvalues --   -0.67654  -0.67207  -0.66853  -0.65576  -0.64877
 Alpha  occ. eigenvalues --   -0.63769  -0.63227  -0.61615  -0.60768  -0.60070
 Alpha  occ. eigenvalues --   -0.58988  -0.58357  -0.58229  -0.57634  -0.57100
 Alpha  occ. eigenvalues --   -0.56977  -0.56420  -0.56210  -0.55995  -0.55775
 Alpha  occ. eigenvalues --   -0.54389  -0.54046  -0.53784  -0.53009  -0.52713
 Alpha  occ. eigenvalues --   -0.52495  -0.52374  -0.51682  -0.51357  -0.50562
 Alpha  occ. eigenvalues --   -0.50355  -0.50050  -0.48798  -0.48342  -0.47809
 Alpha  occ. eigenvalues --   -0.47627  -0.47404  -0.47276  -0.46824  -0.46484
 Alpha  occ. eigenvalues --   -0.45637  -0.45453  -0.44078  -0.44042  -0.43999
 Alpha  occ. eigenvalues --   -0.43296  -0.42833  -0.42021  -0.41287  -0.40021
 Alpha  occ. eigenvalues --   -0.38683  -0.38163  -0.35909  -0.35815  -0.35179
 Alpha  occ. eigenvalues --   -0.32361  -0.30378
 Alpha virt. eigenvalues --   -0.17240  -0.14197  -0.11201  -0.10156  -0.09714
 Alpha virt. eigenvalues --   -0.07276  -0.07018  -0.06061  -0.03229  -0.02396
 Alpha virt. eigenvalues --   -0.01818  -0.01433  -0.00069   0.00127   0.00654

 Mulliken charges:
               1
     1  N   -0.762020
     2  H    0.339888
     3  H    0.321249
     4  C   -0.086680
     5  H    0.216246
     6  C    0.642131
     7  C   -0.279227
     8  H    0.169155
     9  H    0.147701
    10  O   -0.560983
    11  C   -0.367158
    12  H    0.193231
    13  H    0.209929
    14  C    0.580992
    15  O   -0.467430
    16  O   -0.559522
    17  N   -0.613286
    18  H    0.378481
    19  C    0.017773
    20  H    0.175728
    21  C    0.671034
    22  C   -0.400861
    23  H    0.193252
    24  H    0.191021
    25  O   -0.567257
    26  C    0.150444
    27  C   -0.205582
    28  H    0.141300
    29  C   -0.205305
    30  H    0.145724
    31  C   -0.157889
    32  H    0.167090
    33  C   -0.196394
    34  H    0.145094
    35  O   -0.624452
    36  H    0.420835
    37  C    0.355494
    38  N   -0.559594
    39  H    0.385880
    40  C   -0.099085
    41  H    0.213067
    42  C    0.646131
    43  C   -0.302104
    44  H    0.191920
    45  H    0.177874
    46  O   -0.391306
    47  C   -0.298230
    48  H    0.184009
    49  H    0.119930
    50  C   -0.251293
    51  H    0.169301
    52  H    0.136276
    53  C   -0.137264
    54  H    0.110979
    55  H    0.149738
    56  N   -0.713103
    57  H    0.310041
    58  H    0.299326
    59  O   -0.615079
    60  H    0.480531
    61  H    0.453393
    62  H    0.418912
 Sum of Mulliken charges =   1.00000

 Dipole moment (field-independent basis, Debye):
    X=              3.6803    Y=              0.7628    Z=             -2.9519  Tot=              4.7791
 Quadrupole moment (field-independent basis, Debye-Ang):
   XX=           -130.6613   YY=           -167.5277   ZZ=           -130.8628
   XY=              1.5779   XZ=            -15.4868   YZ=             -5.8819

 Normal termination of Gaussian 16 at Tue May 24 03:30:11 2022.
