 Gaussian 16, Revision C.01,
 Gaussian 16:  ES64L-G16RevC.01  3-Jul-2019

 -------------------------------------------------------------------
 # B3LYP/6-31G* guess=read geom=check nosymm integral(ultrafinegrid)
 -------------------------------------------------------------------

 ------------------------------------------------------
 Candidate Structure: Conf:962 Charge calc in gas phase
 ------------------------------------------------------
 Structure from the checkpoint file:  "conf-962.chk"
 Charge =  1 Multiplicity = 1

                          Input orientation:
 ---------------------------------------------------------------------
 Center     Atomic      Atomic             Coordinates (Angstroms)
 Number     Number       Type             X           Y           Z
 ---------------------------------------------------------------------
      1          7           0       -2.659493   -2.562910    2.033665
      2          1           0       -3.233774   -3.397663    1.956424
      3          1           0       -2.699693   -2.264517    3.007421
      4          6           0       -1.269072   -2.831186    1.632261
      5          1           0       -1.297208   -3.594693    0.842208
      6          6           0       -0.675341   -1.588994    0.951112
      7          6           0       -0.329074   -3.312028    2.752546
      8          1           0       -0.331532   -2.577220    3.567791
      9          1           0        0.694344   -3.332768    2.368113
     10          8           0        0.520037   -1.474941    0.664211
     11          6           0       -0.707616   -4.686461    3.304316
     12          1           0       -0.627158   -5.466043    2.535944
     13          1           0       -1.750252   -4.713334    3.648795
     14          6           0        0.167174   -5.085021    4.477924
     15          8           0        0.989933   -4.374994    5.011484
     16          8           0       -0.092450   -6.350355    4.873573
     17          7           0       -1.554798   -0.594184    0.672197
     18          1           0       -2.527929   -0.757510    0.918926
     19          6           0       -1.112729    0.549723   -0.103232
     20          1           0       -1.811417    1.371069    0.098424
     21          6           0        0.220721    1.011463    0.484715
     22          6           0       -1.103035    0.231926   -1.621166
     23          1           0       -0.424463   -0.612055   -1.783940
     24          1           0       -2.111864   -0.137641   -1.842350
     25          8           0        0.223465    1.139170    1.783254
     26          6           0       -0.753461    1.378879   -2.551506
     27          6           0       -1.456264    2.597554   -2.518587
     28          1           0       -2.273159    2.737204   -1.813612
     29          6           0        0.264989    1.237394   -3.505740
     30          1           0        0.802420    0.293981   -3.584010
     31          6           0       -1.150056    3.633569   -3.389797
     32          1           0       -1.698855    4.569356   -3.367417
     33          6           0        0.584405    2.270991   -4.389480
     34          1           0        1.370396    2.130721   -5.128165
     35          8           0        0.124247    4.527297   -5.154605
     36          1           0        0.817829    4.298397   -5.793782
     37          6           0       -0.123219    3.476230   -4.334245
     38          7           0        1.237091    1.384755   -0.259233
     39          1           0        1.090623    1.375356   -1.270254
     40          6           0        2.632165    1.585788    0.210237
     41          1           0        2.813314    0.835885    0.989076
     42          6           0        2.750619    2.984699    0.836031
     43          6           0        3.610692    1.383181   -0.949324
     44          1           0        3.325381    0.459988   -1.470005
     45          1           0        3.500077    2.218164   -1.650104
     46          8           0        3.197262    3.971068    0.325665
     47          6           0        5.064817    1.268941   -0.462956
     48          1           0        5.130113    0.440791    0.255516
     49          1           0        5.357984    2.188551    0.054440
     50          6           0        6.067743    1.026776   -1.602967
     51          1           0        7.020338    0.708328   -1.158778
     52          1           0        5.734849    0.191805   -2.235076
     53          6           0        6.330877    2.256719   -2.484455
     54          1           0        6.999823    1.955737   -3.309228
     55          1           0        5.396770    2.590147   -2.955327
     56          7           0        6.837144    3.368884   -1.674622
     57          1           0        6.875182    4.221496   -2.229435
     58          1           0        7.795707    3.177018   -1.385348
     59          8           0        2.218842    2.961835    2.102383
     60          1           0        0.984779    1.671541    2.123730
     61          1           0        2.258286    3.863430    2.480178
     62          1           0        0.493905   -6.534647    5.632144
 ---------------------------------------------------------------------

 SCF Done:  E(RB3LYP) =  -1526.18825754     A.U. after    1 cycles

 Alpha  occ. eigenvalues --  -19.35422 -19.34699 -19.28303 -19.27660 -19.26731
 Alpha  occ. eigenvalues --  -19.23645 -19.21303 -14.54199 -14.47942 -14.43463
 Alpha  occ. eigenvalues --  -14.38629 -10.48485 -10.46181 -10.40025 -10.39606
 Alpha  occ. eigenvalues --  -10.38798 -10.38707 -10.35579 -10.33503 -10.31865
 Alpha  occ. eigenvalues --  -10.30808 -10.30732 -10.30432 -10.30152 -10.29669
 Alpha  occ. eigenvalues --  -10.29121 -10.28754 -10.28595 -10.28183 -10.27716
 Alpha  occ. eigenvalues --  -10.26645  -1.26312  -1.24450  -1.17720  -1.16215
 Alpha  occ. eigenvalues --   -1.15960  -1.15532  -1.11294  -1.08821  -1.05126
 Alpha  occ. eigenvalues --   -1.00244  -0.96558  -0.95575  -0.94238  -0.90592
 Alpha  occ. eigenvalues --   -0.88175  -0.87035  -0.85801  -0.85398  -0.81536
 Alpha  occ. eigenvalues --   -0.80922  -0.80656  -0.77091  -0.75814  -0.74104
 Alpha  occ. eigenvalues --   -0.73446  -0.72034  -0.71702  -0.70193  -0.69746
 Alpha  occ. eigenvalues --   -0.66799  -0.66582  -0.65774  -0.65142  -0.64986
 Alpha  occ. eigenvalues --   -0.64335  -0.62504  -0.60688  -0.60367  -0.59137
 Alpha  occ. eigenvalues --   -0.58374  -0.58176  -0.57656  -0.57186  -0.56890
 Alpha  occ. eigenvalues --   -0.56705  -0.56035  -0.55750  -0.55432  -0.55178
 Alpha  occ. eigenvalues --   -0.54273  -0.53929  -0.53682  -0.53091  -0.52834
 Alpha  occ. eigenvalues --   -0.52537  -0.52042  -0.51632  -0.51166  -0.50482
 Alpha  occ. eigenvalues --   -0.50172  -0.49470  -0.49145  -0.47827  -0.47434
 Alpha  occ. eigenvalues --   -0.47047  -0.46714  -0.46531  -0.46393  -0.45819
 Alpha  occ. eigenvalues --   -0.45614  -0.44824  -0.44190  -0.43684  -0.43406
 Alpha  occ. eigenvalues --   -0.43131  -0.42174  -0.41206  -0.41001  -0.39072
 Alpha  occ. eigenvalues --   -0.38732  -0.37900  -0.36172  -0.35014  -0.34957
 Alpha  occ. eigenvalues --   -0.32487  -0.30904
 Alpha virt. eigenvalues --   -0.16739  -0.13789  -0.11629  -0.10357  -0.09155
 Alpha virt. eigenvalues --   -0.06402  -0.06219  -0.02977  -0.02629  -0.02350
 Alpha virt. eigenvalues --   -0.01840  -0.01317  -0.00567  -0.00156   0.01041

 Mulliken charges:
               1
     1  N   -0.757734
     2  H    0.334897
     3  H    0.324601
     4  C   -0.082068
     5  H    0.183028
     6  C    0.645171
     7  C   -0.270808
     8  H    0.161268
     9  H    0.190562
    10  O   -0.551776
    11  C   -0.365903
    12  H    0.186279
    13  H    0.170382
    14  C    0.586281
    15  O   -0.454597
    16  O   -0.562109
    17  N   -0.596694
    18  H    0.375582
    19  C   -0.023043
    20  H    0.203425
    21  C    0.659144
    22  C   -0.368418
    23  H    0.187693
    24  H    0.192121
    25  O   -0.555751
    26  C    0.103462
    27  C   -0.187295
    28  H    0.141255
    29  C   -0.225314
    30  H    0.152536
    31  C   -0.149451
    32  H    0.172057
    33  C   -0.182916
    34  H    0.148135
    35  O   -0.620001
    36  H    0.421740
    37  C    0.360238
    38  N   -0.600667
    39  H    0.398629
    40  C   -0.078444
    41  H    0.219964
    42  C    0.628597
    43  C   -0.308745
    44  H    0.161778
    45  H    0.184484
    46  O   -0.388452
    47  C   -0.276502
    48  H    0.142863
    49  H    0.191090
    50  C   -0.264790
    51  H    0.150769
    52  H    0.135764
    53  C   -0.141733
    54  H    0.135058
    55  H    0.131372
    56  N   -0.716204
    57  H    0.309658
    58  H    0.304089
    59  O   -0.611869
    60  H    0.477625
    61  H    0.449059
    62  H    0.420626
 Sum of Mulliken charges =   1.00000

 Dipole moment (field-independent basis, Debye):
    X=              2.8172    Y=              2.8457    Z=             -0.9909  Tot=              4.1251
 Quadrupole moment (field-independent basis, Debye-Ang):
   XX=           -128.3853   YY=           -136.8389   ZZ=           -134.0612
   XY=             25.2349   XZ=            -23.9023   YZ=            -20.5657

 Normal termination of Gaussian 16 at Tue May 24 03:29:52 2022.
