 Gaussian 16, Revision C.01,
 Gaussian 16:  ES64L-G16RevC.01  3-Jul-2019

 -------------------------------------------------------------------
 # B3LYP/6-31G* guess=read geom=check nosymm integral(ultrafinegrid)
 -------------------------------------------------------------------

 ------------------------------------------------------
 Candidate Structure: Conf:584 Charge calc in gas phase
 ------------------------------------------------------
 Structure from the checkpoint file:  "conf-584.chk"
 Charge =  1 Multiplicity = 1

                          Input orientation:
 ---------------------------------------------------------------------
 Center     Atomic      Atomic             Coordinates (Angstroms)
 Number     Number       Type             X           Y           Z
 ---------------------------------------------------------------------
      1          7           0       -6.302143   -4.861000   -7.998946
      2          1           0       -5.853932   -4.980123   -8.911117
      3          1           0       -7.190718   -5.370183   -8.004688
      4          1           0       -5.662105   -5.234036   -7.221109
      5          6           0       -6.453937   -3.409957   -7.577919
      6          1           0       -6.049678   -2.790116   -8.382410
      7          6           0       -5.530992   -3.332596   -6.322772
      8          6           0       -7.915445   -3.062181   -7.299442
      9          1           0       -7.995498   -2.019925   -6.978868
     10          1           0       -8.326264   -3.687311   -6.498998
     11          1           0       -8.527674   -3.176105   -8.199826
     12          8           0       -4.987974   -4.387623   -5.951120
     13          7           0       -5.404132   -2.146668   -5.752688
     14          1           0       -5.892674   -1.307540   -6.081933
     15          6           0       -4.665245   -1.872009   -4.518416
     16          1           0       -4.881103   -2.647278   -3.778426
     17          6           0       -5.220807   -0.498644   -4.061324
     18          6           0       -3.141731   -1.829607   -4.769263
     19          1           0       -2.883317   -0.940884   -5.355701
     20          1           0       -2.867244   -2.712965   -5.358257
     21          8           0       -5.854351    0.191363   -4.865151
     22          6           0       -2.322308   -1.848906   -3.471111
     23          7           0       -0.995043   -1.719360   -3.629786
     24          1           0       -0.387403   -1.561442   -2.818941
     25          1           0       -0.611551   -1.476362   -4.532333
     26          8           0       -2.863463   -2.016724   -2.369806
     27          7           0       -4.958382   -0.169134   -2.783041
     28          1           0       -4.289119   -0.788981   -2.315481
     29          6           0       -5.005676    1.216646   -2.332916
     30          1           0       -5.601157    1.762419   -3.073453
     31          6           0       -3.551509    1.763125   -2.409097
     32          6           0       -5.669902    1.334376   -0.947528
     33          1           0       -5.048484    0.846919   -0.188944
     34          1           0       -5.741405    2.394149   -0.672015
     35          8           0       -2.725904    1.219070   -3.148711
     36          6           0       -7.082990    0.730831   -0.921319
     37          1           0       -7.025081   -0.333184   -1.181641
     38          1           0       -7.737137    1.213703   -1.652475
     39          6           0       -7.767407    0.836888    0.427028
     40          8           0       -8.902990    1.208532    0.607183
     41          8           0       -6.955004    0.436088    1.439596
     42          7           0       -3.243711    2.840680   -1.653191
     43          1           0       -3.917965    3.208330   -0.996155
     44          6           0       -1.888079    3.417724   -1.615779
     45          1           0       -1.460346    3.228382   -2.603593
     46          6           0       -1.052090    2.654379   -0.552252
     47          6           0       -1.962363    4.919686   -1.325670
     48          1           0       -2.301601    5.051458   -0.290876
     49          1           0       -2.726613    5.353607   -1.985131
     50          8           0       -0.735291    3.163258    0.518341
     51          6           0       -0.638405    5.690467   -1.513406
     52          1           0        0.123498    5.196091   -0.897950
     53          6           0       -0.162743    5.697810   -2.974611
     54          1           0       -0.906551    6.171921   -3.628374
     55          1           0        0.028714    4.690107   -3.362232
     56          1           0        0.770393    6.263617   -3.072810
     57          6           0       -0.800334    7.126471   -0.992602
     58          1           0       -1.569476    7.668234   -1.558530
     59          1           0       -1.090029    7.136971    0.064305
     60          1           0        0.136551    7.686214   -1.089137
     61          7           0       -0.741901    1.374397   -0.905427
     62          1           0       -1.089679    1.020314   -1.792637
     63          6           0       -0.088983    0.444382    0.012738
     64          1           0        0.250155    1.053615    0.853063
     65          6           0        1.116144   -0.174471   -0.708439
     66          6           0       -1.028948   -0.676581    0.506839
     67          1           0       -1.356364   -1.259611   -0.361758
     68          1           0       -0.438383   -1.358042    1.137201
     69          8           0        0.982889   -0.879593   -1.718042
     70          6           0       -2.265481   -0.203769    1.295292
     71          1           0       -2.800664    0.521992    0.664585
     72          6           0       -3.208783   -1.392519    1.540460
     73          1           0       -2.745793   -2.129127    2.209649
     74          1           0       -3.455531   -1.905265    0.603273
     75          1           0       -4.144537   -1.061543    2.006140
     76          6           0       -1.905443    0.497257    2.614001
     77          1           0       -1.309027   -0.163641    3.257157
     78          1           0       -1.342460    1.421122    2.446919
     79          1           0       -2.812455    0.762499    3.169737
     80          7           0        2.321616    0.093867   -0.168498
     81          1           0        2.404524    0.679635    0.654125
     82          6           0        3.577069   -0.426696   -0.695017
     83          1           0        3.414457   -1.472792   -0.979210
     84          6           0        4.584160   -0.349727    0.459650
     85          6           0        4.040283    0.352686   -1.971746
     86          1           0        3.144926    0.353180   -2.606897
     87          8           0        4.423263    0.470802    1.374193
     88          6           0        5.135504   -0.410836   -2.742133
     89          1           0        6.078240   -0.376416   -2.180318
     90          1           0        4.852816   -1.471520   -2.807767
     91          6           0        4.421573    1.806846   -1.658809
     92          1           0        5.339943    1.881911   -1.064565
     93          1           0        3.621290    2.312799   -1.107262
     94          1           0        4.578251    2.370249   -2.583688
     95          6           0        5.377286    0.120018   -4.160469
     96          1           0        6.112130   -0.499827   -4.685404
     97          1           0        5.757939    1.146352   -4.154276
     98          1           0        4.451589    0.108623   -4.748755
     99          7           0        5.637663   -1.196752    0.399701
    100          1           0        5.537345   -2.050790   -0.153923
    101          6           0        6.558536   -1.313844    1.532772
    102          1           0        5.987494   -1.305912    2.466705
    103          6           0        7.539875   -0.121868    1.647649
    104          6           0        7.377974   -2.621726    1.427188
    105          1           0        7.996743   -2.700219    2.326094
    106          1           0        8.059031   -2.551731    0.571113
    107          8           0        7.750749    0.394460    2.743824
    108          6           0        6.516896   -3.861968    1.203913
    109          7           0        6.658787   -4.867516    2.099018
    110          1           0        7.326789   -4.834838    2.854416
    111          1           0        6.144780   -5.725413    1.946897
    112          8           0        5.743658   -3.935703    0.245952
    113          7           0        8.192054    0.211839    0.508480
    114          1           0        7.776572   -0.087842   -0.363857
    115          6           0        9.141262    1.320965    0.462564
    116          1           0        9.846996    1.164820    1.284725
    117          6           0        8.423696    2.665309    0.730817
    118          6           0        9.939904    1.336446   -0.865961
    119          1           0       10.608018    2.202230   -0.780648
    120          8           0        7.173037    2.750301    0.564154
    121          6           0       10.814922    0.083374   -1.016054
    122          1           0       10.208970   -0.826587   -1.108859
    123          1           0       11.438067    0.158017   -1.913818
    124          1           0       11.481152   -0.042632   -0.155389
    125          6           0        9.052061    1.560146   -2.101183
    126          1           0        8.409033    0.693643   -2.311633
    127          1           0        9.676070    1.709034   -2.988667
    128          1           0        8.408141    2.437738   -1.987255
    129          7           0        9.208693    3.633816    1.141376
    130          1           0       10.256723    3.567557    1.251262
    131          6           0        8.905052    5.011156    1.534893
    132          1           0        8.550428    5.578106    0.664474
    133          6           0       10.334808    5.607734    1.943921
    134          6           0        7.897600    5.132946    2.689859
    135          1           0        8.262930    5.946141    3.325584
    136          1           0        7.955844    4.214845    3.293381
    137          8           0       10.305980    6.745067    2.428234
    138          6           0        6.438376    5.437935    2.284205
    139          1           0        6.204833    4.960827    1.324284
    140          1           0        6.345920    6.516572    2.115659
    141          6           0        5.405450    4.998711    3.348369
    142          1           0        5.871879    4.981818    4.342627
    143          1           0        4.580446    5.718314    3.417277
    144          6           0        4.750106    3.645921    3.060379
    145          1           0        4.114367    3.318137    3.888641
    146          1           0        4.132755    3.701084    2.159018
    147          7           0        5.742049    2.554248    2.787934
    148          1           0        5.277500    1.666780    2.536717
    149          1           0        6.378978    2.368507    3.566978
    150          1           0        6.347922    2.766800    1.933636
    151          8           0       11.295605    4.817259    1.709828
    152          1           0       -7.478026    0.519776    2.259807
 ---------------------------------------------------------------------

 SCF Done:  E(RB3LYP) =  -3473.74039642     A.U. after    3 cycles

 Alpha  occ. eigenvalues --  -19.28239 -19.26590 -19.22823 -19.21869 -19.21057
 Alpha  occ. eigenvalues --  -19.20868 -19.20735 -19.20190 -19.19929 -19.18688
 Alpha  occ. eigenvalues --  -19.18589 -19.15962 -19.06273 -19.04908 -14.61102
 Alpha  occ. eigenvalues --  -14.50494 -14.47812 -14.45619 -14.45265 -14.44574
 Alpha  occ. eigenvalues --  -14.44514 -14.44085 -14.43333 -14.42808 -14.42508
 Alpha  occ. eigenvalues --  -14.37444 -10.44842 -10.42506 -10.39589 -10.39109
 Alpha  occ. eigenvalues --  -10.38550 -10.38242 -10.38184 -10.38000 -10.36755
 Alpha  occ. eigenvalues --  -10.35788 -10.35716 -10.35487 -10.34939 -10.33044
 Alpha  occ. eigenvalues --  -10.32320 -10.32049 -10.31252 -10.30884 -10.30515
 Alpha  occ. eigenvalues --  -10.30463 -10.30247 -10.28957 -10.28913 -10.28094
 Alpha  occ. eigenvalues --  -10.28058 -10.26345 -10.25166 -10.25165 -10.25038
 Alpha  occ. eigenvalues --  -10.24818 -10.24814 -10.24720 -10.24549 -10.23995
 Alpha  occ. eigenvalues --  -10.23648 -10.23091 -10.23064 -10.23035 -10.22753
 Alpha  occ. eigenvalues --  -10.22716 -10.22468 -10.22448 -10.21886 -10.21697
 Alpha  occ. eigenvalues --  -10.20033  -1.20595  -1.17307  -1.15121  -1.14581
 Alpha  occ. eigenvalues --   -1.13354  -1.12903  -1.12197  -1.11917  -1.11446
 Alpha  occ. eigenvalues --   -1.10336  -1.10301  -1.08330  -1.07155  -1.06740
 Alpha  occ. eigenvalues --   -1.03340  -1.02605  -1.01542  -1.01534  -1.00494
 Alpha  occ. eigenvalues --   -0.99361  -0.99164  -0.99148  -0.98857  -0.98592
 Alpha  occ. eigenvalues --   -0.94578  -0.94240  -0.90558  -0.90310  -0.88660
 Alpha  occ. eigenvalues --   -0.88431  -0.87451  -0.86956  -0.86688  -0.85224
 Alpha  occ. eigenvalues --   -0.84521  -0.83479  -0.82902  -0.82412  -0.80902
 Alpha  occ. eigenvalues --   -0.79766  -0.79310  -0.79079  -0.77850  -0.76790
 Alpha  occ. eigenvalues --   -0.75412  -0.74819  -0.73940  -0.73857  -0.73780
 Alpha  occ. eigenvalues --   -0.73549  -0.73202  -0.72790  -0.72276  -0.71994
 Alpha  occ. eigenvalues --   -0.71148  -0.70239  -0.69429  -0.68454  -0.68132
 Alpha  occ. eigenvalues --   -0.67787  -0.67610  -0.67523  -0.67164  -0.66612
 Alpha  occ. eigenvalues --   -0.66223  -0.65439  -0.64972  -0.64459  -0.64175
 Alpha  occ. eigenvalues --   -0.63526  -0.63098  -0.62935  -0.62714  -0.62377
 Alpha  occ. eigenvalues --   -0.62159  -0.61942  -0.61756  -0.61113  -0.60746
 Alpha  occ. eigenvalues --   -0.60551  -0.59628  -0.58880  -0.58479  -0.58372
 Alpha  occ. eigenvalues --   -0.57875  -0.57866  -0.57251  -0.56945  -0.56255
 Alpha  occ. eigenvalues --   -0.56013  -0.55895  -0.55490  -0.55291  -0.55225
 Alpha  occ. eigenvalues --   -0.55036  -0.54936  -0.54635  -0.54472  -0.54242
 Alpha  occ. eigenvalues --   -0.54037  -0.53714  -0.53662  -0.53140  -0.52896
 Alpha  occ. eigenvalues --   -0.52523  -0.52502  -0.52293  -0.51574  -0.51408
 Alpha  occ. eigenvalues --   -0.51130  -0.50937  -0.50866  -0.50436  -0.50310
 Alpha  occ. eigenvalues --   -0.50278  -0.49974  -0.49809  -0.49653  -0.49214
 Alpha  occ. eigenvalues --   -0.49128  -0.48894  -0.48866  -0.48662  -0.48285
 Alpha  occ. eigenvalues --   -0.48095  -0.47761  -0.47718  -0.47528  -0.47123
 Alpha  occ. eigenvalues --   -0.47030  -0.46956  -0.46796  -0.46723  -0.46344
 Alpha  occ. eigenvalues --   -0.46257  -0.46090  -0.46031  -0.45728  -0.45504
 Alpha  occ. eigenvalues --   -0.45388  -0.45205  -0.45175  -0.44842  -0.44436
 Alpha  occ. eigenvalues --   -0.44274  -0.44052  -0.43941  -0.43813  -0.43575
 Alpha  occ. eigenvalues --   -0.43434  -0.43274  -0.43186  -0.42847  -0.42631
 Alpha  occ. eigenvalues --   -0.42573  -0.42209  -0.42005  -0.41938  -0.41242
 Alpha  occ. eigenvalues --   -0.40784  -0.40553  -0.40509  -0.40193  -0.39587
 Alpha  occ. eigenvalues --   -0.39063  -0.39055  -0.38808  -0.38740  -0.38677
 Alpha  occ. eigenvalues --   -0.38480  -0.38468  -0.38409  -0.38340  -0.38082
 Alpha  occ. eigenvalues --   -0.37942  -0.37184  -0.37162  -0.36529  -0.36272
 Alpha  occ. eigenvalues --   -0.36257  -0.35951  -0.35719  -0.35499  -0.35452
 Alpha  occ. eigenvalues --   -0.35226  -0.35110  -0.34875  -0.34695  -0.34425
 Alpha  occ. eigenvalues --   -0.34210  -0.33861  -0.33305  -0.33244  -0.32530
 Alpha  occ. eigenvalues --   -0.31645  -0.31571  -0.31497  -0.29838  -0.28488
 Alpha  occ. eigenvalues --   -0.21300  -0.21151  -0.19312
 Alpha virt. eigenvalues --   -0.13524  -0.12231  -0.08744  -0.07765  -0.07673
 Alpha virt. eigenvalues --   -0.07338  -0.06898  -0.06638  -0.06061  -0.05767
 Alpha virt. eigenvalues --   -0.05630  -0.04671  -0.04048  -0.02516  -0.02149

 Mulliken charges:
               1
     1  N   -0.759662
     2  H    0.417923
     3  H    0.416034
     4  H    0.438506
     5  C   -0.104539
     6  H    0.227562
     7  C    0.653492
     8  C   -0.484789
     9  H    0.222404
    10  H    0.196994
    11  H    0.198250
    12  O   -0.541795
    13  N   -0.618887
    14  H    0.377955
    15  C   -0.060124
    16  H    0.214197
    17  C    0.612302
    18  C   -0.381818
    19  H    0.194092
    20  H    0.194397
    21  O   -0.541246
    22  C    0.651548
    23  N   -0.773385
    24  H    0.416085
    25  H    0.339309
    26  O   -0.550350
    27  N   -0.599169
    28  H    0.391462
    29  C   -0.085227
    30  H    0.212063
    31  C    0.636003
    32  C   -0.318122
    33  H    0.199153
    34  H    0.154316
    35  O   -0.551439
    36  C   -0.339388
    37  H    0.184935
    38  H    0.183123
    39  C    0.568373
    40  O   -0.444269
    41  O   -0.563995
    42  N   -0.613183
    43  H    0.346798
    44  C   -0.067603
    45  H    0.185782
    46  C    0.626007
    47  C   -0.272702
    48  H    0.155294
    49  H    0.137252
    50  O   -0.522665
    51  C   -0.080791
    52  H    0.150446
    53  C   -0.452473
    54  H    0.143803
    55  H    0.136388
    56  H    0.156456
    57  C   -0.447908
    58  H    0.141766
    59  H    0.151340
    60  H    0.152362
    61  N   -0.620480
    62  H    0.366534
    63  C   -0.073096
    64  H    0.178212
    65  C    0.653246
    66  C   -0.277495
    67  H    0.171905
    68  H    0.137453
    69  O   -0.569822
    70  C   -0.076641
    71  H    0.114618
    72  C   -0.457517
    73  H    0.144563
    74  H    0.152133
    75  H    0.147792
    76  C   -0.464548
    77  H    0.136907
    78  H    0.173607
    79  H    0.144913
    80  N   -0.616529
    81  H    0.358153
    82  C   -0.055872
    83  H    0.181838
    84  C    0.642850
    85  C   -0.069707
    86  H    0.154871
    87  O   -0.571874
    88  C   -0.275215
    89  H    0.134265
    90  H    0.137942
    91  C   -0.492004
    92  H    0.189424
    93  H    0.141361
    94  H    0.158485
    95  C   -0.450705
    96  H    0.153675
    97  H    0.162268
    98  H    0.143285
    99  N   -0.637110
   100  H    0.381923
   101  C   -0.043845
   102  H    0.179708
   103  C    0.629667
   104  C   -0.409366
   105  H    0.182139
   106  H    0.198839
   107  O   -0.553547
   108  C    0.621256
   109  N   -0.737337
   110  H    0.356831
   111  H    0.359125
   112  O   -0.524951
   113  N   -0.599747
   114  H    0.350369
   115  C   -0.038117
   116  H    0.186046
   117  C    0.627279
   118  C   -0.114834
   119  H    0.180918
   120  O   -0.639032
   121  C   -0.443671
   122  H    0.127440
   123  H    0.159868
   124  H    0.159459
   125  C   -0.473252
   126  H    0.124736
   127  H    0.163414
   128  H    0.177623
   129  N   -0.596840
   130  H    0.376323
   131  C   -0.056582
   132  H    0.150788
   133  C    0.580334
   134  C   -0.279703
   135  H    0.196896
   136  H    0.099601
   137  O   -0.571608
   138  C   -0.296099
   139  H    0.154213
   140  H    0.160734
   141  C   -0.277532
   142  H    0.159631
   143  H    0.161002
   144  C   -0.180054
   145  H    0.174862
   146  H    0.187653
   147  N   -0.808034
   148  H    0.424440
   149  H    0.394142
   150  H    0.470867
   151  O   -0.613594
   152  H    0.419292
 Sum of Mulliken charges =   1.00000

 Dipole moment (field-independent basis, Debye):
    X=            -31.9067    Y=            -28.0569    Z=            -30.4122  Tot=             52.2506
 Quadrupole moment (field-independent basis, Debye-Ang):
   XX=           -420.6160   YY=           -400.3565   ZZ=           -151.7173
   XY=            -78.8677   XZ=            161.2217   YZ=             87.6101

 Normal termination of Gaussian 16 at Mon Jul 11 13:02:23 2022.
