 Gaussian 16, Revision C.01,
 Gaussian 16:  ES64L-G16RevC.01  3-Jul-2019

 -------------------------------------------------------------------
 # B3LYP/6-31G* guess=read geom=check nosymm integral(ultrafinegrid)
 -------------------------------------------------------------------

 ------------------------------------------------------
 Candidate Structure: Conf:727 Charge calc in gas phase
 ------------------------------------------------------
 Structure from the checkpoint file:  "conf-727.chk"
 Charge =  1 Multiplicity = 1

                          Input orientation:
 ---------------------------------------------------------------------
 Center     Atomic      Atomic             Coordinates (Angstroms)
 Number     Number       Type             X           Y           Z
 ---------------------------------------------------------------------
      1          7           0      -12.445276   -3.017956   -7.005301
      2          1           0      -11.796498   -2.504623   -7.652486
      3          1           0      -13.427114   -2.807398   -7.204129
      4          1           0      -12.249932   -4.019667   -7.148958
      5          6           0      -12.035135   -2.701117   -5.576842
      6          1           0      -12.127894   -1.618440   -5.464787
      7          6           0      -10.561272   -3.158531   -5.598497
      8          6           0      -12.905243   -3.461481   -4.584387
      9          1           0      -12.605743   -3.198717   -3.565522
     10          1           0      -12.777956   -4.541905   -4.705748
     11          1           0      -13.964120   -3.204013   -4.695835
     12          8           0      -10.313110   -4.246764   -6.119251
     13          7           0       -9.650120   -2.285616   -5.148529
     14          1           0       -9.906480   -1.397295   -4.724222
     15          6           0       -8.257951   -2.343746   -5.563338
     16          1           0       -7.945066   -3.389238   -5.603604
     17          6           0       -7.471205   -1.526059   -4.515877
     18          6           0       -8.064546   -1.653489   -6.952939
     19          1           0       -7.020537   -1.777786   -7.258691
     20          1           0       -8.247036   -0.582083   -6.817284
     21          8           0       -8.023072   -0.558993   -3.988579
     22          6           0       -9.020478   -2.120431   -8.046399
     23          7           0       -8.485632   -2.844297   -9.046968
     24          1           0       -9.076721   -3.148180   -9.809887
     25          1           0       -7.502524   -3.070998   -9.089372
     26          8           0      -10.226008   -1.820301   -8.022783
     27          7           0       -6.207529   -1.913800   -4.297384
     28          1           0       -5.790597   -2.725106   -4.750520
     29          6           0       -5.279359   -1.212955   -3.414904
     30          1           0       -5.416954   -0.134595   -3.551071
     31          6           0       -3.879805   -1.657786   -3.893253
     32          6           0       -5.549079   -1.584498   -1.933807
     33          1           0       -6.631303   -1.503005   -1.785360
     34          1           0       -5.270297   -2.630993   -1.771336
     35          8           0       -3.759225   -2.722744   -4.506540
     36          6           0       -4.840209   -0.676305   -0.911017
     37          1           0       -5.122059    0.369947   -1.061465
     38          1           0       -3.749918   -0.753619   -0.993761
     39          6           0       -5.222581   -1.031493    0.511508
     40          8           0       -5.791549   -0.307475    1.294841
     41          8           0       -4.849148   -2.300137    0.823300
     42          7           0       -2.862790   -0.825584   -3.601145
     43          1           0       -3.011210   -0.049460   -2.960058
     44          6           0       -1.453005   -1.190102   -3.714944
     45          1           0       -1.395465   -2.276447   -3.826242
     46          6           0       -0.801710   -0.756574   -2.381205
     47          6           0       -0.755947   -0.489856   -4.904464
     48          1           0        0.317388   -0.718784   -4.855934
     49          1           0       -0.847074    0.594159   -4.751652
     50          8           0       -1.382092    0.038389   -1.632516
     51          6           0       -1.283151   -0.857188   -6.305140
     52          1           0       -2.367484   -0.674810   -6.315233
     53          6           0       -0.640192    0.063788   -7.354052
     54          1           0        0.448288   -0.073078   -7.383733
     55          1           0       -0.837142    1.120706   -7.138440
     56          1           0       -1.026817   -0.152858   -8.356629
     57          6           0       -1.044773   -2.334359   -6.653175
     58          1           0        0.022856   -2.584315   -6.596327
     59          1           0       -1.597070   -3.003228   -5.986328
     60          1           0       -1.375339   -2.545687   -7.677175
     61          7           0        0.413014   -1.270933   -2.133181
     62          1           0        0.876602   -1.907975   -2.776602
     63          6           0        1.234055   -0.906849   -0.982526
     64          1           0        1.106369    0.164072   -0.798692
     65          6           0        2.680681   -1.218990   -1.414639
     66          6           0        0.803883   -1.711177    0.271431
     67          1           0       -0.284505   -1.598043    0.353605
     68          1           0        1.002135   -2.771939    0.068644
     69          8           0        2.896544   -2.061736   -2.290954
     70          6           0        1.444094   -1.310853    1.616513
     71          1           0        2.536096   -1.388279    1.527341
     72          6           0        1.098494    0.129506    2.027856
     73          1           0        0.012084    0.264946    2.103536
     74          1           0        1.472764    0.875839    1.317226
     75          1           0        1.537001    0.368204    3.002900
     76          6           0        1.000691   -2.299625    2.706416
     77          1           0       -0.087695   -2.267931    2.846432
     78          1           0        1.275253   -3.329480    2.449311
     79          1           0        1.466705   -2.057230    3.668109
     80          7           0        3.650673   -0.535219   -0.779180
     81          1           0        3.442269    0.117137   -0.029353
     82          6           0        5.073900   -0.788486   -0.974312
     83          1           0        5.200708   -1.859507   -1.158499
     84          6           0        5.747677   -0.384472    0.345137
     85          6           0        5.628801   -0.001556   -2.206871
     86          1           0        4.936171   -0.265165   -3.017902
     87          8           0        5.200904    0.409182    1.117772
     88          6           0        7.041232   -0.437966   -2.648059
     89          1           0        7.295756    0.168817   -3.527317
     90          1           0        7.769687   -0.158604   -1.876545
     91          6           0        5.579207    1.518134   -1.989018
     92          1           0        6.300336    1.835390   -1.227375
     93          1           0        4.583705    1.851780   -1.677059
     94          1           0        5.827309    2.038502   -2.920978
     95          6           0        7.193308   -1.919632   -3.018676
     96          1           0        8.167405   -2.098954   -3.486954
     97          1           0        6.417882   -2.233404   -3.728099
     98          1           0        7.135919   -2.586677   -2.150617
     99          7           0        6.967424   -0.911837    0.574319
    100          1           0        7.317379   -1.697236    0.030288
    101          6           0        7.752162   -0.540292    1.738882
    102          1           0        7.240634   -0.868482    2.654426
    103          6           0        7.963692    0.995216    1.773941
    104          6           0        9.152076   -1.188490    1.653111
    105          1           0        9.705913   -0.932538    2.562229
    106          1           0        9.675033   -0.729331    0.806014
    107          8           0        8.388098    1.591775    0.787754
    108          6           0        9.124617   -2.694640    1.413969
    109          7           0        9.794021   -3.458142    2.315752
    110          1           0       10.325275   -3.063575    3.076601
    111          1           0        9.844411   -4.455462    2.156535
    112          8           0        8.536743   -3.189597    0.451890
    113          7           0        7.741388    1.568616    2.975477
    114          1           0        7.307430    1.057159    3.736572
    115          6           0        7.901847    2.992784    3.227186
    116          1           0        8.852411    3.311675    2.783566
    117          6           0        7.960515    3.131474    4.758643
    118          6           0        6.762375    3.835557    2.567673
    119          1           0        6.788623    3.530859    1.515071
    120          8           0        7.436321    2.287788    5.489831
    121          6           0        5.375197    3.495682    3.128475
    122          1           0        5.295524    3.735597    4.195506
    123          1           0        4.608189    4.072443    2.598905
    124          1           0        5.144208    2.435122    2.992319
    125          6           0        7.048694    5.343309    2.618862
    126          1           0        6.985293    5.747069    3.635583
    127          1           0        6.315886    5.883252    2.009155
    128          1           0        8.042801    5.581913    2.219035
    129          7           0        8.609970    4.217711    5.237247
    130          1           0        8.945297    4.944355    4.613995
    131          6           0        8.603917    4.574317    6.648426
    132          1           0        7.610468    4.370300    7.063446
    133          6           0        8.914764    6.060037    6.744591
    134          6           0        9.632643    3.764891    7.485774
    135          1           0        9.442476    2.713656    7.246894
    136          1           0        9.380091    3.898779    8.543376
    137          8           0        8.882225    6.504444    7.993338
    138          6           0       11.132512    4.078543    7.268219
    139          1           0       11.325387    4.259782    6.201875
    140          1           0       11.677666    3.157620    7.505633
    141          6           0       11.757538    5.219372    8.128346
    142          1           0       11.140304    5.372259    9.021934
    143          1           0       12.727281    4.864562    8.494935
    144          6           0       11.988984    6.591514    7.438087
    145          1           0       13.063395    6.821102    7.422785
    146          1           0       11.652731    6.564106    6.399383
    147          7           0       11.229365    7.691395    8.092187
    148          1           0       11.358876    8.556591    7.568925
    149          1           0       11.593343    7.859748    9.030093
    150          1           0        9.624484    7.212247    8.075247
    151          8           0        9.268544    6.718420    5.776500
    152          1           0       -5.124769   -2.444559    1.748422
 ---------------------------------------------------------------------

 SCF Done:  E(RB3LYP) =  -3473.77436342     A.U. after    2 cycles

 Alpha  occ. eigenvalues --  -19.24758 -19.24690 -19.24672 -19.21371 -19.19747
 Alpha  occ. eigenvalues --  -19.19491 -19.18920 -19.17533 -19.16909 -19.16876
 Alpha  occ. eigenvalues --  -19.16160 -19.15946 -19.15297 -19.14574 -14.58570
 Alpha  occ. eigenvalues --  -14.48554 -14.48493 -14.45356 -14.43064 -14.41465
 Alpha  occ. eigenvalues --  -14.41263 -14.40175 -14.39626 -14.39401 -14.39039
 Alpha  occ. eigenvalues --  -14.38954 -10.42421 -10.42239 -10.39680 -10.38779
 Alpha  occ. eigenvalues --  -10.37231 -10.36560 -10.35644 -10.34756 -10.34614
 Alpha  occ. eigenvalues --  -10.34561 -10.33276 -10.32713 -10.32313 -10.32266
 Alpha  occ. eigenvalues --  -10.31991 -10.31935 -10.31766 -10.29504 -10.28463
 Alpha  occ. eigenvalues --  -10.28100 -10.26930 -10.26788 -10.26784 -10.26450
 Alpha  occ. eigenvalues --  -10.25868 -10.25693 -10.25310 -10.24451 -10.24261
 Alpha  occ. eigenvalues --  -10.22981 -10.22887 -10.22562 -10.22522 -10.22368
 Alpha  occ. eigenvalues --  -10.22279 -10.22178 -10.22092 -10.21899 -10.21081
 Alpha  occ. eigenvalues --  -10.21052 -10.20787 -10.20335 -10.20095 -10.19820
 Alpha  occ. eigenvalues --  -10.19349  -1.17725  -1.15828  -1.15452  -1.13551
 Alpha  occ. eigenvalues --   -1.12606  -1.12159  -1.11317  -1.09347  -1.08773
 Alpha  occ. eigenvalues --   -1.08238  -1.07602  -1.07250  -1.06455  -1.06137
 Alpha  occ. eigenvalues --   -1.05248  -1.03576  -1.03254  -1.01831  -0.99629
 Alpha  occ. eigenvalues --   -0.97825  -0.96825  -0.96458  -0.96022  -0.95976
 Alpha  occ. eigenvalues --   -0.95539  -0.94252  -0.92233  -0.89629  -0.87561
 Alpha  occ. eigenvalues --   -0.86292  -0.85387  -0.84479  -0.83815  -0.82963
 Alpha  occ. eigenvalues --   -0.82358  -0.82119  -0.81669  -0.80467  -0.78939
 Alpha  occ. eigenvalues --   -0.78781  -0.77690  -0.76369  -0.75305  -0.74164
 Alpha  occ. eigenvalues --   -0.73303  -0.73047  -0.73029  -0.72445  -0.72243
 Alpha  occ. eigenvalues --   -0.71949  -0.71568  -0.70960  -0.70824  -0.70598
 Alpha  occ. eigenvalues --   -0.70325  -0.69674  -0.67341  -0.66864  -0.66802
 Alpha  occ. eigenvalues --   -0.66222  -0.65646  -0.65626  -0.65203  -0.64970
 Alpha  occ. eigenvalues --   -0.64261  -0.63866  -0.63629  -0.63068  -0.62914
 Alpha  occ. eigenvalues --   -0.62561  -0.62444  -0.62003  -0.61174  -0.60553
 Alpha  occ. eigenvalues --   -0.60255  -0.59942  -0.59577  -0.58956  -0.58930
 Alpha  occ. eigenvalues --   -0.58703  -0.58401  -0.57961  -0.56820  -0.56395
 Alpha  occ. eigenvalues --   -0.55982  -0.55183  -0.54988  -0.54572  -0.54494
 Alpha  occ. eigenvalues --   -0.54244  -0.53973  -0.53907  -0.53810  -0.53368
 Alpha  occ. eigenvalues --   -0.53311  -0.52920  -0.52784  -0.52607  -0.52013
 Alpha  occ. eigenvalues --   -0.51754  -0.51678  -0.51445  -0.51295  -0.50961
 Alpha  occ. eigenvalues --   -0.50795  -0.50701  -0.50464  -0.50267  -0.50068
 Alpha  occ. eigenvalues --   -0.49971  -0.49784  -0.49613  -0.49457  -0.49052
 Alpha  occ. eigenvalues --   -0.48887  -0.48714  -0.48326  -0.48239  -0.48083
 Alpha  occ. eigenvalues --   -0.47973  -0.47601  -0.47017  -0.46795  -0.46573
 Alpha  occ. eigenvalues --   -0.46463  -0.46357  -0.46306  -0.46006  -0.45882
 Alpha  occ. eigenvalues --   -0.45736  -0.45499  -0.45333  -0.44819  -0.44660
 Alpha  occ. eigenvalues --   -0.44484  -0.44245  -0.44127  -0.43889  -0.43576
 Alpha  occ. eigenvalues --   -0.43453  -0.43231  -0.43182  -0.42999  -0.42777
 Alpha  occ. eigenvalues --   -0.42671  -0.42556  -0.42113  -0.42017  -0.41840
 Alpha  occ. eigenvalues --   -0.41758  -0.41707  -0.41289  -0.41153  -0.40912
 Alpha  occ. eigenvalues --   -0.40859  -0.40481  -0.40182  -0.40045  -0.39856
 Alpha  occ. eigenvalues --   -0.39780  -0.39523  -0.39441  -0.39200  -0.39185
 Alpha  occ. eigenvalues --   -0.38266  -0.38131  -0.37713  -0.37679  -0.37604
 Alpha  occ. eigenvalues --   -0.37336  -0.37024  -0.36918  -0.36828  -0.36822
 Alpha  occ. eigenvalues --   -0.36565  -0.36376  -0.36093  -0.36032  -0.35972
 Alpha  occ. eigenvalues --   -0.35863  -0.35789  -0.35610  -0.35031  -0.34967
 Alpha  occ. eigenvalues --   -0.33722  -0.33544  -0.32938  -0.32432  -0.32244
 Alpha  occ. eigenvalues --   -0.31459  -0.31189  -0.31132  -0.30832  -0.30444
 Alpha  occ. eigenvalues --   -0.30376  -0.30160  -0.29646  -0.29512  -0.28971
 Alpha  occ. eigenvalues --   -0.28770  -0.28032  -0.27647
 Alpha virt. eigenvalues --   -0.11972  -0.11189  -0.08525  -0.07351  -0.05283
 Alpha virt. eigenvalues --   -0.03975  -0.03934  -0.03464  -0.03451  -0.03371
 Alpha virt. eigenvalues --   -0.02566  -0.02334  -0.01936  -0.01593  -0.01322

 Mulliken charges:
               1
     1  N   -0.747728
     2  H    0.449355
     3  H    0.404207
     4  H    0.412590
     5  C   -0.109635
     6  H    0.209417
     7  C    0.651399
     8  C   -0.465531
     9  H    0.212828
    10  H    0.199385
    11  H    0.182006
    12  O   -0.535128
    13  N   -0.584225
    14  H    0.364118
    15  C   -0.073186
    16  H    0.200242
    17  C    0.640515
    18  C   -0.360562
    19  H    0.176262
    20  H    0.211106
    21  O   -0.539446
    22  C    0.640405
    23  N   -0.720181
    24  H    0.361720
    25  H    0.367726
    26  O   -0.580355
    27  N   -0.622816
    28  H    0.359825
    29  C   -0.050591
    30  H    0.181714
    31  C    0.614893
    32  C   -0.278428
    33  H    0.177404
    34  H    0.177934
    35  O   -0.544056
    36  C   -0.368732
    37  H    0.178226
    38  H    0.203851
    39  C    0.562433
    40  O   -0.447177
    41  O   -0.562472
    42  N   -0.596425
    43  H    0.360099
    44  C   -0.086911
    45  H    0.187565
    46  C    0.632349
    47  C   -0.255357
    48  H    0.150272
    49  H    0.145042
    50  O   -0.554026
    51  C   -0.064930
    52  H    0.121209
    53  C   -0.444870
    54  H    0.149811
    55  H    0.143272
    56  H    0.141502
    57  C   -0.463803
    58  H    0.143243
    59  H    0.171216
    60  H    0.137353
    61  N   -0.616210
    62  H    0.358790
    63  C   -0.054393
    64  H    0.176547
    65  C    0.620001
    66  C   -0.253365
    67  H    0.157088
    68  H    0.143509
    69  O   -0.552417
    70  C   -0.090835
    71  H    0.137724
    72  C   -0.449117
    73  H    0.148653
    74  H    0.140210
    75  H    0.156023
    76  C   -0.444112
    77  H    0.139571
    78  H    0.143497
    79  H    0.149473
    80  N   -0.621419
    81  H    0.365168
    82  C   -0.067685
    83  H    0.179894
    84  C    0.643081
    85  C   -0.070211
    86  H    0.146915
    87  O   -0.560954
    88  C   -0.272032
    89  H    0.137564
    90  H    0.158103
    91  C   -0.474961
    92  H    0.184757
    93  H    0.137680
    94  H    0.143469
    95  C   -0.466167
    96  H    0.149233
    97  H    0.150910
    98  H    0.155640
    99  N   -0.634269
   100  H    0.389029
   101  C   -0.017250
   102  H    0.155153
   103  C    0.650550
   104  C   -0.403782
   105  H    0.155625
   106  H    0.214108
   107  O   -0.545512
   108  C    0.615899
   109  N   -0.742417
   110  H    0.348031
   111  H    0.353416
   112  O   -0.521358
   113  N   -0.617877
   114  H    0.353276
   115  C   -0.041971
   116  H    0.162963
   117  C    0.624376
   118  C   -0.076706
   119  H    0.172346
   120  O   -0.552993
   121  C   -0.466863
   122  H    0.146744
   123  H    0.140096
   124  H    0.176113
   125  C   -0.469739
   126  H    0.152705
   127  H    0.152732
   128  H    0.143879
   129  N   -0.621966
   130  H    0.357331
   131  C   -0.034015
   132  H    0.187541
   133  C    0.601909
   134  C   -0.265396
   135  H    0.169111
   136  H    0.157387
   137  O   -0.608309
   138  C   -0.285488
   139  H    0.144661
   140  H    0.144245
   141  C   -0.280638
   142  H    0.157016
   143  H    0.144803
   144  C   -0.159215
   145  H    0.143405
   146  H    0.184480
   147  N   -0.771204
   148  H    0.334589
   149  H    0.325008
   150  H    0.455624
   151  O   -0.506654
   152  H    0.413933
 Sum of Mulliken charges =   1.00000

 Dipole moment (field-independent basis, Debye):
    X=            -29.6984    Y=            -10.1555    Z=            -21.1253  Tot=             37.8340
 Quadrupole moment (field-independent basis, Debye-Ang):
   XX=            284.0645   YY=           -355.0083   ZZ=           -147.0789
   XY=            174.8445   XZ=            422.6341   YZ=            103.9550

 Normal termination of Gaussian 16 at Mon Jul 11 13:01:00 2022.
