 Gaussian 16, Revision C.01,
 Gaussian 16:  ES64L-G16RevC.01  3-Jul-2019

 -------------------------------------------------------------------
 # B3LYP/6-31G* guess=read geom=check nosymm integral(ultrafinegrid)
 -------------------------------------------------------------------

 ------------------------------------------------------
 Candidate Structure: Conf:607 Charge calc in gas phase
 ------------------------------------------------------
 Structure from the checkpoint file:  "conf-607.chk"
 Charge =  1 Multiplicity = 1

                          Input orientation:
 ---------------------------------------------------------------------
 Center     Atomic      Atomic             Coordinates (Angstroms)
 Number     Number       Type             X           Y           Z
 ---------------------------------------------------------------------
      1          7           0       -9.075388   -0.469108  -10.714154
      2          1           0       -8.764751   -0.941181  -11.567094
      3          1           0       -9.800590    0.209498  -10.963954
      4          1           0       -9.460795   -1.185274  -10.010974
      5          6           0       -7.944508    0.144400   -9.907696
      6          1           0       -7.011727   -0.066725  -10.437066
      7          6           0       -8.005287   -0.673396   -8.580644
      8          6           0       -8.142677    1.648148   -9.724804
      9          1           0       -7.327567    2.060876   -9.124181
     10          1           0       -9.080898    1.863739   -9.201746
     11          1           0       -8.136165    2.168152  -10.688150
     12          8           0       -8.907743   -1.523591   -8.478812
     13          7           0       -7.089707   -0.392926   -7.670570
     14          1           0       -6.384253    0.345201   -7.782823
     15          6           0       -7.031739   -0.954569   -6.320858
     16          1           0       -8.031901   -0.956774   -5.878637
     17          6           0       -6.092655    0.022844   -5.565546
     18          6           0       -6.475125   -2.397788   -6.320479
     19          1           0       -5.384556   -2.381891   -6.424384
     20          1           0       -6.896611   -2.939027   -7.175100
     21          8           0       -5.437834    0.845748   -6.213963
     22          6           0       -6.838172   -3.153199   -5.040053
     23          7           0       -6.527345   -4.470100   -5.036977
     24          1           0       -6.665419   -4.986317   -4.177951
     25          1           0       -5.954367   -4.889763   -5.754507
     26          8           0       -7.408112   -2.611870   -4.091686
     27          7           0       -6.055309   -0.116909   -4.230088
     28          1           0       -6.546076   -0.937693   -3.866900
     29          6           0       -4.905566    0.360991   -3.474833
     30          1           0       -4.669941    1.369306   -3.831997
     31          6           0       -3.692090   -0.561812   -3.790462
     32          6           0       -5.227482    0.393049   -1.971166
     33          1           0       -5.496946   -0.615215   -1.633649
     34          1           0       -4.325041    0.659870   -1.413163
     35          8           0       -3.824270   -1.610535   -4.422906
     36          6           0       -6.347681    1.374346   -1.619997
     37          1           0       -7.278088    1.130043   -2.146131
     38          1           0       -6.092320    2.396690   -1.929121
     39          6           0       -6.637303    1.394721   -0.132800
     40          8           0       -6.062515    0.737774    0.705811
     41          8           0       -7.639396    2.255995    0.160459
     42          7           0       -2.511014   -0.122314   -3.310913
     43          1           0       -2.422949    0.762739   -2.821140
     44          6           0       -1.252508   -0.842152   -3.473457
     45          1           0       -1.460635   -1.910487   -3.364766
     46          6           0       -0.344715   -0.334697   -2.342076
     47          6           0       -0.637122   -0.559189   -4.868245
     48          1           0       -0.456933    0.521434   -4.932061
     49          1           0       -1.413501   -0.801078   -5.604943
     50          8           0       -0.451272    0.835034   -1.949086
     51          6           0        0.656537   -1.317341   -5.226909
     52          1           0        1.414625   -1.092904   -4.463817
     53          6           0        0.454800   -2.840527   -5.277506
     54          1           0       -0.308286   -3.108454   -6.019519
     55          1           0        0.132678   -3.262231   -4.316985
     56          1           0        1.385283   -3.346829   -5.556923
     57          6           0        1.196777   -0.805710   -6.571541
     58          1           0        0.478704   -0.992132   -7.380852
     59          1           0        1.392106    0.272374   -6.538761
     60          1           0        2.133866   -1.308499   -6.835177
     61          7           0        0.552206   -1.205732   -1.840063
     62          1           0        0.600120   -2.137609   -2.231489
     63          6           0        1.502948   -0.873433   -0.765070
     64          1           0        1.002370   -0.153802   -0.112439
     65          6           0        2.753537   -0.160162   -1.331240
     66          6           0        1.886430   -2.122625    0.028761
     67          1           0        2.396055   -2.829001   -0.641130
     68          1           0        2.638014   -1.804858    0.757476
     69          8           0        3.882085   -0.648840   -1.259967
     70          6           0        0.726732   -2.827668    0.760146
     71          1           0       -0.009171   -3.168113    0.014250
     72          6           0        1.260859   -4.073553    1.483414
     73          1           0        1.984118   -3.793578    2.259535
     74          1           0        1.766801   -4.755993    0.789880
     75          1           0        0.448724   -4.627061    1.968613
     76          6           0        0.002357   -1.893876    1.743147
     77          1           0        0.716123   -1.423684    2.430204
     78          1           0       -0.535991   -1.090073    1.228428
     79          1           0       -0.731615   -2.450032    2.337775
     80          7           0        2.501168    1.047570   -1.897835
     81          1           0        1.561964    1.424370   -1.809045
     82          6           0        3.569780    1.901655   -2.425028
     83          1           0        4.358795    1.209961   -2.736371
     84          6           0        4.164760    2.756508   -1.277557
     85          6           0        3.093851    2.696067   -3.663396
     86          1           0        2.772453    1.921661   -4.378242
     87          8           0        4.115573    3.988345   -1.235328
     88          6           0        4.236346    3.489855   -4.335128
     89          1           0        3.809798    3.981776   -5.219691
     90          1           0        4.560367    4.290301   -3.662471
     91          6           0        1.885967    3.609608   -3.387240
     92          1           0        2.136951    4.371748   -2.645795
     93          1           0        1.011060    3.050460   -3.033600
     94          1           0        1.586262    4.115843   -4.312488
     95          6           0        5.444084    2.652580   -4.774259
     96          1           0        6.146089    3.265347   -5.350403
     97          1           0        5.141791    1.809981   -5.409950
     98          1           0        6.001433    2.243787   -3.923456
     99          7           0        4.755366    2.019246   -0.301271
    100          1           0        4.735666    1.004510   -0.386306
    101          6           0        5.156309    2.611325    0.972083
    102          1           0        4.529898    3.500959    1.113228
    103          6           0        6.634871    3.084751    0.934204
    104          6           0        4.944856    1.621297    2.129992
    105          1           0        5.461422    2.012478    3.010047
    106          1           0        5.423863    0.667174    1.887974
    107          8           0        7.489838    2.601415    1.671578
    108          6           0        3.467657    1.364255    2.399564
    109          7           0        2.964467    1.972686    3.510090
    110          1           0        3.537754    2.505164    4.146155
    111          1           0        1.987222    1.842198    3.732140
    112          8           0        2.762717    0.678244    1.662632
    113          7           0        6.866905    4.062204    0.023345
    114          1           0        6.086837    4.448715   -0.506480
    115          6           0        8.187765    4.639048   -0.196524
    116          1           0        8.813928    4.308007    0.637919
    117          6           0        8.014435    6.165832   -0.193668
    118          6           0        8.823050    4.168014   -1.534799
    119          1           0        8.161060    4.527130   -2.335195
    120          8           0        7.157442    6.700355   -0.895804
    121          6           0       10.211210    4.793724   -1.741464
    122          1           0       10.900299    4.502374   -0.937795
    123          1           0       10.646184    4.450683   -2.686689
    124          1           0       10.173424    5.887477   -1.773313
    125          6           0        8.900195    2.637189   -1.607965
    126          1           0        9.530395    2.232929   -0.806730
    127          1           0        9.331049    2.324534   -2.566277
    128          1           0        7.910820    2.178509   -1.517950
    129          7           0        8.850419    6.859832    0.618448
    130          1           0        9.608456    6.398333    1.108878
    131          6           0        8.899091    8.312950    0.631353
    132          1           0        8.828310    8.683251   -0.398131
    133          6           0       10.229388    8.723261    1.242256
    134          6           0        7.731502    8.953286    1.433137
    135          1           0        6.820103    8.497286    1.034141
    136          1           0        7.692660   10.017224    1.174299
    137          8           0       10.399153   10.040102    1.249896
    138          6           0        7.755702    8.795395    2.972260
    139          1           0        8.111019    7.790343    3.238006
    140          1           0        6.710762    8.827206    3.302419
    141          6           0        8.531564    9.873397    3.789584
    142          1           0        8.624010   10.782868    3.183595
    143          1           0        7.909696   10.150913    4.648296
    144          6           0        9.935605    9.487198    4.330001
    145          1           0        9.927516    9.507830    5.428836
    146          1           0       10.198654    8.470418    4.030852
    147          7           0       11.010343   10.368143    3.798241
    148          1           0       11.917643   10.036850    4.123988
    149          1           0       10.898074   11.315473    4.159292
    150          1           0       10.900858   10.265475    2.115946
    151          8           0       10.986095    7.920478    1.769009
    152          1           0       -7.763216    2.216999    1.127975
 ---------------------------------------------------------------------

 SCF Done:  E(RB3LYP) =  -3473.76367000     A.U. after    2 cycles

 Alpha  occ. eigenvalues --  -19.27830 -19.25377 -19.22055 -19.21381 -19.19892
 Alpha  occ. eigenvalues --  -19.19094 -19.19075 -19.19026 -19.16155 -19.16130
 Alpha  occ. eigenvalues --  -19.15800 -19.15642 -19.14009 -19.13616 -14.60698
 Alpha  occ. eigenvalues --  -14.49940 -14.45130 -14.44237 -14.43491 -14.43084
 Alpha  occ. eigenvalues --  -14.40468 -14.40017 -14.39298 -14.38329 -14.38271
 Alpha  occ. eigenvalues --  -14.37828 -10.44396 -10.42097 -10.39172 -10.38724
 Alpha  occ. eigenvalues --  -10.38142 -10.36112 -10.35998 -10.34989 -10.34542
 Alpha  occ. eigenvalues --  -10.33870 -10.33557 -10.33135 -10.32421 -10.31438
 Alpha  occ. eigenvalues --  -10.31188 -10.30783 -10.30426 -10.30268 -10.28060
 Alpha  occ. eigenvalues --  -10.27442 -10.27077 -10.27004 -10.26976 -10.25892
 Alpha  occ. eigenvalues --  -10.25277 -10.25165 -10.25095 -10.25005 -10.23794
 Alpha  occ. eigenvalues --  -10.23643 -10.23285 -10.23141 -10.23118 -10.22386
 Alpha  occ. eigenvalues --  -10.21965 -10.21735 -10.21650 -10.21324 -10.21205
 Alpha  occ. eigenvalues --  -10.21029 -10.20960 -10.20658 -10.20508 -10.19882
 Alpha  occ. eigenvalues --  -10.19437  -1.20170  -1.16318  -1.14628  -1.13912
 Alpha  occ. eigenvalues --   -1.13033  -1.11453  -1.11170  -1.10361  -1.08102
 Alpha  occ. eigenvalues --   -1.07442  -1.07401  -1.07136  -1.06637  -1.05956
 Alpha  occ. eigenvalues --   -1.05308  -1.02845  -1.01621  -1.00007  -0.99667
 Alpha  occ. eigenvalues --   -0.99380  -0.96791  -0.95755  -0.94906  -0.94728
 Alpha  occ. eigenvalues --   -0.94282  -0.94162  -0.93638  -0.89549  -0.87831
 Alpha  occ. eigenvalues --   -0.87031  -0.85453  -0.84406  -0.83198  -0.82641
 Alpha  occ. eigenvalues --   -0.82601  -0.82344  -0.81670  -0.80745  -0.79439
 Alpha  occ. eigenvalues --   -0.78526  -0.78237  -0.76608  -0.75051  -0.74957
 Alpha  occ. eigenvalues --   -0.74382  -0.74049  -0.73473  -0.72785  -0.72330
 Alpha  occ. eigenvalues --   -0.72226  -0.72035  -0.71163  -0.70609  -0.70024
 Alpha  occ. eigenvalues --   -0.69259  -0.68523  -0.67957  -0.66607  -0.66144
 Alpha  occ. eigenvalues --   -0.66018  -0.65967  -0.65349  -0.64985  -0.64040
 Alpha  occ. eigenvalues --   -0.63782  -0.63460  -0.63385  -0.62835  -0.62566
 Alpha  occ. eigenvalues --   -0.62296  -0.61942  -0.61547  -0.60658  -0.60588
 Alpha  occ. eigenvalues --   -0.60322  -0.60081  -0.59664  -0.59190  -0.58894
 Alpha  occ. eigenvalues --   -0.58592  -0.58402  -0.57459  -0.56948  -0.56772
 Alpha  occ. eigenvalues --   -0.56247  -0.55764  -0.55208  -0.55127  -0.54915
 Alpha  occ. eigenvalues --   -0.54520  -0.54104  -0.53967  -0.53854  -0.53763
 Alpha  occ. eigenvalues --   -0.53634  -0.53290  -0.53190  -0.52980  -0.52640
 Alpha  occ. eigenvalues --   -0.52481  -0.52144  -0.51643  -0.51273  -0.51044
 Alpha  occ. eigenvalues --   -0.50739  -0.50705  -0.50532  -0.50249  -0.49990
 Alpha  occ. eigenvalues --   -0.49859  -0.49570  -0.49439  -0.48981  -0.48795
 Alpha  occ. eigenvalues --   -0.48411  -0.48110  -0.48046  -0.47812  -0.47701
 Alpha  occ. eigenvalues --   -0.47602  -0.47467  -0.47011  -0.46536  -0.46124
 Alpha  occ. eigenvalues --   -0.46092  -0.45880  -0.45872  -0.45728  -0.45259
 Alpha  occ. eigenvalues --   -0.45161  -0.45108  -0.44850  -0.44764  -0.44551
 Alpha  occ. eigenvalues --   -0.44366  -0.44323  -0.44252  -0.44115  -0.43971
 Alpha  occ. eigenvalues --   -0.43417  -0.43299  -0.43219  -0.42952  -0.42513
 Alpha  occ. eigenvalues --   -0.42477  -0.42271  -0.42155  -0.42075  -0.41818
 Alpha  occ. eigenvalues --   -0.41812  -0.41484  -0.41408  -0.41197  -0.40930
 Alpha  occ. eigenvalues --   -0.40641  -0.40550  -0.40209  -0.40162  -0.40077
 Alpha  occ. eigenvalues --   -0.39756  -0.39749  -0.39599  -0.39296  -0.38863
 Alpha  occ. eigenvalues --   -0.38700  -0.38661  -0.38435  -0.37686  -0.36943
 Alpha  occ. eigenvalues --   -0.36912  -0.36584  -0.36560  -0.36452  -0.36378
 Alpha  occ. eigenvalues --   -0.36316  -0.36192  -0.35987  -0.35968  -0.35846
 Alpha  occ. eigenvalues --   -0.35618  -0.35390  -0.35332  -0.35108  -0.35051
 Alpha  occ. eigenvalues --   -0.34072  -0.33563  -0.33202  -0.33042  -0.32482
 Alpha  occ. eigenvalues --   -0.32047  -0.31637  -0.31424  -0.30844  -0.30467
 Alpha  occ. eigenvalues --   -0.29664  -0.29409  -0.29097  -0.28451  -0.27749
 Alpha  occ. eigenvalues --   -0.27728  -0.26817  -0.26193
 Alpha virt. eigenvalues --   -0.13136  -0.11832  -0.07691  -0.07152  -0.06971
 Alpha virt. eigenvalues --   -0.05733  -0.05203  -0.04929  -0.04414  -0.03500
 Alpha virt. eigenvalues --   -0.02076  -0.01986  -0.01790  -0.01472  -0.01448

 Mulliken charges:
               1
     1  N   -0.760019
     2  H    0.417100
     3  H    0.415459
     4  H    0.438245
     5  C   -0.104081
     6  H    0.227421
     7  C    0.652978
     8  C   -0.485294
     9  H    0.223734
    10  H    0.196444
    11  H    0.197166
    12  O   -0.544353
    13  N   -0.620434
    14  H    0.379166
    15  C   -0.058447
    16  H    0.214544
    17  C    0.621629
    18  C   -0.389670
    19  H    0.221560
    20  H    0.184670
    21  O   -0.548438
    22  C    0.646001
    23  N   -0.739321
    24  H    0.363481
    25  H    0.352334
    26  O   -0.526625
    27  N   -0.606713
    28  H    0.389141
    29  C   -0.083608
    30  H    0.185495
    31  C    0.644216
    32  C   -0.289401
    33  H    0.176436
    34  H    0.179244
    35  O   -0.560245
    36  C   -0.356503
    37  H    0.188304
    38  H    0.183060
    39  C    0.585375
    40  O   -0.453932
    41  O   -0.567414
    42  N   -0.617204
    43  H    0.357402
    44  C   -0.044972
    45  H    0.170171
    46  C    0.630518
    47  C   -0.255091
    48  H    0.151327
    49  H    0.155671
    50  O   -0.563236
    51  C   -0.093222
    52  H    0.142574
    53  C   -0.449903
    54  H    0.145614
    55  H    0.127915
    56  H    0.159504
    57  C   -0.446460
    58  H    0.136777
    59  H    0.152911
    60  H    0.154045
    61  N   -0.604203
    62  H    0.343886
    63  C   -0.079572
    64  H    0.212576
    65  C    0.656478
    66  C   -0.285513
    67  H    0.137649
    68  H    0.188241
    69  O   -0.549840
    70  C   -0.071764
    71  H    0.103305
    72  C   -0.442143
    73  H    0.150172
    74  H    0.139807
    75  H    0.142719
    76  C   -0.452420
    77  H    0.158877
    78  H    0.143670
    79  H    0.141331
    80  N   -0.635698
    81  H    0.380364
    82  C   -0.077679
    83  H    0.187499
    84  C    0.631364
    85  C   -0.074530
    86  H    0.117463
    87  O   -0.540983
    88  C   -0.265739
    89  H    0.127118
    90  H    0.179185
    91  C   -0.488183
    92  H    0.191239
    93  H    0.139776
    94  H    0.137373
    95  C   -0.460092
    96  H    0.151871
    97  H    0.135530
    98  H    0.152322
    99  N   -0.608789
   100  H    0.380904
   101  C   -0.063268
   102  H    0.184335
   103  C    0.626858
   104  C   -0.382263
   105  H    0.171557
   106  H    0.192577
   107  O   -0.533171
   108  C    0.599414
   109  N   -0.738404
   110  H    0.345447
   111  H    0.344337
   112  O   -0.523388
   113  N   -0.627374
   114  H    0.375531
   115  C   -0.041844
   116  H    0.165275
   117  C    0.619856
   118  C   -0.072122
   119  H    0.143008
   120  O   -0.545132
   121  C   -0.461847
   122  H    0.144866
   123  H    0.148858
   124  H    0.155779
   125  C   -0.451406
   126  H    0.155004
   127  H    0.140416
   128  H    0.149670
   129  N   -0.616483
   130  H    0.351774
   131  C   -0.029603
   132  H    0.184772
   133  C    0.598109
   134  C   -0.266969
   135  H    0.174805
   136  H    0.153779
   137  O   -0.609345
   138  C   -0.285379
   139  H    0.146842
   140  H    0.141675
   141  C   -0.279761
   142  H    0.156017
   143  H    0.141229
   144  C   -0.158965
   145  H    0.140060
   146  H    0.186008
   147  N   -0.769519
   148  H    0.333072
   149  H    0.322661
   150  H    0.454140
   151  O   -0.505155
   152  H    0.417053
 Sum of Mulliken charges =   1.00000

 Dipole moment (field-independent basis, Debye):
    X=            -33.1804    Y=              0.3557    Z=            -36.5280  Tot=             49.3493
 Quadrupole moment (field-independent basis, Debye-Ang):
   XX=           -115.0784   YY=           -343.1612   ZZ=             61.1216
   XY=             54.2233   XZ=            391.3599   YZ=             82.0370

 Normal termination of Gaussian 16 at Mon Jul 11 13:01:16 2022.
