 Gaussian 16, Revision C.01,
 Gaussian 16:  ES64L-G16RevC.01  3-Jul-2019

 -------------------------------------------------------------------
 # B3LYP/6-31G* guess=read geom=check nosymm integral(ultrafinegrid)
 -------------------------------------------------------------------

 ------------------------------------------------------
 Candidate Structure: Conf:684 Charge calc in gas phase
 ------------------------------------------------------
 Structure from the checkpoint file:  "conf-684.chk"
 Charge =  1 Multiplicity = 1

                          Input orientation:
 ---------------------------------------------------------------------
 Center     Atomic      Atomic             Coordinates (Angstroms)
 Number     Number       Type             X           Y           Z
 ---------------------------------------------------------------------
      1          7           0      -10.147085   -3.647512  -10.298713
      2          1           0       -9.765730   -2.809795  -10.809019
      3          1           0      -11.150912   -3.766755  -10.459198
      4          1           0       -9.623286   -4.458592  -10.657502
      5          6           0       -9.781704   -3.508808   -8.830191
      6          1           0      -10.254627   -2.589257   -8.478756
      7          6           0       -8.247927   -3.367181   -8.932937
      8          6           0      -10.239889   -4.729171   -8.043091
      9          1           0       -9.995708   -4.586728   -6.986348
     10          1           0       -9.727876   -5.631583   -8.392095
     11          1           0      -11.323412   -4.873505   -8.115811
     12          8           0       -7.648155   -4.166172   -9.653086
     13          7           0       -7.708266   -2.304561   -8.318182
     14          1           0       -8.284389   -1.707749   -7.719379
     15          6           0       -6.409487   -1.770292   -8.734199
     16          1           0       -5.757884   -2.618662   -8.958455
     17          6           0       -5.902825   -0.948348   -7.525929
     18          6           0       -6.542782   -0.833017   -9.963174
     19          1           0       -5.534664   -0.565187  -10.297263
     20          1           0       -7.020087    0.086950   -9.611414
     21          8           0       -6.217550    0.232649   -7.411421
     22          6           0       -7.377388   -1.367831  -11.118153
     23          7           0       -6.727946   -1.595601  -12.275886
     24          1           0       -7.253130   -1.895080  -13.087051
     25          1           0       -5.739403   -1.423239  -12.386960
     26          8           0       -8.603811   -1.545958  -11.014551
     27          7           0       -5.255203   -1.659034   -6.575306
     28          1           0       -4.826734   -2.559178   -6.772468
     29          6           0       -4.882657   -1.074144   -5.295056
     30          1           0       -4.951955    0.010233   -5.406995
     31          6           0       -3.438711   -1.528917   -5.007084
     32          6           0       -5.807081   -1.542711   -4.130479
     33          1           0       -5.417714   -2.484858   -3.727329
     34          1           0       -5.748609   -0.802661   -3.326385
     35          8           0       -3.037460   -2.601169   -5.465464
     36          6           0       -7.278387   -1.804151   -4.505504
     37          1           0       -7.813594   -2.079597   -3.586263
     38          1           0       -7.360156   -2.652451   -5.188112
     39          6           0       -8.055309   -0.664102   -5.128678
     40          8           0       -8.820189   -0.779220   -6.075060
     41          8           0       -7.860004    0.502583   -4.501176
     42          7           0       -2.719101   -0.720554   -4.210843
     43          1           0       -3.078207    0.167127   -3.869304
     44          6           0       -1.357538   -1.015081   -3.772084
     45          1           0       -1.303618   -2.078112   -3.519399
     46          6           0       -1.144708   -0.143470   -2.519914
     47          6           0       -0.340912   -0.688126   -4.898085
     48          1           0       -0.378156    0.395221   -5.073266
     49          1           0       -0.721892   -1.173910   -5.804967
     50          8           0       -1.795587    0.894560   -2.375172
     51          6           0        1.120778   -1.131056   -4.681431
     52          1           0        1.505964   -0.672392   -3.761470
     53          6           0        1.259439   -2.656122   -4.546487
     54          1           0        0.866406   -3.166080   -5.435207
     55          1           0        0.725274   -3.056817   -3.676416
     56          1           0        2.311643   -2.937711   -4.432288
     57          6           0        1.983021   -0.617122   -5.845511
     58          1           0        1.653724   -1.048050   -6.799989
     59          1           0        1.928075    0.474311   -5.934295
     60          1           0        3.034458   -0.889989   -5.702775
     61          7           0       -0.231196   -0.592170   -1.630626
     62          1           0        0.385949   -1.359289   -1.883597
     63          6           0        0.277476    0.214664   -0.526660
     64          1           0       -0.023979    1.250352   -0.706071
     65          6           0        1.814235    0.089654   -0.572687
     66          6           0       -0.247181   -0.265759    0.847508
     67          1           0        0.074058   -1.308033    0.978804
     68          1           0        0.259549    0.315726    1.630846
     69          8           0        2.350899   -0.861914   -1.146685
     70          6           0       -1.770586   -0.167240    1.056979
     71          1           0       -2.258052   -0.706064    0.232351
     72          6           0       -2.155930   -0.866682    2.369971
     73          1           0       -1.691425   -0.370244    3.231979
     74          1           0       -1.836736   -1.915780    2.377565
     75          1           0       -3.241090   -0.844264    2.522406
     76          6           0       -2.273339    1.284133    1.040350
     77          1           0       -1.766466    1.884981    1.807545
     78          1           0       -2.118105    1.755280    0.065333
     79          1           0       -3.348128    1.320386    1.253829
     80          7           0        2.500523    1.057055    0.069048
     81          1           0        2.031670    1.802693    0.574173
     82          6           0        3.950900    1.041542    0.215423
     83          1           0        4.258474    0.007001    0.397597
     84          6           0        4.252844    1.903004    1.451206
     85          6           0        4.659541    1.544643   -1.085564
     86          1           0        4.180000    0.960495   -1.881494
     87          8           0        3.425753    2.708520    1.889483
     88          6           0        6.169487    1.231692   -1.149925
     89          1           0        6.526855    1.605702   -2.118252
     90          1           0        6.715804    1.813612   -0.396036
     91          6           0        4.390572    3.033147   -1.346961
     92          1           0        4.887917    3.671087   -0.606443
     93          1           0        3.320121    3.262117   -1.320796
     94          1           0        4.769424    3.318630   -2.334296
     95          6           0        6.540672   -0.252939   -1.035331
     96          1           0        7.605673   -0.398605   -1.242844
     97          1           0        5.969279   -0.860865   -1.746543
     98          1           0        6.355269   -0.662805   -0.034753
     99          7           0        5.471579    1.739361    2.011839
    100          1           0        6.164958    1.089410    1.650288
    101          6           0        5.960722    2.588740    3.078061
    102          1           0        5.616084    3.610607    2.884572
    103          6           0        7.507647    2.523687    3.008055
    104          6           0        5.392770    2.110948    4.450934
    105          1           0        5.615651    1.050643    4.585927
    106          1           0        4.303830    2.235050    4.404362
    107          8           0        8.057522    1.548166    2.497251
    108          6           0        5.945253    2.842640    5.660018
    109          7           0        5.813660    4.193813    5.714316
    110          1           0        5.393644    4.669123    4.924647
    111          1           0        6.606494    4.688717    6.131151
    112          8           0        6.496810    2.209221    6.576413
    113          7           0        8.131218    3.595190    3.529411
    114          1           0        7.596021    4.294519    4.033368
    115          6           0        9.556364    3.697595    3.838204
    116          1           0        9.970871    2.685174    3.849699
    117          6           0        9.606743    4.305396    5.264691
    118          6           0       10.308745    4.529733    2.754573
    119          1           0        9.977371    4.088749    1.803784
    120          8           0        8.599601    4.910420    5.707074
    121          6           0        9.898641    6.009332    2.763003
    122          1           0       10.219613    6.508273    3.684316
    123          1           0       10.366863    6.533903    1.923043
    124          1           0        8.813390    6.134897    2.668779
    125          6           0       11.834411    4.366865    2.835801
    126          1           0       12.269148    4.803385    3.741621
    127          1           0       12.301336    4.859468    1.975210
    128          1           0       12.123029    3.308862    2.802573
    129          7           0       10.735729    4.126875    5.939199
    130          1           0       11.627939    3.859923    5.478721
    131          6           0       11.112431    4.820871    7.170088
    132          1           0       10.564458    5.766419    7.233014
    133          6           0       12.672011    5.099097    7.055228
    134          6           0       10.845964    3.978940    8.424860
    135          1           0       11.112136    4.600295    9.286793
    136          1           0       11.532636    3.120562    8.432638
    137          8           0       13.153504    5.731862    8.004667
    138          6           0        9.408870    3.458005    8.519752
    139          1           0        9.219534    2.797217    7.663240
    140          1           0        8.716246    4.304514    8.408271
    141          6           0        9.119445    2.697640    9.822491
    142          1           0        9.946703    2.014782   10.052639
    143          1           0        9.055196    3.392680   10.671315
    144          6           0        7.855740    1.843922    9.757364
    145          1           0        7.970578    0.999505    9.073241
    146          1           0        7.553434    1.468335   10.738507
    147          7           0        6.687222    2.645430    9.202904
    148          1           0        5.790729    2.225023    9.461932
    149          1           0        6.707352    2.666289    8.131813
    150          1           0        6.699728    3.605545    9.559363
    151          8           0       13.205511    4.591107    6.025812
    152          1           0       -8.370673    1.182741   -4.981517
 ---------------------------------------------------------------------

 SCF Done:  E(RB3LYP) =  -3473.72406616     A.U. after    3 cycles

 Alpha  occ. eigenvalues --  -19.29111 -19.24462 -19.24178 -19.23873 -19.21900
 Alpha  occ. eigenvalues --  -19.21568 -19.19208 -19.18555 -19.18362 -19.17842
 Alpha  occ. eigenvalues --  -19.17080 -19.14643 -19.04893 -19.03712 -14.58221
 Alpha  occ. eigenvalues --  -14.53647 -14.48058 -14.47968 -14.45582 -14.43477
 Alpha  occ. eigenvalues --  -14.43359 -14.42427 -14.42416 -14.41901 -14.40587
 Alpha  occ. eigenvalues --  -14.36164 -10.42088 -10.41893 -10.41786 -10.39241
 Alpha  occ. eigenvalues --  -10.38947 -10.38496 -10.36507 -10.35596 -10.35351
 Alpha  occ. eigenvalues --  -10.35347 -10.34874 -10.34372 -10.33401 -10.32102
 Alpha  occ. eigenvalues --  -10.32035 -10.31128 -10.30884 -10.30730 -10.30107
 Alpha  occ. eigenvalues --  -10.29571 -10.29406 -10.29113 -10.28754 -10.27296
 Alpha  occ. eigenvalues --  -10.26275 -10.26223 -10.24617 -10.24605 -10.24583
 Alpha  occ. eigenvalues --  -10.24384 -10.24255 -10.22982 -10.22952 -10.22799
 Alpha  occ. eigenvalues --  -10.22539 -10.22469 -10.22420 -10.22279 -10.21974
 Alpha  occ. eigenvalues --  -10.21943 -10.21870 -10.20563 -10.19762 -10.19635
 Alpha  occ. eigenvalues --  -10.18151  -1.20224  -1.17306  -1.15325  -1.13737
 Alpha  occ. eigenvalues --   -1.12810  -1.12308  -1.11293  -1.11012  -1.10587
 Alpha  occ. eigenvalues --   -1.10278  -1.09378  -1.08785  -1.08229  -1.05544
 Alpha  occ. eigenvalues --   -1.04852  -1.02731  -1.01936  -0.99831  -0.99307
 Alpha  occ. eigenvalues --   -0.98972  -0.98807  -0.98366  -0.97975  -0.97185
 Alpha  occ. eigenvalues --   -0.92954  -0.91889  -0.89584  -0.89188  -0.88541
 Alpha  occ. eigenvalues --   -0.87407  -0.86885  -0.86667  -0.86037  -0.84906
 Alpha  occ. eigenvalues --   -0.83683  -0.82595  -0.81921  -0.80984  -0.79994
 Alpha  occ. eigenvalues --   -0.79750  -0.78339  -0.77934  -0.76999  -0.75643
 Alpha  occ. eigenvalues --   -0.74224  -0.73969  -0.73392  -0.73083  -0.72979
 Alpha  occ. eigenvalues --   -0.72351  -0.72192  -0.71885  -0.70732  -0.70419
 Alpha  occ. eigenvalues --   -0.70022  -0.69917  -0.69423  -0.68503  -0.68286
 Alpha  occ. eigenvalues --   -0.67763  -0.67664  -0.66692  -0.66491  -0.66301
 Alpha  occ. eigenvalues --   -0.65818  -0.65457  -0.65063  -0.64951  -0.64354
 Alpha  occ. eigenvalues --   -0.63693  -0.63165  -0.62795  -0.61832  -0.61726
 Alpha  occ. eigenvalues --   -0.61414  -0.61315  -0.61240  -0.60542  -0.60028
 Alpha  occ. eigenvalues --   -0.59338  -0.59041  -0.58425  -0.58270  -0.57906
 Alpha  occ. eigenvalues --   -0.57765  -0.57723  -0.57316  -0.56752  -0.56405
 Alpha  occ. eigenvalues --   -0.55698  -0.55253  -0.54970  -0.54529  -0.54472
 Alpha  occ. eigenvalues --   -0.54103  -0.53893  -0.53747  -0.53612  -0.53390
 Alpha  occ. eigenvalues --   -0.53246  -0.52850  -0.52464  -0.52381  -0.52145
 Alpha  occ. eigenvalues --   -0.51964  -0.51728  -0.51203  -0.51004  -0.50677
 Alpha  occ. eigenvalues --   -0.50515  -0.50257  -0.50024  -0.49936  -0.49711
 Alpha  occ. eigenvalues --   -0.49572  -0.49490  -0.49139  -0.48986  -0.48956
 Alpha  occ. eigenvalues --   -0.48676  -0.48482  -0.48292  -0.47946  -0.47860
 Alpha  occ. eigenvalues --   -0.47637  -0.47605  -0.47478  -0.47316  -0.46901
 Alpha  occ. eigenvalues --   -0.46752  -0.46646  -0.46453  -0.46334  -0.46028
 Alpha  occ. eigenvalues --   -0.45722  -0.45684  -0.45247  -0.44866  -0.44451
 Alpha  occ. eigenvalues --   -0.44319  -0.44272  -0.44075  -0.43837  -0.43801
 Alpha  occ. eigenvalues --   -0.43366  -0.43232  -0.43167  -0.43127  -0.42742
 Alpha  occ. eigenvalues --   -0.42635  -0.42066  -0.41609  -0.41412  -0.41398
 Alpha  occ. eigenvalues --   -0.41314  -0.41022  -0.41012  -0.40330  -0.40089
 Alpha  occ. eigenvalues --   -0.39407  -0.39321  -0.39178  -0.39139  -0.38952
 Alpha  occ. eigenvalues --   -0.38690  -0.38576  -0.38257  -0.38086  -0.37879
 Alpha  occ. eigenvalues --   -0.37715  -0.37654  -0.37634  -0.37575  -0.37551
 Alpha  occ. eigenvalues --   -0.37172  -0.37157  -0.36843  -0.36498  -0.36254
 Alpha  occ. eigenvalues --   -0.35619  -0.35423  -0.35381  -0.35334  -0.35276
 Alpha  occ. eigenvalues --   -0.34894  -0.34195  -0.33487  -0.32882  -0.32812
 Alpha  occ. eigenvalues --   -0.32541  -0.32452  -0.32258  -0.31877  -0.31154
 Alpha  occ. eigenvalues --   -0.30979  -0.30658  -0.30181  -0.28589  -0.27338
 Alpha  occ. eigenvalues --   -0.19978  -0.19796  -0.17958
 Alpha virt. eigenvalues --   -0.11656  -0.10356  -0.09175  -0.08265  -0.08185
 Alpha virt. eigenvalues --   -0.07949  -0.05759  -0.05398  -0.04652  -0.04175
 Alpha virt. eigenvalues --   -0.03578  -0.03470  -0.02862  -0.02683  -0.01695

 Mulliken charges:
               1
     1  N   -0.748989
     2  H    0.449889
     3  H    0.402615
     4  H    0.410729
     5  C   -0.109655
     6  H    0.218559
     7  C    0.638575
     8  C   -0.465560
     9  H    0.207848
    10  H    0.197182
    11  H    0.179555
    12  O   -0.536774
    13  N   -0.621175
    14  H    0.407573
    15  C   -0.062429
    16  H    0.192836
    17  C    0.608544
    18  C   -0.354096
    19  H    0.168724
    20  H    0.227253
    21  O   -0.518345
    22  C    0.634392
    23  N   -0.721696
    24  H    0.359042
    25  H    0.365653
    26  O   -0.584600
    27  N   -0.606286
    28  H    0.355042
    29  C   -0.059141
    30  H    0.196692
    31  C    0.622537
    32  C   -0.278925
    33  H    0.172518
    34  H    0.181785
    35  O   -0.547413
    36  C   -0.352938
    37  H    0.196310
    38  H    0.165828
    39  C    0.618523
    40  O   -0.517219
    41  O   -0.538503
    42  N   -0.617834
    43  H    0.357610
    44  C   -0.054494
    45  H    0.177950
    46  C    0.613998
    47  C   -0.256143
    48  H    0.144267
    49  H    0.159759
    50  O   -0.543002
    51  C   -0.099222
    52  H    0.146143
    53  C   -0.447484
    54  H    0.148997
    55  H    0.134466
    56  H    0.158976
    57  C   -0.445097
    58  H    0.140514
    59  H    0.143706
    60  H    0.152501
    61  N   -0.604072
    62  H    0.363651
    63  C   -0.081492
    64  H    0.184387
    65  C    0.630616
    66  C   -0.253394
    67  H    0.144273
    68  H    0.138628
    69  O   -0.548700
    70  C   -0.065183
    71  H    0.130088
    72  C   -0.444320
    73  H    0.141436
    74  H    0.142164
    75  H    0.144739
    76  C   -0.464463
    77  H    0.134111
    78  H    0.176449
    79  H    0.141747
    80  N   -0.619207
    81  H    0.356845
    82  C   -0.055915
    83  H    0.181148
    84  C    0.624863
    85  C   -0.075760
    86  H    0.158830
    87  O   -0.558871
    88  C   -0.276618
    89  H    0.146902
    90  H    0.144860
    91  C   -0.461116
    92  H    0.150805
    93  H    0.148379
    94  H    0.153739
    95  C   -0.457615
    96  H    0.163165
    97  H    0.158095
    98  H    0.139495
    99  N   -0.627862
   100  H    0.374970
   101  C   -0.054935
   102  H    0.167531
   103  C    0.614159
   104  C   -0.354811
   105  H    0.192483
   106  H    0.203522
   107  O   -0.536441
   108  C    0.587629
   109  N   -0.741796
   110  H    0.349468
   111  H    0.394269
   112  O   -0.552451
   113  N   -0.605545
   114  H    0.340820
   115  C   -0.070988
   116  H    0.180076
   117  C    0.626235
   118  C   -0.062729
   119  H    0.137042
   120  O   -0.627457
   121  C   -0.457247
   122  H    0.170881
   123  H    0.151306
   124  H    0.124376
   125  C   -0.484210
   126  H    0.210675
   127  H    0.143867
   128  H    0.142409
   129  N   -0.594314
   130  H    0.371652
   131  C   -0.087577
   132  H    0.145637
   133  C    0.587020
   134  C   -0.255030
   135  H    0.166363
   136  H    0.143457
   137  O   -0.579170
   138  C   -0.285528
   139  H    0.155161
   140  H    0.124254
   141  C   -0.289821
   142  H    0.186369
   143  H    0.158251
   144  C   -0.188005
   145  H    0.215336
   146  H    0.191306
   147  N   -0.764804
   148  H    0.395005
   149  H    0.451313
   150  H    0.397309
   151  O   -0.610719
   152  H    0.428529
 Sum of Mulliken charges =   1.00000

 Dipole moment (field-independent basis, Debye):
    X=            -50.1877    Y=            -16.2517    Z=            -30.3770  Tot=             60.8743
 Quadrupole moment (field-independent basis, Debye-Ang):
   XX=           -402.0782   YY=           -433.1526   ZZ=            114.4949
   XY=             -1.7962   XZ=            272.6830   YZ=             83.2153

 Normal termination of Gaussian 16 at Mon Jul 11 13:01:42 2022.
