 Gaussian 16, Revision C.01,
 Gaussian 16:  ES64L-G16RevC.01  3-Jul-2019

 -------------------------------------------------------------------
 # B3LYP/6-31G* guess=read geom=check nosymm integral(ultrafinegrid)
 -------------------------------------------------------------------

 ------------------------------------------------------
 Candidate Structure: Conf:234 Charge calc in gas phase
 ------------------------------------------------------
 Structure from the checkpoint file:  "conf-234.chk"
 Charge =  1 Multiplicity = 1

                          Input orientation:
 ---------------------------------------------------------------------
 Center     Atomic      Atomic             Coordinates (Angstroms)
 Number     Number       Type             X           Y           Z
 ---------------------------------------------------------------------
      1          7           0       -8.864680   -5.653932   -4.777457
      2          1           0       -7.884192   -5.864054   -5.048773
      3          1           0       -9.414757   -6.511808   -4.689642
      4          1           0       -8.834921   -5.164844   -3.846061
      5          6           0       -9.378155   -4.725150   -5.856458
      6          1           0       -9.598036   -5.359141   -6.722541
      7          6           0       -8.118550   -3.890456   -6.204585
      8          6           0      -10.628953   -3.983856   -5.400201
      9          1           0      -11.004512   -3.343089   -6.202852
     10          1           0      -10.431786   -3.358739   -4.524666
     11          1           0      -11.428520   -4.689320   -5.151501
     12          8           0       -7.018225   -4.448417   -6.075254
     13          7           0       -8.310901   -2.639317   -6.615322
     14          1           0       -9.231154   -2.176003   -6.617912
     15          6           0       -7.209693   -1.699142   -6.881233
     16          1           0       -6.415312   -2.243570   -7.401081
     17          6           0       -6.681138   -1.153108   -5.528504
     18          6           0       -7.720046   -0.548358   -7.762186
     19          1           0       -7.961854   -0.945363   -8.755549
     20          1           0       -6.914502    0.179319   -7.887238
     21          8           0       -7.035193   -0.054764   -5.108594
     22          6           0       -8.993579    0.111148   -7.227378
     23          7           0       -9.052044    1.456471   -7.298957
     24          1           0       -9.871050    1.910236   -6.914199
     25          1           0       -8.214991    2.012204   -7.397701
     26          8           0       -9.958076   -0.567697   -6.848044
     27          7           0       -5.873066   -2.008993   -4.860011
     28          1           0       -5.602555   -2.894533   -5.280103
     29          6           0       -5.359271   -1.764456   -3.520002
     30          1           0       -5.474588   -0.698093   -3.309809
     31          6           0       -3.882911   -2.210321   -3.519065
     32          6           0       -6.119349   -2.618640   -2.477455
     33          1           0       -5.967344   -3.669439   -2.751200
     34          1           0       -5.669360   -2.472816   -1.489011
     35          8           0       -3.581908   -3.279865   -4.050888
     36          6           0       -7.630851   -2.294906   -2.416708
     37          1           0       -8.031247   -2.198896   -3.428612
     38          1           0       -7.800949   -1.353548   -1.887886
     39          6           0       -8.382345   -3.405879   -1.732631
     40          8           0       -8.835042   -4.407365   -2.286119
     41          8           0       -8.492133   -3.235870   -0.415909
     42          7           0       -3.020997   -1.392248   -2.891306
     43          1           0       -3.306627   -0.507685   -2.478430
     44          6           0       -1.594154   -1.668323   -2.751597
     45          1           0       -1.473612   -2.721457   -2.478963
     46          6           0       -1.124896   -0.751374   -1.605152
     47          6           0       -0.849648   -1.383058   -4.083162
     48          1           0       -0.929401   -0.306564   -4.284385
     49          1           0       -1.415641   -1.900419   -4.867421
     50          8           0       -1.769707    0.260212   -1.313914
     51          6           0        0.626471   -1.821737   -4.176495
     52          1           0        1.199499   -1.321522   -3.384188
     53          6           0        0.801848   -3.339903   -4.009799
     54          1           0        0.218675   -3.886053   -4.761925
     55          1           0        0.483539   -3.699684   -3.023864
     56          1           0        1.853668   -3.621526   -4.128014
     57          6           0        1.207680   -1.360436   -5.522622
     58          1           0        0.680471   -1.833149   -6.361304
     59          1           0        1.124736   -0.274027   -5.644464
     60          1           0        2.267110   -1.627745   -5.603133
     61          7           0        0.010334   -1.115535   -0.977600
     62          1           0        0.546287   -1.929222   -1.263808
     63          6           0        0.665651   -0.289077    0.030680
     64          1           0        0.459943    0.757403   -0.211683
     65          6           0        2.168246   -0.596988   -0.105613
     66          6           0        0.118144   -0.617398    1.443730
     67          1           0       -0.975788   -0.576402    1.365762
     68          1           0        0.383909   -1.658566    1.669811
     69          8           0        2.542540   -1.682150   -0.551681
     70          6           0        0.565729    0.297226    2.602397
     71          1           0        1.662687    0.289632    2.661563
     72          6           0        0.108098    1.752752    2.413471
     73          1           0       -0.984329    1.811665    2.329009
     74          1           0        0.528685    2.218536    1.514093
     75          1           0        0.413931    2.367968    3.266675
     76          6           0        0.030799   -0.262665    3.930091
     77          1           0       -1.066714   -0.277904    3.936516
     78          1           0        0.380137   -1.287473    4.103152
     79          1           0        0.358731    0.352730    4.775498
     80          7           0        3.014864    0.389718    0.275573
     81          1           0        2.654916    1.219690    0.732974
     82          6           0        4.462965    0.221846    0.356041
     83          1           0        4.671258   -0.841487    0.203729
     84          6           0        4.862197    0.659091    1.773462
     85          6           0        5.204610    1.053295   -0.738000
     86          1           0        4.883543    2.097819   -0.607939
     87          8           0        4.280067    1.609780    2.320875
     88          6           0        4.771242    0.587913   -2.144071
     89          1           0        5.153866   -0.427541   -2.317316
     90          1           0        3.678793    0.511283   -2.171758
     91          6           0        6.730450    0.990894   -0.561764
     92          1           0        7.092998   -0.045020   -0.593269
     93          1           0        7.057362    1.434763    0.383041
     94          1           0        7.231756    1.538668   -1.364261
     95          6           0        5.222915    1.515161   -3.279012
     96          1           0        4.826149    1.166071   -4.238706
     97          1           0        6.312649    1.558707   -3.375493
     98          1           0        4.860791    2.538930   -3.123251
     99          7           0        5.864612   -0.022757    2.357237
    100          1           0        6.290095   -0.816274    1.877370
    101          6           0        6.319461    0.197081    3.734492
    102          1           0        5.426426    0.378657    4.346970
    103          6           0        7.252208    1.437482    3.912252
    104          6           0        7.025056   -1.082307    4.224913
    105          1           0        6.285048   -1.882631    4.312254
    106          1           0        7.459136   -0.892257    5.207674
    107          8           0        8.363908    1.318332    4.448908
    108          6           0        8.082131   -1.565925    3.226499
    109          7           0        9.373870   -1.287522    3.539002
    110          1           0        9.530707   -0.468210    4.117493
    111          1           0       10.053634   -1.470871    2.810034
    112          8           0        7.740251   -2.168715    2.207326
    113          7           0        6.729316    2.596688    3.482107
    114          1           0        5.768228    2.562275    3.143524
    115          6           0        7.422324    3.889299    3.466267
    116          1           0        8.176464    3.869616    2.669458
    117          6           0        8.142907    4.166644    4.798205
    118          6           0        6.394627    5.013094    3.141610
    119          1           0        5.556784    4.877819    3.840814
    120          8           0        7.557988    3.885393    5.881284
    121          6           0        6.979923    6.417928    3.368103
    122          1           0        7.932747    6.565501    2.847033
    123          1           0        6.272867    7.171881    3.005516
    124          1           0        7.156530    6.615131    4.429674
    125          6           0        5.867032    4.879009    1.702532
    126          1           0        6.682950    5.001856    0.979531
    127          1           0        5.126457    5.660886    1.501675
    128          1           0        5.381038    3.915823    1.512749
    129          7           0        9.326602    4.743539    4.634333
    130          1           0        9.644264    5.058088    3.683527
    131          6           0       10.207483    5.507155    5.535030
    132          1           0        9.590184    6.108249    6.214529
    133          6           0       11.023647    6.475705    4.574792
    134          6           0       11.149385    4.620576    6.383952
    135          1           0       11.640990    5.266351    7.116888
    136          1           0       11.931546    4.178697    5.754827
    137          8           0       11.833694    7.209210    5.152195
    138          6           0       10.246308    3.554385    6.988153
    139          1           0        9.866697    2.998597    6.125097
    140          1           0        9.394629    4.109345    7.393368
    141          6           0       10.611991    2.495155    8.027306
    142          1           0       11.543017    1.964849    7.794367
    143          1           0       10.724272    2.914566    9.035254
    144          6           0        9.472920    1.459768    7.985655
    145          1           0        9.548334    0.844896    7.085873
    146          1           0        9.431930    0.811119    8.865090
    147          7           0        8.107527    2.133237    7.866571
    148          1           0        7.365341    1.430780    7.823499
    149          1           0        7.995773    2.773812    6.996891
    150          1           0        7.918173    2.728294    8.678781
    151          8           0       10.737243    6.337058    3.346796
    152          1           0       -8.955099   -4.011710   -0.042600
 ---------------------------------------------------------------------

 SCF Done:  E(RB3LYP) =  -3473.72568517     A.U. after    3 cycles

 Alpha  occ. eigenvalues --  -19.32133 -19.27584 -19.25431 -19.22018 -19.21514
 Alpha  occ. eigenvalues --  -19.19539 -19.19341 -19.18633 -19.18629 -19.18389
 Alpha  occ. eigenvalues --  -19.17956 -19.15748 -19.06171 -19.04714 -14.57590
 Alpha  occ. eigenvalues --  -14.52494 -14.48468 -14.45548 -14.45447 -14.43689
 Alpha  occ. eigenvalues --  -14.43482 -14.42812 -14.42695 -14.41512 -14.41075
 Alpha  occ. eigenvalues --  -14.37213 -10.45290 -10.42559 -10.39764 -10.39724
 Alpha  occ. eigenvalues --  -10.38806 -10.36783 -10.36248 -10.35753 -10.35548
 Alpha  occ. eigenvalues --  -10.35459 -10.35436 -10.35138 -10.32972 -10.32885
 Alpha  occ. eigenvalues --  -10.32388 -10.32272 -10.31559 -10.31105 -10.30694
 Alpha  occ. eigenvalues --  -10.30425 -10.30252 -10.29887 -10.29740 -10.27500
 Alpha  occ. eigenvalues --  -10.26878 -10.26080 -10.25349 -10.24953 -10.24918
 Alpha  occ. eigenvalues --  -10.24900 -10.24767 -10.23891 -10.23860 -10.23144
 Alpha  occ. eigenvalues --  -10.23007 -10.22994 -10.22931 -10.22791 -10.22782
 Alpha  occ. eigenvalues --  -10.22273 -10.22150 -10.22031 -10.21566 -10.20346
 Alpha  occ. eigenvalues --  -10.19952  -1.23511  -1.17755  -1.14253  -1.13877
 Alpha  occ. eigenvalues --   -1.13216  -1.11971  -1.11510  -1.11403  -1.10647
 Alpha  occ. eigenvalues --   -1.09997  -1.09792  -1.09426  -1.07254  -1.05794
 Alpha  occ. eigenvalues --   -1.05283  -1.02127  -1.00409  -1.00128  -1.00088
 Alpha  occ. eigenvalues --   -0.99356  -0.99137  -0.99048  -0.97949  -0.96310
 Alpha  occ. eigenvalues --   -0.94048  -0.92361  -0.90960  -0.90332  -0.88613
 Alpha  occ. eigenvalues --   -0.87900  -0.87142  -0.86638  -0.86505  -0.85344
 Alpha  occ. eigenvalues --   -0.84616  -0.84205  -0.82315  -0.80695  -0.80475
 Alpha  occ. eigenvalues --   -0.80277  -0.78825  -0.78191  -0.76833  -0.75859
 Alpha  occ. eigenvalues --   -0.75469  -0.74375  -0.73869  -0.73789  -0.72864
 Alpha  occ. eigenvalues --   -0.72722  -0.72643  -0.72261  -0.71694  -0.71345
 Alpha  occ. eigenvalues --   -0.70692  -0.69689  -0.69224  -0.68938  -0.68543
 Alpha  occ. eigenvalues --   -0.68182  -0.67361  -0.66336  -0.66115  -0.65718
 Alpha  occ. eigenvalues --   -0.65325  -0.65187  -0.64651  -0.64427  -0.64323
 Alpha  occ. eigenvalues --   -0.63861  -0.63345  -0.63273  -0.62259  -0.62012
 Alpha  occ. eigenvalues --   -0.61592  -0.61512  -0.61393  -0.61204  -0.60204
 Alpha  occ. eigenvalues --   -0.59948  -0.59794  -0.59451  -0.59178  -0.58509
 Alpha  occ. eigenvalues --   -0.58061  -0.57684  -0.57138  -0.56927  -0.56621
 Alpha  occ. eigenvalues --   -0.55981  -0.55945  -0.55687  -0.55234  -0.55016
 Alpha  occ. eigenvalues --   -0.54782  -0.54604  -0.54247  -0.53795  -0.53254
 Alpha  occ. eigenvalues --   -0.53144  -0.53109  -0.52919  -0.52800  -0.52781
 Alpha  occ. eigenvalues --   -0.52136  -0.52115  -0.51827  -0.51536  -0.51445
 Alpha  occ. eigenvalues --   -0.50831  -0.50511  -0.50198  -0.50064  -0.50015
 Alpha  occ. eigenvalues --   -0.49810  -0.49535  -0.49451  -0.49262  -0.49170
 Alpha  occ. eigenvalues --   -0.49077  -0.48815  -0.48438  -0.48238  -0.48209
 Alpha  occ. eigenvalues --   -0.47836  -0.47774  -0.47606  -0.47488  -0.47324
 Alpha  occ. eigenvalues --   -0.47245  -0.47194  -0.47043  -0.46810  -0.46098
 Alpha  occ. eigenvalues --   -0.46007  -0.45988  -0.45662  -0.45327  -0.45272
 Alpha  occ. eigenvalues --   -0.45140  -0.44788  -0.44752  -0.44558  -0.44396
 Alpha  occ. eigenvalues --   -0.44158  -0.43939  -0.43627  -0.43425  -0.43245
 Alpha  occ. eigenvalues --   -0.43184  -0.42976  -0.42828  -0.42646  -0.42101
 Alpha  occ. eigenvalues --   -0.42039  -0.41828  -0.41643  -0.41472  -0.41115
 Alpha  occ. eigenvalues --   -0.41082  -0.40870  -0.40287  -0.40012  -0.39550
 Alpha  occ. eigenvalues --   -0.39449  -0.39078  -0.38754  -0.38504  -0.38399
 Alpha  occ. eigenvalues --   -0.38315  -0.38263  -0.38091  -0.37948  -0.37604
 Alpha  occ. eigenvalues --   -0.37574  -0.37208  -0.36918  -0.36781  -0.36304
 Alpha  occ. eigenvalues --   -0.35992  -0.35896  -0.35703  -0.35173  -0.34938
 Alpha  occ. eigenvalues --   -0.34640  -0.33824  -0.33562  -0.33445  -0.33289
 Alpha  occ. eigenvalues --   -0.33065  -0.32867  -0.32178  -0.31914  -0.31656
 Alpha  occ. eigenvalues --   -0.31472  -0.31239  -0.30853  -0.29575  -0.28460
 Alpha  occ. eigenvalues --   -0.21235  -0.21016  -0.18993
 Alpha virt. eigenvalues --   -0.12437  -0.12192  -0.08395  -0.07455  -0.07192
 Alpha virt. eigenvalues --   -0.06473  -0.05557  -0.05416  -0.04986  -0.04410
 Alpha virt. eigenvalues --   -0.03957  -0.03731  -0.03343  -0.02767  -0.02041

 Mulliken charges:
               1
     1  N   -0.771424
     2  H    0.420319
     3  H    0.402988
     4  H    0.448196
     5  C   -0.117276
     6  H    0.228084
     7  C    0.655816
     8  C   -0.488138
     9  H    0.220476
    10  H    0.195045
    11  H    0.185647
    12  O   -0.550671
    13  N   -0.636928
    14  H    0.413181
    15  C   -0.080884
    16  H    0.196919
    17  C    0.629112
    18  C   -0.382195
    19  H    0.200784
    20  H    0.180756
    21  O   -0.524120
    22  C    0.647307
    23  N   -0.726296
    24  H    0.360973
    25  H    0.360415
    26  O   -0.552220
    27  N   -0.609536
    28  H    0.376236
    29  C   -0.067522
    30  H    0.186900
    31  C    0.635907
    32  C   -0.282859
    33  H    0.170016
    34  H    0.182258
    35  O   -0.546895
    36  C   -0.342434
    37  H    0.176908
    38  H    0.203155
    39  C    0.592524
    40  O   -0.519337
    41  O   -0.518048
    42  N   -0.622626
    43  H    0.357953
    44  C   -0.052666
    45  H    0.176198
    46  C    0.618952
    47  C   -0.257045
    48  H    0.143562
    49  H    0.163226
    50  O   -0.549957
    51  C   -0.094169
    52  H    0.137518
    53  C   -0.449765
    54  H    0.151809
    55  H    0.136111
    56  H    0.159314
    57  C   -0.445439
    58  H    0.143128
    59  H    0.144466
    60  H    0.153087
    61  N   -0.621979
    62  H    0.366087
    63  C   -0.062839
    64  H    0.180270
    65  C    0.619971
    66  C   -0.251214
    67  H    0.156864
    68  H    0.144079
    69  O   -0.539698
    70  C   -0.095701
    71  H    0.136483
    72  C   -0.448104
    73  H    0.151913
    74  H    0.136952
    75  H    0.155441
    76  C   -0.444311
    77  H    0.143482
    78  H    0.142854
    79  H    0.147390
    80  N   -0.610638
    81  H    0.358100
    82  C   -0.070409
    83  H    0.189131
    84  C    0.634315
    85  C   -0.070749
    86  H    0.138021
    87  O   -0.574593
    88  C   -0.255029
    89  H    0.144367
    90  H    0.142112
    91  C   -0.481607
    92  H    0.155100
    93  H    0.156354
    94  H    0.168253
    95  C   -0.453158
    96  H    0.149250
    97  H    0.155509
    98  H    0.146561
    99  N   -0.615806
   100  H    0.386045
   101  C   -0.081419
   102  H    0.184828
   103  C    0.639308
   104  C   -0.360495
   105  H    0.185004
   106  H    0.153654
   107  O   -0.569516
   108  C    0.570792
   109  N   -0.728637
   110  H    0.369495
   111  H    0.345991
   112  O   -0.514952
   113  N   -0.648071
   114  H    0.393729
   115  C    0.000145
   116  H    0.170055
   117  C    0.649150
   118  C   -0.111493
   119  H    0.141058
   120  O   -0.652038
   121  C   -0.475559
   122  H    0.193532
   123  H    0.144874
   124  H    0.163692
   125  C   -0.470885
   126  H    0.157206
   127  H    0.154092
   128  H    0.146244
   129  N   -0.596773
   130  H    0.376136
   131  C   -0.085432
   132  H    0.147755
   133  C    0.595575
   134  C   -0.257020
   135  H    0.168019
   136  H    0.147716
   137  O   -0.573158
   138  C   -0.307029
   139  H    0.172452
   140  H    0.131779
   141  C   -0.273549
   142  H    0.175231
   143  H    0.156594
   144  C   -0.190892
   145  H    0.212514
   146  H    0.182282
   147  N   -0.773749
   148  H    0.387971
   149  H    0.471960
   150  H    0.393783
   151  O   -0.618729
   152  H    0.430911
 Sum of Mulliken charges =   1.00000

 Dipole moment (field-independent basis, Debye):
    X=            -39.8070    Y=            -26.1129    Z=             -9.3665  Tot=             48.5202
 Quadrupole moment (field-independent basis, Debye-Ang):
   XX=           -210.4954   YY=           -449.7812   ZZ=           -159.7076
   XY=            -10.3047   XZ=            232.3524   YZ=             14.7054

 Normal termination of Gaussian 16 at Mon Jul 11 13:01:55 2022.
