 Gaussian 16, Revision C.01,
 Gaussian 16:  ES64L-G16RevC.01  3-Jul-2019

 -------------------------------------------------------------------
 # B3LYP/6-31G* guess=read geom=check nosymm integral(ultrafinegrid)
 -------------------------------------------------------------------

 ------------------------------------------------------
 Candidate Structure: Conf:474 Charge calc in gas phase
 ------------------------------------------------------
 Structure from the checkpoint file:  "conf-474.chk"
 Charge =  1 Multiplicity = 1

                          Input orientation:
 ---------------------------------------------------------------------
 Center     Atomic      Atomic             Coordinates (Angstroms)
 Number     Number       Type             X           Y           Z
 ---------------------------------------------------------------------
      1          7           0       -3.046649   -8.003235   -1.210743
      2          1           0       -2.266530   -8.576401   -1.541507
      3          1           0       -3.791832   -8.624469   -0.883507
      4          1           0       -2.721755   -7.352456   -0.415495
      5          6           0       -3.528994   -6.982870   -2.225812
      6          1           0       -2.916518   -7.096398   -3.123950
      7          6           0       -3.197012   -5.633622   -1.516013
      8          6           0       -5.010978   -7.171357   -2.544905
      9          1           0       -5.337788   -6.409093   -3.257417
     10          1           0       -5.626478   -7.067750   -1.644440
     11          1           0       -5.196689   -8.149013   -3.001276
     12          8           0       -2.714384   -5.701323   -0.370337
     13          7           0       -3.456812   -4.532252   -2.194544
     14          1           0       -3.904455   -4.528355   -3.120511
     15          6           0       -3.320788   -3.163700   -1.694386
     16          1           0       -3.793359   -3.088907   -0.709833
     17          6           0       -4.117539   -2.329239   -2.736226
     18          6           0       -1.837048   -2.723133   -1.589149
     19          1           0       -1.500811   -2.326168   -2.554285
     20          1           0       -1.226872   -3.597872   -1.345270
     21          8           0       -4.553073   -2.887127   -3.750023
     22          6           0       -1.626015   -1.632426   -0.533137
     23          7           0       -0.431301   -1.636882    0.073810
     24          1           0       -0.155954   -0.913957    0.746371
     25          1           0        0.274323   -2.318120   -0.163785
     26          8           0       -2.512909   -0.804994   -0.275312
     27          7           0       -4.269260   -1.032470   -2.432320
     28          1           0       -3.713124   -0.710072   -1.626749
     29          6           0       -4.599281   -0.057800   -3.459141
     30          1           0       -5.302435   -0.534475   -4.151087
     31          6           0       -3.298081    0.267513   -4.253365
     32          6           0       -5.239586    1.184955   -2.814053
     33          1           0       -4.531476    1.638176   -2.112572
     34          1           0       -5.433022    1.948199   -3.575070
     35          8           0       -2.245282   -0.327670   -4.022390
     36          6           0       -6.548099    0.875693   -2.084045
     37          1           0       -6.406349    0.073070   -1.349673
     38          1           0       -7.323478    0.517756   -2.772564
     39          6           0       -7.080908    2.086388   -1.344739
     40          8           0       -6.491146    3.132476   -1.185102
     41          8           0       -8.321662    1.858228   -0.856671
     42          7           0       -3.410281    1.213029   -5.217459
     43          1           0       -4.265468    1.746968   -5.296764
     44          6           0       -2.253418    1.701356   -5.986427
     45          1           0       -1.592432    0.840526   -6.111056
     46          6           0       -1.546564    2.789245   -5.139369
     47          6           0       -2.718858    2.240899   -7.341213
     48          1           0       -3.358140    3.113011   -7.155075
     49          1           0       -3.336983    1.469262   -7.820821
     50          8           0       -1.813008    3.981634   -5.268217
     51          6           0       -1.587994    2.661163   -8.302312
     52          1           0       -0.981019    3.417182   -7.787681
     53          6           0       -0.677232    1.487642   -8.695712
     54          1           0       -1.252318    0.688257   -9.181840
     55          1           0       -0.157730    1.051785   -7.834566
     56          1           0        0.092006    1.817549   -9.403076
     57          6           0       -2.191564    3.319590   -9.551992
     58          1           0       -2.822337    2.611966  -10.106182
     59          1           0       -2.809404    4.185428   -9.287769
     60          1           0       -1.404704    3.664597  -10.232108
     61          7           0       -0.676382    2.295797   -4.222624
     62          1           0       -0.516692    1.295558   -4.170497
     63          6           0        0.020926    3.119500   -3.253952
     64          1           0       -0.011027    4.147785   -3.624203
     65          6           0        1.472759    2.626824   -3.155360
     66          6           0       -0.613265    3.034418   -1.838961
     67          1           0       -0.575116    1.979984   -1.531086
     68          1           0        0.026801    3.588368   -1.137031
     69          8           0        1.782235    1.470845   -3.427486
     70          6           0       -2.059240    3.549246   -1.714355
     71          1           0       -2.660208    3.038978   -2.479388
     72          6           0       -2.629988    3.166842   -0.338674
     73          1           0       -2.092708    3.687079    0.466779
     74          1           0       -2.553286    2.087092   -0.154727
     75          1           0       -3.686389    3.448709   -0.263043
     76          6           0       -2.173803    5.060231   -1.962198
     77          1           0       -1.538011    5.622372   -1.264660
     78          1           0       -1.892423    5.323089   -2.986393
     79          1           0       -3.206025    5.395236   -1.809855
     80          7           0        2.360016    3.562846   -2.701421
     81          1           0        1.974678    4.420545   -2.322439
     82          6           0        3.655416    3.190406   -2.142527
     83          1           0        3.876434    2.188443   -2.518118
     84          6           0        3.484550    3.144212   -0.614393
     85          6           0        4.769463    4.182315   -2.573956
     86          1           0        4.501335    5.160549   -2.147839
     87          8           0        2.788016    3.989468   -0.035505
     88          6           0        4.816786    4.352915   -4.110152
     89          1           0        3.870791    4.792581   -4.445468
     90          1           0        5.595882    5.094425   -4.331328
     91          6           0        6.137460    3.783583   -1.995548
     92          1           0        6.441469    2.779738   -2.315174
     93          1           0        6.146534    3.796112   -0.901138
     94          1           0        6.907153    4.483781   -2.337283
     95          6           0        5.085036    3.076870   -4.919129
     96          1           0        5.145032    3.315058   -5.986769
     97          1           0        4.284398    2.338902   -4.795342
     98          1           0        6.032188    2.601529   -4.639518
     99          7           0        4.082824    2.118814    0.034427
    100          1           0        4.769580    1.544574   -0.447001
    101          6           0        4.163303    2.036199    1.486912
    102          1           0        3.879511    3.011063    1.893852
    103          6           0        5.634071    1.719583    1.837258
    104          6           0        3.265938    0.918802    2.063451
    105          1           0        3.375408    0.896079    3.156173
    106          1           0        3.617142   -0.050888    1.697756
    107          8           0        6.353461    1.146860    1.020158
    108          6           0        1.763813    0.963058    1.772378
    109          7           0        1.191724    2.165166    1.543639
    110          1           0        1.726902    2.977966    1.236080
    111          1           0        0.201495    2.161179    1.331739
    112          8           0        1.118129   -0.088235    1.834813
    113          7           0        6.022094    2.099054    3.074870
    114          1           0        5.323914    2.397287    3.752137
    115          6           0        7.260837    1.655168    3.701929
    116          1           0        7.616893    0.777281    3.151432
    117          6           0        6.883547    1.254359    5.144111
    118          6           0        8.381824    2.736793    3.683144
    119          1           0        9.236422    2.294532    4.215417
    120          8           0        5.799735    1.587910    5.629910
    121          6           0        8.833145    3.044690    2.249099
    122          1           0        8.028766    3.517385    1.675167
    123          1           0        9.684396    3.734474    2.261940
    124          1           0        9.132845    2.137971    1.713679
    125          6           0        7.969355    4.015948    4.425356
    126          1           0        7.120189    4.499171    3.928252
    127          1           0        8.798190    4.731636    4.435009
    128          1           0        7.683867    3.819983    5.464503
    129          7           0        7.815102    0.548323    5.819358
    130          1           0        8.732861    0.371869    5.422644
    131          6           0        7.705598    0.247887    7.240433
    132          1           0        7.298805    1.122265    7.760447
    133          6           0        9.108792   -0.056853    7.743955
    134          6           0        6.769879   -0.955288    7.541699
    135          1           0        5.835893   -0.743932    7.011230
    136          1           0        6.535972   -0.933193    8.611667
    137          8           0        9.141306   -0.274657    9.049281
    138          6           0        7.277322   -2.364901    7.151779
    139          1           0        7.815204   -2.316976    6.194978
    140          1           0        6.385179   -2.968702    6.949359
    141          6           0        8.128105   -3.136231    8.207803
    142          1           0        7.933642   -2.714300    9.201233
    143          1           0        7.754946   -4.165758    8.245425
    144          6           0        9.663927   -3.201246    7.982517
    145          1           0        9.974763   -4.247164    7.854045
    146          1           0        9.944109   -2.669087    7.070852
    147          7           0       10.428145   -2.562710    9.088268
    148          1           0       11.422920   -2.565181    8.865566
    149          1           0       10.319690   -3.101239    9.947769
    150          1           0        9.846832   -1.009156    9.212167
    151          8           0       10.056109   -0.198911    6.982961
    152          1           0       -8.587171    2.670318   -0.384256
 ---------------------------------------------------------------------

 SCF Done:  E(RB3LYP) =  -3473.78144221     A.U. after    1 cycles

 Alpha  occ. eigenvalues --  -19.27147 -19.25338 -19.21250 -19.21002 -19.19887
 Alpha  occ. eigenvalues --  -19.19439 -19.19061 -19.18774 -19.18191 -19.18069
 Alpha  occ. eigenvalues --  -19.17586 -19.17336 -19.17254 -19.16228 -14.60048
 Alpha  occ. eigenvalues --  -14.49118 -14.43402 -14.43217 -14.42890 -14.42046
 Alpha  occ. eigenvalues --  -14.41829 -14.41426 -14.41169 -14.40865 -14.40548
 Alpha  occ. eigenvalues --  -14.40178 -10.43649 -10.41439 -10.38109 -10.37892
 Alpha  occ. eigenvalues --  -10.37020 -10.36065 -10.35940 -10.35543 -10.35422
 Alpha  occ. eigenvalues --  -10.35190 -10.34267 -10.34204 -10.34170 -10.33986
 Alpha  occ. eigenvalues --  -10.33448 -10.31154 -10.30507 -10.28858 -10.28821
 Alpha  occ. eigenvalues --  -10.28769 -10.28651 -10.28286 -10.28267 -10.26948
 Alpha  occ. eigenvalues --  -10.26878 -10.26854 -10.26344 -10.24857 -10.24753
 Alpha  occ. eigenvalues --  -10.23853 -10.23758 -10.23725 -10.23589 -10.23557
 Alpha  occ. eigenvalues --  -10.23367 -10.23359 -10.22634 -10.22599 -10.21951
 Alpha  occ. eigenvalues --  -10.21754 -10.21731 -10.21472 -10.21470 -10.21320
 Alpha  occ. eigenvalues --  -10.20700  -1.19483  -1.16287  -1.13928  -1.13469
 Alpha  occ. eigenvalues --   -1.13073  -1.10807  -1.10761  -1.10715  -1.09901
 Alpha  occ. eigenvalues --   -1.09133  -1.09035  -1.08923  -1.07904  -1.07329
 Alpha  occ. eigenvalues --   -1.05858  -1.04909  -1.00831  -0.99419  -0.99304
 Alpha  occ. eigenvalues --   -0.98536  -0.98116  -0.97731  -0.97502  -0.97140
 Alpha  occ. eigenvalues --   -0.95903  -0.95482  -0.93489  -0.88729  -0.86927
 Alpha  occ. eigenvalues --   -0.86760  -0.86132  -0.85804  -0.85192  -0.84667
 Alpha  occ. eigenvalues --   -0.83900  -0.81880  -0.81721  -0.80474  -0.80452
 Alpha  occ. eigenvalues --   -0.79010  -0.78139  -0.77646  -0.77036  -0.75683
 Alpha  occ. eigenvalues --   -0.74484  -0.74411  -0.72936  -0.72851  -0.72773
 Alpha  occ. eigenvalues --   -0.72522  -0.72161  -0.72011  -0.71257  -0.70599
 Alpha  occ. eigenvalues --   -0.69031  -0.68786  -0.68217  -0.67574  -0.66851
 Alpha  occ. eigenvalues --   -0.66257  -0.65788  -0.65269  -0.65209  -0.64837
 Alpha  occ. eigenvalues --   -0.64680  -0.64500  -0.64473  -0.63968  -0.63323
 Alpha  occ. eigenvalues --   -0.62961  -0.62387  -0.61776  -0.61358  -0.61145
 Alpha  occ. eigenvalues --   -0.61115  -0.60696  -0.60614  -0.59889  -0.59357
 Alpha  occ. eigenvalues --   -0.58705  -0.58559  -0.57752  -0.57336  -0.56605
 Alpha  occ. eigenvalues --   -0.56149  -0.55939  -0.55725  -0.55354  -0.54895
 Alpha  occ. eigenvalues --   -0.54588  -0.54382  -0.54340  -0.54188  -0.54109
 Alpha  occ. eigenvalues --   -0.53859  -0.53664  -0.53341  -0.53173  -0.52954
 Alpha  occ. eigenvalues --   -0.52698  -0.52466  -0.52305  -0.52124  -0.51831
 Alpha  occ. eigenvalues --   -0.51815  -0.51474  -0.51319  -0.51199  -0.50856
 Alpha  occ. eigenvalues --   -0.50409  -0.50260  -0.50135  -0.50012  -0.49834
 Alpha  occ. eigenvalues --   -0.49319  -0.49135  -0.48712  -0.48442  -0.48239
 Alpha  occ. eigenvalues --   -0.48014  -0.47952  -0.47756  -0.47649  -0.47423
 Alpha  occ. eigenvalues --   -0.47324  -0.47074  -0.46769  -0.46472  -0.46120
 Alpha  occ. eigenvalues --   -0.45945  -0.45914  -0.45621  -0.45302  -0.45223
 Alpha  occ. eigenvalues --   -0.45180  -0.45019  -0.44924  -0.44643  -0.44427
 Alpha  occ. eigenvalues --   -0.44231  -0.44176  -0.43938  -0.43901  -0.43439
 Alpha  occ. eigenvalues --   -0.43153  -0.43008  -0.42855  -0.42805  -0.42767
 Alpha  occ. eigenvalues --   -0.42625  -0.42570  -0.42361  -0.42231  -0.42106
 Alpha  occ. eigenvalues --   -0.41947  -0.41820  -0.41764  -0.41709  -0.41521
 Alpha  occ. eigenvalues --   -0.41010  -0.40721  -0.40601  -0.40096  -0.39209
 Alpha  occ. eigenvalues --   -0.39178  -0.38489  -0.38351  -0.38215  -0.38067
 Alpha  occ. eigenvalues --   -0.37662  -0.37612  -0.37461  -0.37391  -0.37306
 Alpha  occ. eigenvalues --   -0.37195  -0.37035  -0.37016  -0.36816  -0.36720
 Alpha  occ. eigenvalues --   -0.36569  -0.35741  -0.35009  -0.34436  -0.33987
 Alpha  occ. eigenvalues --   -0.33892  -0.33813  -0.33515  -0.33384  -0.33244
 Alpha  occ. eigenvalues --   -0.32594  -0.32458  -0.32374  -0.32313  -0.32036
 Alpha  occ. eigenvalues --   -0.31806  -0.31699  -0.30837  -0.30646  -0.30425
 Alpha  occ. eigenvalues --   -0.30337  -0.29610  -0.29224
 Alpha virt. eigenvalues --   -0.12438  -0.11290  -0.06814  -0.06355  -0.05430
 Alpha virt. eigenvalues --   -0.05151  -0.04852  -0.04747  -0.04519  -0.04303
 Alpha virt. eigenvalues --   -0.03914  -0.03401  -0.03107  -0.02741  -0.02313

 Mulliken charges:
               1
     1  N   -0.760858
     2  H    0.415739
     3  H    0.413691
     4  H    0.437705
     5  C   -0.103735
     6  H    0.227300
     7  C    0.654197
     8  C   -0.485245
     9  H    0.224358
    10  H    0.195004
    11  H    0.195228
    12  O   -0.547362
    13  N   -0.621112
    14  H    0.379904
    15  C   -0.054484
    16  H    0.210563
    17  C    0.616215
    18  C   -0.395137
    19  H    0.235407
    20  H    0.163520
    21  O   -0.552259
    22  C    0.645471
    23  N   -0.761399
    24  H    0.401926
    25  H    0.340337
    26  O   -0.546841
    27  N   -0.607976
    28  H    0.398319
    29  C   -0.087455
    30  H    0.192805
    31  C    0.646244
    32  C   -0.305304
    33  H    0.201718
    34  H    0.158500
    35  O   -0.544415
    36  C   -0.355802
    37  H    0.194054
    38  H    0.180674
    39  C    0.586197
    40  O   -0.455079
    41  O   -0.565835
    42  N   -0.610870
    43  H    0.340458
    44  C   -0.059650
    45  H    0.175991
    46  C    0.630597
    47  C   -0.273303
    48  H    0.154784
    49  H    0.134156
    50  O   -0.533650
    51  C   -0.081320
    52  H    0.153780
    53  C   -0.452355
    54  H    0.138691
    55  H    0.143847
    56  H    0.151757
    57  C   -0.446364
    58  H    0.137999
    59  H    0.150802
    60  H    0.148625
    61  N   -0.595375
    62  H    0.360313
    63  C   -0.080840
    64  H    0.185614
    65  C    0.623108
    66  C   -0.270752
    67  H    0.143373
    68  H    0.138244
    69  O   -0.534844
    70  C   -0.071476
    71  H    0.128436
    72  C   -0.479176
    73  H    0.132136
    74  H    0.152559
    75  H    0.169768
    76  C   -0.465976
    77  H    0.131867
    78  H    0.177527
    79  H    0.154338
    80  N   -0.592897
    81  H    0.343710
    82  C   -0.070902
    83  H    0.183830
    84  C    0.629407
    85  C   -0.088862
    86  H    0.139108
    87  O   -0.565129
    88  C   -0.249411
    89  H    0.145499
    90  H    0.139985
    91  C   -0.473586
    92  H    0.152866
    93  H    0.155365
    94  H    0.160094
    95  C   -0.469201
    96  H    0.152022
    97  H    0.166943
    98  H    0.146096
    99  N   -0.583742
   100  H    0.360388
   101  C   -0.099543
   102  H    0.187028
   103  C    0.622735
   104  C   -0.354247
   105  H    0.196177
   106  H    0.181651
   107  O   -0.536524
   108  C    0.598980
   109  N   -0.767352
   110  H    0.394747
   111  H    0.347221
   112  O   -0.545742
   113  N   -0.599427
   114  H    0.356375
   115  C   -0.068608
   116  H    0.177812
   117  C    0.626662
   118  C   -0.077662
   119  H    0.136795
   120  O   -0.551772
   121  C   -0.444284
   122  H    0.152426
   123  H    0.149977
   124  H    0.156803
   125  C   -0.461715
   126  H    0.149877
   127  H    0.156621
   128  H    0.159556
   129  N   -0.618856
   130  H    0.356415
   131  C   -0.033775
   132  H    0.189213
   133  C    0.602667
   134  C   -0.266695
   135  H    0.169765
   136  H    0.160322
   137  O   -0.606416
   138  C   -0.285970
   139  H    0.144314
   140  H    0.144466
   141  C   -0.281372
   142  H    0.158570
   143  H    0.144674
   144  C   -0.158669
   145  H    0.144124
   146  H    0.184591
   147  N   -0.772392
   148  H    0.336584
   149  H    0.326960
   150  H    0.457449
   151  O   -0.507224
   152  H    0.417513
 Sum of Mulliken charges =   1.00000

 Dipole moment (field-independent basis, Debye):
    X=             -4.3966    Y=            -29.1833    Z=             -1.8848  Tot=             29.5728
 Quadrupole moment (field-independent basis, Debye-Ang):
   XX=           -252.5268   YY=           -172.5756   ZZ=           -343.3653
   XY=             65.9754   XZ=            101.4130   YZ=             10.8093

 Normal termination of Gaussian 16 at Mon Jul 11 13:00:34 2022.
