 Gaussian 16, Revision C.01,
 Gaussian 16:  ES64L-G16RevC.01  3-Jul-2019

 -------------------------------------------------------------------
 # B3LYP/6-31G* guess=read geom=check nosymm integral(ultrafinegrid)
 -------------------------------------------------------------------

 ------------------------------------------------------
 Candidate Structure: Conf:549 Charge calc in gas phase
 ------------------------------------------------------
 Structure from the checkpoint file:  "conf-549.chk"
 Charge =  1 Multiplicity = 1

                          Input orientation:
 ---------------------------------------------------------------------
 Center     Atomic      Atomic             Coordinates (Angstroms)
 Number     Number       Type             X           Y           Z
 ---------------------------------------------------------------------
      1          7           0       -1.659529    6.729545   -4.589757
      2          1           0       -0.290590    5.981753   -3.905226
      3          1           0       -1.522164    7.736980   -4.675597
      4          1           0       -1.854375    6.377749   -5.529073
      5          6           0       -2.842380    6.465184   -3.730058
      6          1           0       -2.559740    6.771240   -2.719508
      7          6           0       -3.064901    4.945614   -3.769882
      8          6           0       -4.108249    7.199641   -4.182016
      9          1           0       -4.936324    7.016478   -3.488012
     10          1           0       -4.414590    6.857881   -5.175410
     11          1           0       -3.931667    8.280581   -4.214169
     12          8           0       -3.447311    4.388432   -4.804215
     13          7           0       -2.795614    4.271386   -2.626601
     14          1           0       -2.367506    4.734978   -1.828094
     15          6           0       -2.907457    2.828859   -2.558402
     16          1           0       -3.939154    2.550580   -2.808534
     17          6           0       -2.599517    2.397762   -1.117123
     18          6           0       -1.942975    2.103691   -3.559937
     19          1           0       -0.999298    1.820419   -3.085378
     20          1           0       -1.716487    2.791135   -4.373997
     21          8           0       -2.119663    3.191085   -0.305927
     22          6           0       -2.630345    0.860123   -4.085936
     23          7           0       -3.268317    1.012591   -5.262852
     24          1           0       -3.844850    0.257350   -5.611215
     25          1           0       -3.375483    1.936394   -5.665871
     26          8           0       -2.659465   -0.197728   -3.434590
     27          7           0       -2.850950    1.094591   -0.821117
     28          1           0       -3.165445    0.480936   -1.570084
     29          6           0       -2.388169    0.529538    0.440450
     30          1           0       -1.665354    1.259963    0.815472
     31          6           0       -1.571331   -0.769139    0.319633
     32          6           0       -3.492132    0.395554    1.506926
     33          1           0       -4.366537   -0.098701    1.068419
     34          1           0       -3.112507   -0.255829    2.297489
     35          8           0       -1.283669   -1.381667    1.354758
     36          6           0       -3.925120    1.739684    2.096605
     37          1           0       -4.774970    1.603565    2.777339
     38          1           0       -4.274204    2.434284    1.324209
     39          6           0       -2.845058    2.455473    2.877724
     40          8           0       -1.707741    2.055229    3.095793
     41          8           0       -3.277518    3.627933    3.353531
     42          7           0       -1.080720   -1.126522   -0.886604
     43          1           0       -1.374344   -0.653940   -1.738896
     44          6           0       -0.136885   -2.232677   -1.001269
     45          1           0       -0.665034   -3.176143   -0.813008
     46          6           0        0.975503   -2.103951    0.056290
     47          6           0        0.505015   -2.253652   -2.407477
     48          1           0        1.385233   -2.908978   -2.366298
     49          1           0        0.881000   -1.243074   -2.615988
     50          8           0        1.435219   -1.004405    0.417593
     51          6           0       -0.405170   -2.741017   -3.556472
     52          1           0       -1.332807   -2.155989   -3.549096
     53          6           0        0.295900   -2.478738   -4.898502
     54          1           0        1.241662   -3.031976   -4.966100
     55          1           0        0.520803   -1.413836   -5.028861
     56          1           0       -0.333823   -2.796757   -5.736839
     57          6           0       -0.770784   -4.226523   -3.416843
     58          1           0        0.128429   -4.856962   -3.421877
     59          1           0       -1.327463   -4.439052   -2.496170
     60          1           0       -1.402146   -4.548216   -4.252249
     61          7           0        1.487213   -3.267744    0.495867
     62          1           0        1.085411   -4.134346    0.160191
     63          6           0        2.525292   -3.373162    1.535347
     64          1           0        2.389897   -2.494669    2.173839
     65          6           0        3.950005   -3.288325    0.913287
     66          6           0        2.324817   -4.661991    2.339961
     67          1           0        1.251981   -4.767054    2.555176
     68          1           0        2.624508   -5.506607    1.708245
     69          8           0        4.735512   -4.230733    0.950383
     70          6           0        3.110473   -4.736243    3.666617
     71          1           0        4.167475   -4.559635    3.435735
     72          6           0        2.645123   -3.685015    4.686634
     73          1           0        1.582112   -3.814745    4.930360
     74          1           0        2.787044   -2.657746    4.326297
     75          1           0        3.211159   -3.775972    5.620230
     76          6           0        2.988514   -6.148107    4.258990
     77          1           0        1.943300   -6.393261    4.489315
     78          1           0        3.366570   -6.904170    3.561992
     79          1           0        3.561818   -6.233893    5.188657
     80          7           0        4.220369   -2.087469    0.351517
     81          1           0        3.522185   -1.346147    0.368440
     82          6           0        5.488156   -1.750468   -0.282970
     83          1           0        6.301302   -2.021199    0.400881
     84          6           0        5.457749   -0.219882   -0.443795
     85          6           0        5.690982   -2.551144   -1.614237
     86          1           0        5.425791   -3.574303   -1.324822
     87          8           0        4.438282    0.428848   -0.143383
     88          6           0        7.142515   -2.615574   -2.136871
     89          1           0        7.129203   -3.310327   -2.987252
     90          1           0        7.457302   -1.654044   -2.561830
     91          6           0        4.724945   -2.092725   -2.714275
     92          1           0        4.991446   -1.100763   -3.098568
     93          1           0        3.692410   -2.048336   -2.351485
     94          1           0        4.753414   -2.788426   -3.560164
     95          6           0        8.187291   -3.102413   -1.124449
     96          1           0        9.140799   -3.296751   -1.625505
     97          1           0        7.864630   -4.027843   -0.633333
     98          1           0        8.390706   -2.361531   -0.342119
     99          7           0        6.545627    0.387283   -0.951411
    100          1           0        7.389017   -0.127612   -1.205597
    101          6           0        6.632045    1.843226   -1.094988
    102          1           0        6.120494    2.284663   -0.230359
    103          6           0        5.916617    2.415141   -2.354808
    104          6           0        8.106767    2.280727   -1.082545
    105          1           0        8.544902    2.016404   -0.115219
    106          1           0        8.150522    3.363781   -1.202573
    107          8           0        6.433805    3.312270   -3.019948
    108          6           0        8.912665    1.552880   -2.156722
    109          7           0        9.362608    2.310349   -3.186178
    110          1           0        8.889513    3.181817   -3.388736
    111          1           0        9.793251    1.821506   -3.961411
    112          8           0        9.133295    0.342541   -2.059367
    113          7           0        4.689879    1.896221   -2.614605
    114          1           0        4.290697    1.261976   -1.926233
    115          6           0        3.807127    2.422006   -3.661426
    116          1           0        4.210346    3.403012   -3.937124
    117          6           0        2.425895    2.580922   -2.993274
    118          6           0        3.736375    1.541063   -4.927834
    119          1           0        3.274794    0.590632   -4.631329
    120          8           0        1.591152    1.675599   -2.987987
    121          6           0        2.837612    2.205368   -5.983291
    122          1           0        3.248473    3.173643   -6.297544
    123          1           0        2.767566    1.573678   -6.875390
    124          1           0        1.822236    2.368638   -5.608824
    125          6           0        5.132368    1.263378   -5.500692
    126          1           0        5.634933    2.193807   -5.790090
    127          1           0        5.054542    0.631003   -6.391955
    128          1           0        5.774098    0.746816   -4.780376
    129          7           0        2.247171    3.758020   -2.333977
    130          1           0        2.942165    4.484074   -2.446270
    131          6           0        1.030831    4.066920   -1.603228
    132          1           0        0.372939    3.211350   -1.792878
    133          6           0        0.267112    5.255981   -2.202822
    134          6           0        1.227862    4.166441   -0.083779
    135          1           0        0.294156    4.553117    0.334944
    136          1           0        2.011197    4.901659    0.148077
    137          8           0       -0.478577    5.958188   -1.535636
    138          6           0        1.565667    2.804627    0.543466
    139          1           0        2.536653    2.440763    0.186206
    140          1           0        0.825618    2.070188    0.197122
    141          6           0        1.574819    2.859686    2.077924
    142          1           0        2.362571    3.543826    2.418948
    143          1           0        0.627096    3.270414    2.449891
    144          6           0        1.833299    1.520116    2.768663
    145          1           0        2.736300    1.034431    2.388399
    146          1           0        1.925597    1.653234    3.849500
    147          7           0        0.700658    0.542268    2.545447
    148          1           0        0.731008   -0.228258    3.218713
    149          1           0        0.779472    0.074286    1.612590
    150          1           0       -0.228556    0.990509    2.651864
    151          8           0        0.416878    5.347239   -3.516721
    152          1           0       -2.541385    4.043348    3.842116
 ---------------------------------------------------------------------

 SCF Done:  E(RB3LYP) =  -3473.84391783     A.U. after    3 cycles

 Alpha  occ. eigenvalues --  -19.29634 -19.25171 -19.24340 -19.22228 -19.22137
 Alpha  occ. eigenvalues --  -19.21759 -19.20916 -19.20666 -19.20479 -19.20303
 Alpha  occ. eigenvalues --  -19.19817 -19.19502 -19.18769 -19.18272 -14.53223
 Alpha  occ. eigenvalues --  -14.46267 -14.45866 -14.45279 -14.45210 -14.44578
 Alpha  occ. eigenvalues --  -14.44290 -14.44271 -14.43249 -14.42867 -14.42332
 Alpha  occ. eigenvalues --  -14.42008 -10.42963 -10.39178 -10.39107 -10.38949
 Alpha  occ. eigenvalues --  -10.38786 -10.38306 -10.37451 -10.37150 -10.36720
 Alpha  occ. eigenvalues --  -10.36555 -10.36287 -10.35438 -10.34471 -10.33724
 Alpha  occ. eigenvalues --  -10.32857 -10.32725 -10.32252 -10.31530 -10.31091
 Alpha  occ. eigenvalues --  -10.30776 -10.30510 -10.30321 -10.29442 -10.28794
 Alpha  occ. eigenvalues --  -10.28478 -10.28184 -10.27288 -10.26958 -10.26894
 Alpha  occ. eigenvalues --  -10.26427 -10.26023 -10.25755 -10.25635 -10.25603
 Alpha  occ. eigenvalues --  -10.25471 -10.25319 -10.24332 -10.24295 -10.23891
 Alpha  occ. eigenvalues --  -10.23814 -10.23802 -10.23568 -10.23216 -10.22977
 Alpha  occ. eigenvalues --  -10.22478  -1.21070  -1.16176  -1.14297  -1.14023
 Alpha  occ. eigenvalues --   -1.12923  -1.12629  -1.12406  -1.11919  -1.11883
 Alpha  occ. eigenvalues --   -1.11561  -1.10961  -1.10293  -1.09953  -1.08306
 Alpha  occ. eigenvalues --   -1.07361  -1.02887  -1.02263  -1.01219  -1.01151
 Alpha  occ. eigenvalues --   -1.01004  -1.00703  -1.00089  -0.99456  -0.98869
 Alpha  occ. eigenvalues --   -0.98626  -0.97324  -0.90095  -0.89633  -0.89147
 Alpha  occ. eigenvalues --   -0.88103  -0.87692  -0.87411  -0.86929  -0.85462
 Alpha  occ. eigenvalues --   -0.85288  -0.84463  -0.82983  -0.82387  -0.81187
 Alpha  occ. eigenvalues --   -0.80464  -0.79504  -0.78194  -0.78094  -0.77452
 Alpha  occ. eigenvalues --   -0.75288  -0.75009  -0.74788  -0.74544  -0.73982
 Alpha  occ. eigenvalues --   -0.73506  -0.73191  -0.72005  -0.71337  -0.69890
 Alpha  occ. eigenvalues --   -0.69232  -0.69140  -0.68899  -0.68256  -0.67962
 Alpha  occ. eigenvalues --   -0.67899  -0.67511  -0.67191  -0.66992  -0.66624
 Alpha  occ. eigenvalues --   -0.66533  -0.66317  -0.66132  -0.65811  -0.65089
 Alpha  occ. eigenvalues --   -0.64347  -0.63780  -0.63310  -0.63085  -0.62757
 Alpha  occ. eigenvalues --   -0.62198  -0.61488  -0.61276  -0.60995  -0.60572
 Alpha  occ. eigenvalues --   -0.60085  -0.59575  -0.59449  -0.59250  -0.58692
 Alpha  occ. eigenvalues --   -0.58206  -0.57662  -0.57496  -0.57333  -0.57084
 Alpha  occ. eigenvalues --   -0.56641  -0.56053  -0.55924  -0.55813  -0.55392
 Alpha  occ. eigenvalues --   -0.55109  -0.54955  -0.54662  -0.54496  -0.54463
 Alpha  occ. eigenvalues --   -0.53750  -0.53559  -0.53444  -0.53029  -0.52864
 Alpha  occ. eigenvalues --   -0.52684  -0.52522  -0.52361  -0.52050  -0.51885
 Alpha  occ. eigenvalues --   -0.51685  -0.51461  -0.51063  -0.50845  -0.50722
 Alpha  occ. eigenvalues --   -0.50530  -0.50365  -0.50325  -0.50138  -0.49995
 Alpha  occ. eigenvalues --   -0.49675  -0.49554  -0.49286  -0.49217  -0.49080
 Alpha  occ. eigenvalues --   -0.48946  -0.48660  -0.48313  -0.48226  -0.48053
 Alpha  occ. eigenvalues --   -0.47930  -0.47583  -0.47484  -0.47019  -0.46896
 Alpha  occ. eigenvalues --   -0.46776  -0.46524  -0.46472  -0.46340  -0.46065
 Alpha  occ. eigenvalues --   -0.45981  -0.45781  -0.45500  -0.45382  -0.45338
 Alpha  occ. eigenvalues --   -0.45245  -0.45172  -0.45082  -0.44913  -0.44718
 Alpha  occ. eigenvalues --   -0.44612  -0.44522  -0.44268  -0.44257  -0.43886
 Alpha  occ. eigenvalues --   -0.43875  -0.43726  -0.43598  -0.43475  -0.43225
 Alpha  occ. eigenvalues --   -0.42686  -0.42583  -0.42403  -0.42216  -0.42078
 Alpha  occ. eigenvalues --   -0.41673  -0.41593  -0.40861  -0.40250  -0.39837
 Alpha  occ. eigenvalues --   -0.39789  -0.39777  -0.39663  -0.39362  -0.39252
 Alpha  occ. eigenvalues --   -0.39115  -0.38909  -0.38832  -0.38555  -0.38144
 Alpha  occ. eigenvalues --   -0.37984  -0.37134  -0.36862  -0.36535  -0.36344
 Alpha  occ. eigenvalues --   -0.36309  -0.35986  -0.35843  -0.35703  -0.35285
 Alpha  occ. eigenvalues --   -0.34622  -0.34543  -0.34490  -0.34370  -0.33874
 Alpha  occ. eigenvalues --   -0.33738  -0.33563  -0.32702  -0.32411  -0.32122
 Alpha  occ. eigenvalues --   -0.31757  -0.31313  -0.31231
 Alpha virt. eigenvalues --   -0.09602  -0.08792  -0.08321  -0.07492  -0.07357
 Alpha virt. eigenvalues --   -0.07137  -0.06728  -0.06461  -0.06170  -0.05889
 Alpha virt. eigenvalues --   -0.05201  -0.04555  -0.03975  -0.01957  -0.01218

 Mulliken charges:
               1
     1  N   -0.774863
     2  H    0.467687
     3  H    0.336875
     4  H    0.338968
     5  C   -0.060305
     6  H    0.182722
     7  C    0.630086
     8  C   -0.457483
     9  H    0.165326
    10  H    0.176562
    11  H    0.156246
    12  O   -0.558998
    13  N   -0.638576
    14  H    0.388496
    15  C   -0.028196
    16  H    0.189707
    17  C    0.609007
    18  C   -0.401751
    19  H    0.218216
    20  H    0.202059
    21  O   -0.542597
    22  C    0.585579
    23  N   -0.718101
    24  H    0.356791
    25  H    0.380805
    26  O   -0.540111
    27  N   -0.643139
    28  H    0.366522
    29  C   -0.066638
    30  H    0.195849
    31  C    0.622934
    32  C   -0.264450
    33  H    0.160558
    34  H    0.188513
    35  O   -0.570278
    36  C   -0.367252
    37  H    0.202398
    38  H    0.205343
    39  C    0.620767
    40  O   -0.513381
    41  O   -0.536525
    42  N   -0.644511
    43  H    0.381707
    44  C   -0.014091
    45  H    0.165371
    46  C    0.665525
    47  C   -0.322294
    48  H    0.154673
    49  H    0.186884
    50  O   -0.607844
    51  C   -0.100187
    52  H    0.168308
    53  C   -0.449233
    54  H    0.145138
    55  H    0.152409
    56  H    0.150788
    57  C   -0.455078
    58  H    0.143514
    59  H    0.140136
    60  H    0.160417
    61  N   -0.594533
    62  H    0.347954
    63  C   -0.054477
    64  H    0.147955
    65  C    0.634801
    66  C   -0.281363
    67  H    0.136101
    68  H    0.163939
    69  O   -0.523912
    70  C   -0.080528
    71  H    0.162590
    72  C   -0.450184
    73  H    0.141883
    74  H    0.114206
    75  H    0.160639
    76  C   -0.448820
    77  H    0.140396
    78  H    0.157228
    79  H    0.152567
    80  N   -0.655943
    81  H    0.395678
    82  C   -0.050186
    83  H    0.187279
    84  C    0.607856
    85  C   -0.085097
    86  H    0.174289
    87  O   -0.577203
    88  C   -0.284553
    89  H    0.145453
    90  H    0.150238
    91  C   -0.488571
    92  H    0.154963
    93  H    0.149020
    94  H    0.155401
    95  C   -0.456164
    96  H    0.162409
    97  H    0.163033
    98  H    0.141604
    99  N   -0.629437
   100  H    0.407252
   101  C   -0.079860
   102  H    0.190317
   103  C    0.625078
   104  C   -0.368078
   105  H    0.186656
   106  H    0.181342
   107  O   -0.539942
   108  C    0.588582
   109  N   -0.722401
   110  H    0.366364
   111  H    0.348596
   112  O   -0.522259
   113  N   -0.644539
   114  H    0.387934
   115  C   -0.029148
   116  H    0.167743
   117  C    0.613588
   118  C   -0.068563
   119  H    0.146664
   120  O   -0.540708
   121  C   -0.463862
   122  H    0.145612
   123  H    0.153730
   124  H    0.156560
   125  C   -0.457485
   126  H    0.153727
   127  H    0.150323
   128  H    0.152456
   129  N   -0.588850
   130  H    0.341120
   131  C   -0.070820
   132  H    0.203180
   133  C    0.591541
   134  C   -0.258483
   135  H    0.185645
   136  H    0.138015
   137  O   -0.505976
   138  C   -0.288798
   139  H    0.177607
   140  H    0.142716
   141  C   -0.291235
   142  H    0.168377
   143  H    0.164818
   144  C   -0.190223
   145  H    0.216151
   146  H    0.188452
   147  N   -0.818704
   148  H    0.396090
   149  H    0.473734
   150  H    0.447707
   151  O   -0.604330
   152  H    0.423072
 Sum of Mulliken charges =   1.00000

 Dipole moment (field-independent basis, Debye):
    X=             -0.1822    Y=              8.9334    Z=             -2.9218  Tot=              9.4008
 Quadrupole moment (field-independent basis, Debye-Ang):
   XX=           -353.8784   YY=           -349.5738   ZZ=           -335.9230
   XY=              5.9446   XZ=              6.0976   YZ=            -22.1552

 Normal termination of Gaussian 16 at Mon Jul 11 13:03:45 2022.
