 Gaussian 16, Revision C.01,
 Gaussian 16:  ES64L-G16RevC.01  3-Jul-2019

 -------------------------------------------------------------------
 # B3LYP/6-31G* guess=read geom=check nosymm integral(ultrafinegrid)
 -------------------------------------------------------------------

 ------------------------------------------------------
 Candidate Structure: Conf:966 Charge calc in gas phase
 ------------------------------------------------------
 Structure from the checkpoint file:  "conf-966.chk"
 Charge =  1 Multiplicity = 1

                          Input orientation:
 ---------------------------------------------------------------------
 Center     Atomic      Atomic             Coordinates (Angstroms)
 Number     Number       Type             X           Y           Z
 ---------------------------------------------------------------------
      1          7           0      -11.712972   -4.758890   -4.938841
      2          1           0      -10.965371   -5.239411   -5.499312
      3          1           0      -12.651665   -5.008471   -5.261880
      4          1           0      -11.569277   -5.060608   -3.963839
      5          6           0      -11.438540   -3.264679   -4.969769
      6          1           0      -11.470854   -2.969143   -6.020942
      7          6           0      -10.004250   -3.230219   -4.400686
      8          6           0      -12.458427   -2.511343   -4.125689
      9          1           0      -12.253121   -1.438299   -4.182702
     10          1           0      -12.390397   -2.812617   -3.075525
     11          1           0      -13.480001   -2.673530   -4.486316
     12          8           0       -9.775341   -3.913325   -3.401482
     13          7           0       -9.090327   -2.548481   -5.103325
     14          1           0       -9.329716   -1.993693   -5.921844
     15          6           0       -7.669040   -2.835950   -5.001715
     16          1           0       -7.422310   -3.033452   -3.956410
     17          6           0       -6.943421   -1.591843   -5.560101
     18          6           0       -7.285178   -4.055893   -5.901462
     19          1           0       -6.224964   -4.280228   -5.745425
     20          1           0       -7.410717   -3.748548   -6.945194
     21          8           0       -7.488864   -0.946057   -6.457283
     22          6           0       -8.147932   -5.298970   -5.709187
     23          7           0       -7.559594   -6.356907   -5.121185
     24          1           0       -8.085098   -7.213092   -5.000745
     25          1           0       -6.595404   -6.345762   -4.821265
     26          8           0       -9.326104   -5.336070   -6.102950
     27          7           0       -5.732388   -1.345592   -5.046066
     28          1           0       -5.328681   -1.900454   -4.292448
     29          6           0       -4.834185   -0.291629   -5.510277
     30          1           0       -4.886927   -0.236694   -6.600382
     31          6           0       -3.432724   -0.743492   -5.050228
     32          6           0       -5.254361    1.069082   -4.894178
     33          1           0       -6.284773    1.256685   -5.215631
     34          1           0       -5.264293    0.957421   -3.804290
     35          8           0       -3.322860   -1.505650   -4.083603
     36          6           0       -4.368812    2.292034   -5.226494
     37          1           0       -3.364746    2.150370   -4.807403
     38          1           0       -4.810554    3.176671   -4.761283
     39          6           0       -4.217202    2.532671   -6.708412
     40          8           0       -3.603413    1.804288   -7.475883
     41          8           0       -4.836984    3.644928   -7.136435
     42          7           0       -2.397530   -0.260863   -5.760206
     43          1           0       -2.601632    0.437835   -6.476113
     44          6           0       -1.025669   -0.387177   -5.279720
     45          1           0       -0.838205   -1.446499   -5.079591
     46          6           0       -0.874027    0.414806   -3.965333
     47          6           0       -0.070924    0.142891   -6.370533
     48          1           0       -0.239592    1.224487   -6.461423
     49          1           0       -0.376206   -0.306345   -7.326090
     50          8           0       -1.481231    1.473241   -3.793156
     51          6           0        1.432410   -0.126954   -6.153907
     52          1           0        1.719858    0.238418   -5.159226
     53          6           0        1.773582   -1.623953   -6.222140
     54          1           0        1.512037   -2.040800   -7.203724
     55          1           0        1.248866   -2.212800   -5.460581
     56          1           0        2.845904   -1.781653   -6.065471
     57          6           0        2.249941    0.656854   -7.192204
     58          1           0        2.002313    0.337235   -8.212883
     59          1           0        2.058053    1.733942   -7.123093
     60          1           0        3.323789    0.496866   -7.045386
     61          7           0       -0.032311   -0.126313   -3.057719
     62          1           0        0.558775   -0.910687   -3.315655
     63          6           0        0.396856    0.549957   -1.842408
     64          1           0        0.128599    1.605619   -1.938381
     65          6           0        1.929344    0.391132   -1.771351
     66          6           0       -0.253754   -0.057800   -0.575674
     67          1           0        0.062355   -1.108279   -0.514088
     68          1           0        0.169080    0.444940    0.305466
     69          8           0        2.499173   -0.507498   -2.397643
     70          6           0       -1.791918    0.016411   -0.512038
     71          1           0       -2.190492   -0.441859   -1.427742
     72          6           0       -2.295319   -0.805011    0.685472
     73          1           0       -1.920852   -0.394663    1.632251
     74          1           0       -1.968583   -1.850119    0.622628
     75          1           0       -3.390822   -0.797792    0.732856
     76          6           0       -2.305121    1.462545   -0.436277
     77          1           0       -1.885784    1.985150    0.433935
     78          1           0       -2.054563    2.026981   -1.339373
     79          1           0       -3.397006    1.477281   -0.331460
     80          7           0        2.565994    1.267815   -0.969975
     81          1           0        2.058185    1.955913   -0.421360
     82          6           0        3.987183    1.184296   -0.654101
     83          1           0        4.250951    0.124800   -0.583480
     84          6           0        4.134524    1.859098    0.722767
     85          6           0        4.855192    1.839383   -1.777168
     86          1           0        4.483146    1.369522   -2.697397
     87          8           0        3.296625    2.667147    1.114610
     88          6           0        6.362750    1.521213   -1.683220
     89          1           0        6.840497    2.004042   -2.546095
     90          1           0        6.804238    2.003451   -0.801392
     91          6           0        4.620927    3.353321   -1.876588
     92          1           0        5.015760    3.881489   -1.000805
     93          1           0        3.555879    3.592861   -1.959380
     94          1           0        5.125251    3.756461   -2.761836
     95          6           0        6.722541    0.028904   -1.707712
     96          1           0        7.806847   -0.103718   -1.788119
     97          1           0        6.255382   -0.479521   -2.559518
     98          1           0        6.402534   -0.502797   -0.802273
     99          7           0        5.217028    1.477891    1.458467
    100          1           0        5.976107    1.010256    0.977300
    101          6           0        5.593859    2.166268    2.683354
    102          1           0        4.729550    2.759762    2.988668
    103          6           0        6.825720    3.049900    2.411230
    104          6           0        5.929849    1.161251    3.800512
    105          1           0        6.325954    1.708692    4.666454
    106          1           0        6.721922    0.480629    3.464365
    107          8           0        7.647659    2.739138    1.549524
    108          6           0        4.686418    0.399714    4.266875
    109          7           0        4.904886   -0.903137    4.619149
    110          1           0        5.832570   -1.294157    4.684958
    111          1           0        4.144948   -1.405157    5.057894
    112          8           0        3.585951    0.924023    4.329178
    113          7           0        6.932396    4.143871    3.204808
    114          1           0        6.317713    4.238356    4.008494
    115          6           0        8.149869    4.935302    3.306290
    116          1           0        8.958646    4.349361    2.855834
    117          6           0        8.422235    5.131309    4.811254
    118          6           0        8.058126    6.298539    2.557724
    119          1           0        9.016633    6.807985    2.735003
    120          8           0        7.545158    4.917764    5.650821
    121          6           0        7.911481    6.086405    1.044948
    122          1           0        6.959432    5.599345    0.807755
    123          1           0        7.934369    7.050179    0.523700
    124          1           0        8.713758    5.458409    0.643839
    125          6           0        6.935575    7.190435    3.107101
    126          1           0        5.955451    6.726657    2.946507
    127          1           0        6.933248    8.157127    2.591979
    128          1           0        7.045336    7.382055    4.179991
    129          7           0        9.663886    5.562580    5.128695
    130          1           0       10.333084    5.815702    4.408900
    131          6           0       10.041990    5.963656    6.475887
    132          1           0        9.219481    6.531721    6.925129
    133          6           0       11.279034    6.840934    6.355612
    134          6           0       10.342839    4.759336    7.410590
    135          1           0        9.475630    4.096940    7.324926
    136          1           0       10.353711    5.132814    8.440403
    137          8           0       11.677245    7.317954    7.526048
    138          6           0       11.635966    3.953512    7.138317
    139          1           0       11.794556    3.856328    6.055504
    140          1           0       11.444648    2.934036    7.492708
    141          6           0       12.944357    4.444902    7.830760
    142          1           0       12.679755    5.062506    8.697608
    143          1           0       13.453876    3.564734    8.238582
    144          6           0       13.969763    5.219092    6.957747
    145          1           0       14.913943    4.659014    6.912249
    146          1           0       13.607115    5.319964    5.932526
    147          7           0       14.207222    6.602354    7.452688
    148          1           0       14.833275    7.092751    6.814940
    149          1           0       14.675212    6.575560    8.358658
    150          1           0       12.706524    7.336060    7.504601
    151          8           0       11.886028    6.972485    5.301845
    152          1           0       -4.670765    3.712113   -8.097079
 ---------------------------------------------------------------------

 SCF Done:  E(RB3LYP) =  -3473.77930363     A.U. after    3 cycles

 Alpha  occ. eigenvalues --  -19.26605 -19.24641 -19.24571 -19.21197 -19.21065
 Alpha  occ. eigenvalues --  -19.19817 -19.18612 -19.16967 -19.16472 -19.15946
 Alpha  occ. eigenvalues --  -19.15942 -19.15610 -19.15608 -19.14887 -14.58477
 Alpha  occ. eigenvalues --  -14.48432 -14.48354 -14.44969 -14.41722 -14.40523
 Alpha  occ. eigenvalues --  -14.40152 -14.39886 -14.39764 -14.39596 -14.39590
 Alpha  occ. eigenvalues --  -14.39023 -10.42287 -10.42124 -10.39603 -10.39186
 Alpha  occ. eigenvalues --  -10.38479 -10.35425 -10.35379 -10.34709 -10.33521
 Alpha  occ. eigenvalues --  -10.32998 -10.32958 -10.32903 -10.32614 -10.32557
 Alpha  occ. eigenvalues --  -10.32223 -10.31748 -10.30915 -10.28724 -10.27499
 Alpha  occ. eigenvalues --  -10.27404 -10.27072 -10.26935 -10.26847 -10.26743
 Alpha  occ. eigenvalues --  -10.25800 -10.25755 -10.24526 -10.24074 -10.23662
 Alpha  occ. eigenvalues --  -10.23130 -10.22900 -10.22710 -10.22624 -10.22429
 Alpha  occ. eigenvalues --  -10.22403 -10.22248 -10.21852 -10.21573 -10.21340
 Alpha  occ. eigenvalues --  -10.21048 -10.20942 -10.20514 -10.20403 -10.20305
 Alpha  occ. eigenvalues --  -10.20210  -1.17615  -1.17612  -1.15700  -1.13211
 Alpha  occ. eigenvalues --   -1.12480  -1.12250  -1.10411  -1.08472  -1.08334
 Alpha  occ. eigenvalues --   -1.08141  -1.07706  -1.07286  -1.06879  -1.06827
 Alpha  occ. eigenvalues --   -1.05096  -1.03676  -1.03130  -1.01428  -0.98603
 Alpha  occ. eigenvalues --   -0.97089  -0.96763  -0.96386  -0.96338  -0.96060
 Alpha  occ. eigenvalues --   -0.94319  -0.94290  -0.92127  -0.89444  -0.87236
 Alpha  occ. eigenvalues --   -0.85978  -0.85137  -0.84527  -0.84109  -0.83154
 Alpha  occ. eigenvalues --   -0.82165  -0.81954  -0.81205  -0.80119  -0.79125
 Alpha  occ. eigenvalues --   -0.78752  -0.77578  -0.76602  -0.75277  -0.74468
 Alpha  occ. eigenvalues --   -0.73224  -0.73050  -0.72829  -0.72612  -0.72305
 Alpha  occ. eigenvalues --   -0.71508  -0.71323  -0.70962  -0.70788  -0.70554
 Alpha  occ. eigenvalues --   -0.70217  -0.68877  -0.67715  -0.66958  -0.66784
 Alpha  occ. eigenvalues --   -0.66542  -0.65748  -0.65315  -0.64673  -0.64308
 Alpha  occ. eigenvalues --   -0.63725  -0.63367  -0.63179  -0.62883  -0.62659
 Alpha  occ. eigenvalues --   -0.62060  -0.62008  -0.61316  -0.60829  -0.60502
 Alpha  occ. eigenvalues --   -0.60361  -0.59866  -0.59531  -0.59498  -0.58677
 Alpha  occ. eigenvalues --   -0.58440  -0.57877  -0.57696  -0.57334  -0.56650
 Alpha  occ. eigenvalues --   -0.56234  -0.55765  -0.55120  -0.54817  -0.54570
 Alpha  occ. eigenvalues --   -0.54337  -0.54157  -0.53778  -0.53378  -0.53332
 Alpha  occ. eigenvalues --   -0.52916  -0.52789  -0.52496  -0.52344  -0.51870
 Alpha  occ. eigenvalues --   -0.51750  -0.51591  -0.51364  -0.51080  -0.51034
 Alpha  occ. eigenvalues --   -0.50694  -0.50670  -0.50522  -0.50375  -0.50041
 Alpha  occ. eigenvalues --   -0.49927  -0.49901  -0.49567  -0.49135  -0.49089
 Alpha  occ. eigenvalues --   -0.48607  -0.48262  -0.48199  -0.47916  -0.47753
 Alpha  occ. eigenvalues --   -0.47553  -0.47361  -0.47129  -0.47028  -0.46956
 Alpha  occ. eigenvalues --   -0.46377  -0.46236  -0.46104  -0.45993  -0.45933
 Alpha  occ. eigenvalues --   -0.45644  -0.45595  -0.45138  -0.45058  -0.44840
 Alpha  occ. eigenvalues --   -0.44694  -0.44460  -0.43967  -0.43890  -0.43753
 Alpha  occ. eigenvalues --   -0.43490  -0.42794  -0.42740  -0.42645  -0.42453
 Alpha  occ. eigenvalues --   -0.42424  -0.42211  -0.42028  -0.41922  -0.41567
 Alpha  occ. eigenvalues --   -0.41454  -0.41418  -0.41231  -0.40967  -0.40731
 Alpha  occ. eigenvalues --   -0.40562  -0.40544  -0.40496  -0.40098  -0.39845
 Alpha  occ. eigenvalues --   -0.39664  -0.39527  -0.39437  -0.39394  -0.39085
 Alpha  occ. eigenvalues --   -0.38772  -0.38652  -0.37668  -0.37512  -0.37505
 Alpha  occ. eigenvalues --   -0.37224  -0.37124  -0.37091  -0.37035  -0.36823
 Alpha  occ. eigenvalues --   -0.36773  -0.36501  -0.36364  -0.36158  -0.36010
 Alpha  occ. eigenvalues --   -0.35873  -0.35847  -0.35547  -0.35183  -0.34817
 Alpha  occ. eigenvalues --   -0.34428  -0.33806  -0.32475  -0.32328  -0.31219
 Alpha  occ. eigenvalues --   -0.30996  -0.30768  -0.30659  -0.30535  -0.30279
 Alpha  occ. eigenvalues --   -0.30075  -0.29998  -0.29246  -0.29148  -0.28912
 Alpha  occ. eigenvalues --   -0.28732  -0.28542  -0.28449
 Alpha virt. eigenvalues --   -0.11866  -0.11052  -0.08452  -0.06978  -0.06214
 Alpha virt. eigenvalues --   -0.04564  -0.03850  -0.03362  -0.02655  -0.02592
 Alpha virt. eigenvalues --   -0.02394  -0.02185  -0.01843  -0.01346  -0.01170

 Mulliken charges:
               1
     1  N   -0.747885
     2  H    0.449407
     3  H    0.403711
     4  H    0.412412
     5  C   -0.109244
     6  H    0.208687
     7  C    0.651146
     8  C   -0.465346
     9  H    0.212002
    10  H    0.199497
    11  H    0.181477
    12  O   -0.535490
    13  N   -0.583986
    14  H    0.363080
    15  C   -0.073808
    16  H    0.200136
    17  C    0.639660
    18  C   -0.360284
    19  H    0.177499
    20  H    0.210542
    21  O   -0.542865
    22  C    0.640224
    23  N   -0.720081
    24  H    0.361226
    25  H    0.367977
    26  O   -0.581208
    27  N   -0.619693
    28  H    0.358289
    29  C   -0.061723
    30  H    0.194679
    31  C    0.623964
    32  C   -0.276510
    33  H    0.176076
    34  H    0.169982
    35  O   -0.559164
    36  C   -0.396581
    37  H    0.246538
    38  H    0.181406
    39  C    0.597080
    40  O   -0.486693
    41  O   -0.544283
    42  N   -0.638853
    43  H    0.389356
    44  C   -0.041030
    45  H    0.166155
    46  C    0.638326
    47  C   -0.293535
    48  H    0.156152
    49  H    0.147860
    50  O   -0.541124
    51  C   -0.092043
    52  H    0.149781
    53  C   -0.446442
    54  H    0.139681
    55  H    0.136503
    56  H    0.160200
    57  C   -0.445149
    58  H    0.141392
    59  H    0.146540
    60  H    0.151594
    61  N   -0.590734
    62  H    0.354243
    63  C   -0.082953
    64  H    0.182881
    65  C    0.630932
    66  C   -0.254762
    67  H    0.139517
    68  H    0.147947
    69  O   -0.556823
    70  C   -0.074624
    71  H    0.148040
    72  C   -0.443400
    73  H    0.146962
    74  H    0.137293
    75  H    0.134430
    76  C   -0.465118
    77  H    0.139148
    78  H    0.173753
    79  H    0.130841
    80  N   -0.617386
    81  H    0.359691
    82  C   -0.060368
    83  H    0.176383
    84  C    0.627477
    85  C   -0.072825
    86  H    0.152549
    87  O   -0.529364
    88  C   -0.293491
    89  H    0.140577
    90  H    0.170596
    91  C   -0.462330
    92  H    0.158957
    93  H    0.148425
    94  H    0.146510
    95  C   -0.458298
    96  H    0.153674
    97  H    0.157450
    98  H    0.131055
    99  N   -0.605012
   100  H    0.350609
   101  C   -0.084601
   102  H    0.217806
   103  C    0.618780
   104  C   -0.379994
   105  H    0.191743
   106  H    0.151593
   107  O   -0.538200
   108  C    0.615485
   109  N   -0.750491
   110  H    0.337197
   111  H    0.344474
   112  O   -0.493954
   113  N   -0.594505
   114  H    0.356084
   115  C   -0.069158
   116  H    0.176261
   117  C    0.624756
   118  C   -0.075073
   119  H    0.132270
   120  O   -0.550051
   121  C   -0.445840
   122  H    0.157488
   123  H    0.144706
   124  H    0.154996
   125  C   -0.462567
   126  H    0.155057
   127  H    0.151063
   128  H    0.157948
   129  N   -0.619452
   130  H    0.354689
   131  C   -0.031354
   132  H    0.187562
   133  C    0.601092
   134  C   -0.266632
   135  H    0.170445
   136  H    0.158312
   137  O   -0.607679
   138  C   -0.285844
   139  H    0.144935
   140  H    0.144548
   141  C   -0.280961
   142  H    0.157245
   143  H    0.144970
   144  C   -0.158943
   145  H    0.143411
   146  H    0.184673
   147  N   -0.771535
   148  H    0.334855
   149  H    0.325477
   150  H    0.456173
   151  O   -0.507034
   152  H    0.418103
 Sum of Mulliken charges =   1.00000

 Dipole moment (field-independent basis, Debye):
    X=            -27.8782    Y=            -16.8049    Z=            -16.4083  Tot=             36.4531
 Quadrupole moment (field-independent basis, Debye-Ang):
   XX=            244.0446   YY=           -303.5180   ZZ=           -255.5412
   XY=            227.1225   XZ=            312.9548   YZ=             89.6313

 Normal termination of Gaussian 16 at Mon Jul 11 13:01:42 2022.
