 Gaussian 16, Revision C.01,
 Gaussian 16:  ES64L-G16RevC.01  3-Jul-2019

 -------------------------------------------------------------------
 # B3LYP/6-31G* guess=read geom=check nosymm integral(ultrafinegrid)
 -------------------------------------------------------------------

 ------------------------------------------------------
 Candidate Structure: Conf:472 Charge calc in gas phase
 ------------------------------------------------------
 Structure from the checkpoint file:  "conf-472.chk"
 Charge =  1 Multiplicity = 1

                          Input orientation:
 ---------------------------------------------------------------------
 Center     Atomic      Atomic             Coordinates (Angstroms)
 Number     Number       Type             X           Y           Z
 ---------------------------------------------------------------------
      1          7           0       -4.895970   -6.617313   -8.900713
      2          1           0       -4.537332   -5.791693   -9.440780
      3          1           0       -5.539400   -7.185965   -9.458139
      4          1           0       -4.062898   -7.163337   -8.635947
      5          6           0       -5.506186   -6.106858   -7.605843
      6          1           0       -6.315717   -5.432393   -7.894309
      7          6           0       -4.303552   -5.348610   -7.006044
      8          6           0       -5.997635   -7.265460   -6.747480
      9          1           0       -6.451298   -6.871482   -5.833254
     10          1           0       -5.164856   -7.914334   -6.458301
     11          1           0       -6.758525   -7.857958   -7.266934
     12          8           0       -3.209128   -5.911849   -7.030017
     13          7           0       -4.518447   -4.087429   -6.604149
     14          1           0       -5.443815   -3.666910   -6.599657
     15          6           0       -3.435493   -3.123001   -6.514547
     16          1           0       -2.550361   -3.629384   -6.123689
     17          6           0       -3.930956   -1.996514   -5.584416
     18          6           0       -3.137196   -2.488178   -7.912218
     19          1           0       -2.283853   -1.809197   -7.810615
     20          1           0       -4.008034   -1.887176   -8.195580
     21          8           0       -5.129456   -1.722617   -5.568747
     22          6           0       -2.918064   -3.490994   -9.041727
     23          7           0       -1.670814   -3.575387   -9.539375
     24          1           0       -1.487446   -4.200987  -10.313348
     25          1           0       -0.910738   -3.001205   -9.203961
     26          8           0       -3.854998   -4.171317   -9.491761
     27          7           0       -2.973952   -1.374528   -4.869804
     28          1           0       -1.995202   -1.581755   -5.041777
     29          6           0       -3.183939   -0.133115   -4.125316
     30          1           0       -4.233421    0.146400   -4.254622
     31          6           0       -2.226178    0.896991   -4.753811
     32          6           0       -2.859449   -0.363143   -2.633078
     33          1           0       -3.461188   -1.207603   -2.283697
     34          1           0       -1.808377   -0.658888   -2.542162
     35          8           0       -1.107727    0.528788   -5.123758
     36          6           0       -3.113370    0.852677   -1.741096
     37          1           0       -4.144062    1.222079   -1.842765
     38          1           0       -2.453118    1.687540   -1.993783
     39          6           0       -2.894233    0.520630   -0.279276
     40          8           0       -2.692265   -0.581732    0.175467
     41          8           0       -2.971037    1.632486    0.493397
     42          7           0       -2.656109    2.176016   -4.837012
     43          1           0       -3.580129    2.408922   -4.495461
     44          6           0       -1.825265    3.271436   -5.361984
     45          1           0       -1.038637    2.773666   -5.937198
     46          6           0       -1.137877    4.049331   -4.203553
     47          6           0       -2.655772    4.197348   -6.263366
     48          1           0       -3.275640    4.838218   -5.624678
     49          1           0       -3.333799    3.569995   -6.858904
     50          8           0       -1.161307    5.274271   -4.138528
     51          6           0       -1.836145    5.091456   -7.219551
     52          1           0       -1.087080    5.618146   -6.617972
     53          6           0       -1.116586    4.277784   -8.306265
     54          1           0       -1.837229    3.738629   -8.936180
     55          1           0       -0.418870    3.541101   -7.890329
     56          1           0       -0.535839    4.937476   -8.960655
     57          6           0       -2.754456    6.144985   -7.856154
     58          1           0       -3.552000    5.672781   -8.445514
     59          1           0       -3.226558    6.773597   -7.092752
     60          1           0       -2.191006    6.801526   -8.528569
     61          7           0       -0.515495    3.261234   -3.291737
     62          1           0       -0.479036    2.254999   -3.414025
     63          6           0        0.199860    3.774654   -2.126305
     64          1           0        0.925446    4.524252   -2.461919
     65          6           0        0.915101    2.555632   -1.523439
     66          6           0       -0.769260    4.414582   -1.097458
     67          1           0       -1.405857    5.109887   -1.655179
     68          1           0       -1.413565    3.618548   -0.704120
     69          8           0        0.398981    1.434461   -1.577111
     70          6           0       -0.118709    5.171342    0.078600
     71          1           0        0.570666    4.489955    0.598417
     72          6           0        0.678404    6.403734   -0.379264
     73          1           0        0.038841    7.095269   -0.941252
     74          1           0        1.526223    6.145721   -1.024948
     75          1           0        1.082567    6.946737    0.482882
     76          6           0       -1.207911    5.580899    1.082781
     77          1           0       -1.926263    6.270348    0.621455
     78          1           0       -1.767254    4.709276    1.442467
     79          1           0       -0.772971    6.087740    1.951990
     80          7           0        2.106798    2.791289   -0.934734
     81          1           0        2.508460    3.721623   -0.900999
     82          6           0        2.876180    1.750103   -0.263643
     83          1           0        2.170370    1.108975    0.272540
     84          6           0        3.792368    2.467947    0.733491
     85          6           0        3.657368    0.866855   -1.295187
     86          1           0        2.892384    0.611607   -2.039576
     87          8           0        4.101319    3.657007    0.554168
     88          6           0        4.185468   -0.463570   -0.719010
     89          1           0        4.685905   -0.985457   -1.545291
     90          1           0        4.969294   -0.282689    0.027025
     91          6           0        4.774841    1.650622   -1.997873
     92          1           0        5.596537    1.891701   -1.313119
     93          1           0        4.407891    2.590587   -2.423052
     94          1           0        5.193929    1.055664   -2.816464
     95          6           0        3.118220   -1.395797   -0.130545
     96          1           0        3.555217   -2.369325    0.113535
     97          1           0        2.295688   -1.556828   -0.837511
     98          1           0        2.678769   -1.008152    0.796706
     99          7           0        4.230038    1.740566    1.779543
    100          1           0        4.040503    0.738616    1.817776
    101          6           0        5.370882    2.096879    2.615854
    102          1           0        6.003545    2.803912    2.069368
    103          6           0        6.137456    0.771707    2.874327
    104          6           0        5.005130    2.662467    4.013863
    105          1           0        5.858555    2.496946    4.682317
    106          1           0        4.176387    2.070769    4.422339
    107          8           0        5.570181   -0.308706    2.704121
    108          6           0        4.652375    4.132044    4.216514
    109          7           0        4.448429    4.915905    3.147924
    110          1           0        4.412104    4.565330    2.186124
    111          1           0        4.217244    5.884915    3.324517
    112          8           0        4.578969    4.568200    5.379032
    113          7           0        7.388639    0.945005    3.336147
    114          1           0        7.660111    1.891161    3.600856
    115          6           0        8.072286   -0.021495    4.196793
    116          1           0        7.389018   -0.858936    4.366931
    117          6           0        8.320716    0.740429    5.523260
    118          6           0        9.390998   -0.574988    3.589565
    119          1           0        9.849687   -1.192052    4.373268
    120          8           0        8.183544    1.984840    5.537999
    121          6           0        9.095407   -1.467043    2.376957
    122          1           0        8.619823   -0.895549    1.570391
    123          1           0       10.023891   -1.895476    1.983324
    124          1           0        8.427537   -2.294981    2.640596
    125          6           0       10.381190    0.543882    3.234198
    126          1           0        9.988461    1.183745    2.433595
    127          1           0       11.324061    0.113051    2.881371
    128          1           0       10.610003    1.178791    4.096903
    129          7           0        8.675293   -0.005225    6.564672
    130          1           0        8.976638   -0.995016    6.402151
    131          6           0        9.519287    0.430666    7.682216
    132          1           0       10.107117    1.303731    7.372791
    133          6           0       10.541842   -0.789318    7.909999
    134          6           0        8.792072    0.745067    8.992578
    135          1           0        9.547414    0.601363    9.772425
    136          1           0        8.006369   -0.002206    9.174049
    137          8           0       11.327518   -0.640685    8.854058
    138          6           0        8.224025    2.167576    9.117257
    139          1           0        8.976660    2.886349    8.764460
    140          1           0        8.047813    2.396723   10.178890
    141          6           0        6.916234    2.383949    8.336119
    142          1           0        7.089058    2.152239    7.279793
    143          1           0        6.144450    1.703659    8.729109
    144          6           0        6.436787    3.821022    8.463612
    145          1           0        6.320478    4.129444    9.506870
    146          1           0        7.104045    4.523621    7.958703
    147          7           0        5.068093    3.999429    7.814895
    148          1           0        4.650322    4.907599    8.042830
    149          1           0        4.424883    3.271073    8.142118
    150          1           0        5.083768    3.958511    6.767348
    151          8           0       10.393065   -1.744078    7.091628
    152          1           0       -2.831041    1.336047    1.412687
 ---------------------------------------------------------------------

 SCF Done:  E(RB3LYP) =  -3473.71912310     A.U. after    1 cycles

 Alpha  occ. eigenvalues --  -19.26252 -19.25550 -19.25441 -19.22672 -19.21337
 Alpha  occ. eigenvalues --  -19.20930 -19.20836 -19.20584 -19.18829 -19.18380
 Alpha  occ. eigenvalues --  -19.17972 -19.14870 -19.05396 -19.04167 -14.59278
 Alpha  occ. eigenvalues --  -14.52770 -14.49380 -14.49282 -14.46874 -14.45707
 Alpha  occ. eigenvalues --  -14.44114 -14.43843 -14.43242 -14.42192 -14.40819
 Alpha  occ. eigenvalues --  -14.35720 -10.43197 -10.43047 -10.40412 -10.40113
 Alpha  occ. eigenvalues --  -10.38861 -10.38625 -10.38089 -10.37457 -10.36619
 Alpha  occ. eigenvalues --  -10.35902 -10.35231 -10.35196 -10.33053 -10.32905
 Alpha  occ. eigenvalues --  -10.32848 -10.32303 -10.31796 -10.30898 -10.30665
 Alpha  occ. eigenvalues --  -10.30545 -10.29987 -10.28137 -10.27622 -10.27398
 Alpha  occ. eigenvalues --  -10.26364 -10.25748 -10.25099 -10.25083 -10.24438
 Alpha  occ. eigenvalues --  -10.24305 -10.24219 -10.23802 -10.23288 -10.23177
 Alpha  occ. eigenvalues --  -10.23150 -10.23139 -10.23061 -10.22894 -10.22452
 Alpha  occ. eigenvalues --  -10.21937 -10.21816 -10.20674 -10.19758 -10.19636
 Alpha  occ. eigenvalues --  -10.18742  -1.18521  -1.17056  -1.16594  -1.14814
 Alpha  occ. eigenvalues --   -1.13361  -1.12868  -1.12857  -1.12432  -1.10721
 Alpha  occ. eigenvalues --   -1.10002  -1.09635  -1.08118  -1.07630  -1.06136
 Alpha  occ. eigenvalues --   -1.05902  -1.03995  -1.03320  -1.01655  -1.00683
 Alpha  occ. eigenvalues --   -0.99686  -0.98927  -0.98508  -0.98401  -0.97811
 Alpha  occ. eigenvalues --   -0.93010  -0.92899  -0.90581  -0.89540  -0.88728
 Alpha  occ. eigenvalues --   -0.88021  -0.87149  -0.86779  -0.86059  -0.85795
 Alpha  occ. eigenvalues --   -0.83516  -0.82873  -0.82607  -0.81718  -0.80664
 Alpha  occ. eigenvalues --   -0.79241  -0.78976  -0.78697  -0.77925  -0.76169
 Alpha  occ. eigenvalues --   -0.74222  -0.73992  -0.73979  -0.73827  -0.73363
 Alpha  occ. eigenvalues --   -0.73177  -0.72671  -0.72082  -0.71856  -0.71054
 Alpha  occ. eigenvalues --   -0.70687  -0.70677  -0.69693  -0.68975  -0.68628
 Alpha  occ. eigenvalues --   -0.68323  -0.68006  -0.67513  -0.66959  -0.66304
 Alpha  occ. eigenvalues --   -0.66215  -0.65994  -0.65653  -0.64886  -0.64577
 Alpha  occ. eigenvalues --   -0.64220  -0.63378  -0.63027  -0.62646  -0.62320
 Alpha  occ. eigenvalues --   -0.62046  -0.61840  -0.61498  -0.61143  -0.60683
 Alpha  occ. eigenvalues --   -0.60022  -0.59615  -0.58931  -0.58826  -0.57949
 Alpha  occ. eigenvalues --   -0.57503  -0.57216  -0.57154  -0.56982  -0.56309
 Alpha  occ. eigenvalues --   -0.56140  -0.55811  -0.55632  -0.55139  -0.55003
 Alpha  occ. eigenvalues --   -0.54953  -0.54788  -0.54613  -0.54316  -0.53943
 Alpha  occ. eigenvalues --   -0.53818  -0.53609  -0.53231  -0.53175  -0.52573
 Alpha  occ. eigenvalues --   -0.52276  -0.52117  -0.52032  -0.51531  -0.51487
 Alpha  occ. eigenvalues --   -0.51181  -0.50851  -0.50549  -0.50260  -0.50233
 Alpha  occ. eigenvalues --   -0.49964  -0.49689  -0.49535  -0.49388  -0.49098
 Alpha  occ. eigenvalues --   -0.49036  -0.48995  -0.48526  -0.48193  -0.48057
 Alpha  occ. eigenvalues --   -0.48002  -0.47676  -0.47321  -0.47128  -0.46966
 Alpha  occ. eigenvalues --   -0.46783  -0.46657  -0.46607  -0.46543  -0.46262
 Alpha  occ. eigenvalues --   -0.45714  -0.45535  -0.45419  -0.45260  -0.45003
 Alpha  occ. eigenvalues --   -0.44976  -0.44641  -0.44341  -0.44193  -0.43936
 Alpha  occ. eigenvalues --   -0.43806  -0.43664  -0.43355  -0.43116  -0.42870
 Alpha  occ. eigenvalues --   -0.42862  -0.42350  -0.42097  -0.41950  -0.41746
 Alpha  occ. eigenvalues --   -0.41602  -0.41384  -0.40752  -0.40503  -0.40373
 Alpha  occ. eigenvalues --   -0.40331  -0.40112  -0.40003  -0.39497  -0.39268
 Alpha  occ. eigenvalues --   -0.39198  -0.39073  -0.38903  -0.38748  -0.38556
 Alpha  occ. eigenvalues --   -0.38420  -0.38322  -0.38190  -0.38153  -0.37866
 Alpha  occ. eigenvalues --   -0.37152  -0.36826  -0.36534  -0.36403  -0.36336
 Alpha  occ. eigenvalues --   -0.36047  -0.35887  -0.35637  -0.35597  -0.35449
 Alpha  occ. eigenvalues --   -0.34799  -0.34666  -0.34422  -0.34360  -0.34266
 Alpha  occ. eigenvalues --   -0.34232  -0.32860  -0.32525  -0.32315  -0.31964
 Alpha  occ. eigenvalues --   -0.31304  -0.30985  -0.30719  -0.28712  -0.27467
 Alpha  occ. eigenvalues --   -0.20347  -0.20266  -0.18365
 Alpha virt. eigenvalues --   -0.12758  -0.11979  -0.09184  -0.08400  -0.07162
 Alpha virt. eigenvalues --   -0.06689  -0.06417  -0.05639  -0.05125  -0.04974
 Alpha virt. eigenvalues --   -0.04718  -0.04251  -0.04227  -0.03788  -0.02709

 Mulliken charges:
               1
     1  N   -0.747375
     2  H    0.449436
     3  H    0.405445
     4  H    0.413865
     5  C   -0.110120
     6  H    0.208754
     7  C    0.653177
     8  C   -0.465695
     9  H    0.212861
    10  H    0.200912
    11  H    0.183381
    12  O   -0.532566
    13  N   -0.583655
    14  H    0.363203
    15  C   -0.078170
    16  H    0.203382
    17  C    0.630581
    18  C   -0.364343
    19  H    0.179865
    20  H    0.209811
    21  O   -0.528331
    22  C    0.641305
    23  N   -0.720056
    24  H    0.363327
    25  H    0.368695
    26  O   -0.579356
    27  N   -0.591713
    28  H    0.352719
    29  C   -0.088294
    30  H    0.181392
    31  C    0.627264
    32  C   -0.259555
    33  H    0.179256
    34  H    0.186699
    35  O   -0.553660
    36  C   -0.385695
    37  H    0.171211
    38  H    0.201542
    39  C    0.604626
    40  O   -0.455186
    41  O   -0.570358
    42  N   -0.600109
    43  H    0.340144
    44  C   -0.079688
    45  H    0.199352
    46  C    0.626837
    47  C   -0.264932
    48  H    0.152501
    49  H    0.127672
    50  O   -0.521974
    51  C   -0.078977
    52  H    0.164903
    53  C   -0.453023
    54  H    0.132853
    55  H    0.138679
    56  H    0.155577
    57  C   -0.448116
    58  H    0.134843
    59  H    0.153558
    60  H    0.150552
    61  N   -0.646066
    62  H    0.368607
    63  C   -0.009535
    64  H    0.166190
    65  C    0.607034
    66  C   -0.285036
    67  H    0.175195
    68  H    0.158164
    69  O   -0.556469
    70  C   -0.085531
    71  H    0.118541
    72  C   -0.447784
    73  H    0.162236
    74  H    0.136751
    75  H    0.141814
    76  C   -0.443414
    77  H    0.150502
    78  H    0.141995
    79  H    0.140877
    80  N   -0.621059
    81  H    0.361260
    82  C   -0.056165
    83  H    0.183467
    84  C    0.628116
    85  C   -0.078831
    86  H    0.160117
    87  O   -0.570432
    88  C   -0.281544
    89  H    0.145234
    90  H    0.154778
    91  C   -0.460292
    92  H    0.152467
    93  H    0.148543
    94  H    0.155306
    95  C   -0.453942
    96  H    0.164030
    97  H    0.153147
    98  H    0.138094
    99  N   -0.609596
   100  H    0.378857
   101  C   -0.087983
   102  H    0.189257
   103  C    0.601110
   104  C   -0.397543
   105  H    0.213865
   106  H    0.188022
   107  O   -0.530698
   108  C    0.636165
   109  N   -0.766107
   110  H    0.413983
   111  H    0.349870
   112  O   -0.595466
   113  N   -0.573659
   114  H    0.349941
   115  C   -0.087749
   116  H    0.180126
   117  C    0.607283
   118  C   -0.088533
   119  H    0.189609
   120  O   -0.604200
   121  C   -0.446221
   122  H    0.137275
   123  H    0.151677
   124  H    0.149595
   125  C   -0.464630
   126  H    0.130674
   127  H    0.158425
   128  H    0.165953
   129  N   -0.589810
   130  H    0.366877
   131  C   -0.083471
   132  H    0.142447
   133  C    0.582574
   134  C   -0.263260
   135  H    0.188018
   136  H    0.122972
   137  O   -0.568722
   138  C   -0.265713
   139  H    0.146755
   140  H    0.126117
   141  C   -0.300154
   142  H    0.219652
   143  H    0.125459
   144  C   -0.187042
   145  H    0.185818
   146  H    0.210464
   147  N   -0.749504
   148  H    0.396199
   149  H    0.386730
   150  H    0.442795
   151  O   -0.614748
   152  H    0.414637
 Sum of Mulliken charges =   1.00000

 Dipole moment (field-independent basis, Debye):
    X=            -31.6776    Y=             -5.5451    Z=            -36.3822  Tot=             48.5580
 Quadrupole moment (field-independent basis, Debye-Ang):
   XX=           -563.2023   YY=           -239.1869   ZZ=           -108.5624
   XY=            200.0673   XZ=             12.3761   YZ=            309.8175

 Normal termination of Gaussian 16 at Mon Jul 11 13:00:31 2022.
