 Gaussian 16, Revision C.01,
 Gaussian 16:  ES64L-G16RevC.01  3-Jul-2019

 -------------------------------------------------------------------
 # B3LYP/6-31G* guess=read geom=check nosymm integral(ultrafinegrid)
 -------------------------------------------------------------------

 ------------------------------------------------------
 Candidate Structure: Conf:535 Charge calc in gas phase
 ------------------------------------------------------
 Structure from the checkpoint file:  "conf-535.chk"
 Charge =  1 Multiplicity = 1

                          Input orientation:
 ---------------------------------------------------------------------
 Center     Atomic      Atomic             Coordinates (Angstroms)
 Number     Number       Type             X           Y           Z
 ---------------------------------------------------------------------
      1          7           0       -6.572022   -8.513219   -4.188584
      2          1           0       -6.532052   -9.533862   -4.139594
      3          1           0       -6.575913   -8.106281   -3.213210
      4          1           0       -5.734860   -8.122743   -4.659430
      5          6           0       -7.753529   -8.002970   -4.982383
      6          1           0       -7.791599   -8.605964   -5.896741
      7          6           0       -7.307275   -6.570698   -5.372542
      8          6           0       -9.049894   -8.138753   -4.191548
      9          1           0       -9.898150   -7.821751   -4.804805
     10          1           0       -9.027653   -7.531009   -3.282633
     11          1           0       -9.228355   -9.182984   -3.913984
     12          8           0       -6.088022   -6.344066   -5.416835
     13          7           0       -8.267825   -5.681322   -5.616803
     14          1           0       -9.238129   -5.972232   -5.788413
     15          6           0       -7.977777   -4.298198   -6.028046
     16          1           0       -7.154134   -4.319761   -6.749656
     17          6           0       -7.566014   -3.498603   -4.753161
     18          6           0       -9.236938   -3.640782   -6.629497
     19          1           0       -8.923865   -2.753650   -7.187837
     20          1           0       -9.843942   -3.288074   -5.786403
     21          8           0       -8.413929   -2.940739   -4.062952
     22          6           0      -10.122825   -4.554451   -7.467289
     23          7           0      -10.513390   -4.081866   -8.670881
     24          1           0      -11.181584   -4.621101   -9.206413
     25          1           0      -10.274225   -3.157057   -8.996237
     26          8           0      -10.497311   -5.657870   -7.048897
     27          7           0       -6.247813   -3.516868   -4.461042
     28          1           0       -5.589609   -4.066642   -5.007433
     29          6           0       -5.724844   -2.973027   -3.215194
     30          1           0       -6.173608   -1.988289   -3.051539
     31          6           0       -4.199332   -2.868831   -3.387578
     32          6           0       -6.096237   -3.867038   -2.003064
     33          1           0       -5.799189   -3.369369   -1.074678
     34          1           0       -7.188296   -3.940018   -1.990732
     35          8           0       -3.609446   -3.665271   -4.123715
     36          6           0       -5.451577   -5.272795   -2.080080
     37          1           0       -4.416330   -5.229294   -1.720974
     38          1           0       -5.421258   -5.630069   -3.110576
     39          6           0       -6.184173   -6.296571   -1.256907
     40          8           0       -6.649531   -7.358682   -1.673783
     41          8           0       -6.306224   -5.955011    0.025421
     42          7           0       -3.597253   -1.919079   -2.653003
     43          1           0       -4.116589   -1.266681   -2.069435
     44          6           0       -2.153793   -1.700823   -2.622261
     45          1           0       -1.659638   -2.676167   -2.576660
     46          6           0       -1.905004   -0.900506   -1.327987
     47          6           0       -1.689198   -0.935828   -3.889594
     48          1           0       -2.149056    0.060792   -3.862115
     49          1           0       -2.121868   -1.466421   -4.746746
     50          8           0       -2.816698   -0.235348   -0.826614
     51          6           0       -0.168750   -0.800699   -4.113170
     52          1           0        0.276026   -0.293489   -3.246590
     53          6           0        0.525487   -2.162247   -4.279208
     54          1           0        0.091940   -2.722858   -5.117125
     55          1           0        0.445273   -2.792473   -3.385262
     56          1           0        1.593864   -2.027973   -4.479739
     57          6           0        0.086249    0.084001   -5.343932
     58          1           0       -0.332428   -0.372434   -6.250192
     59          1           0       -0.368633    1.074570   -5.227050
     60          1           0        1.160263    0.224912   -5.508370
     61          7           0       -0.662352   -0.969366   -0.816813
     62          1           0        0.082179   -1.491075   -1.271328
     63          6           0       -0.211761   -0.168287    0.316659
     64          1           0       -0.725994    0.796283    0.274313
     65          6           0        1.304304    0.011261    0.102630
     66          6           0       -0.544547   -0.881115    1.652609
     67          1           0       -1.605350   -1.157387    1.598580
     68          1           0        0.029727   -1.816714    1.682037
     69          8           0        1.936312   -0.808195   -0.571830
     70          6           0       -0.307709   -0.085648    2.952672
     71          1           0        0.744540    0.227775    2.989746
     72          6           0       -1.185559    1.173398    3.040058
     73          1           0       -2.249783    0.913359    2.976978
     74          1           0       -0.976535    1.893316    2.240316
     75          1           0       -1.021770    1.693967    3.990050
     76          6           0       -0.559580   -0.999219    4.162744
     77          1           0       -1.600478   -1.347334    4.182420
     78          1           0        0.088642   -1.883251    4.140294
     79          1           0       -0.370904   -0.467399    5.102336
     80          7           0        1.865655    1.085336    0.689237
     81          1           0        1.332668    1.716205    1.280907
     82          6           0        3.299898    1.350043    0.675154
     83          1           0        3.819323    0.390893    0.761419
     84          6           0        3.568989    2.210174    1.923838
     85          6           0        3.734945    2.030350   -0.663894
     86          1           0        3.284926    1.392973   -1.436451
     87          8           0        2.646209    2.804007    2.492939
     88          6           0        5.257956    2.028173   -0.914572
     89          1           0        5.416259    2.505792   -1.890566
     90          1           0        5.770376    2.672870   -0.189063
     91          6           0        3.154456    3.444787   -0.804147
     92          1           0        3.602209    4.139451   -0.083557
     93          1           0        2.070551    3.455797   -0.648768
     94          1           0        3.352257    3.837564   -1.807544
     95          6           0        5.919097    0.643561   -0.937789
     96          1           0        6.959941    0.722189   -1.268292
     97          1           0        5.395456   -0.035721   -1.620946
     98          1           0        5.936813    0.165289    0.049004
     99          7           0        4.849236    2.268594    2.341058
    100          1           0        5.611578    1.841142    1.818815
    101          6           0        5.309541    3.199934    3.358452
    102          1           0        4.864319    4.184537    3.175538
    103          6           0        6.845602    3.297681    3.153040
    104          6           0        4.884919    2.744579    4.777784
    105          1           0        5.610963    2.032279    5.190445
    106          1           0        3.928956    2.220714    4.688183
    107          8           0        7.391054    2.607363    2.284540
    108          6           0        4.731149    3.909214    5.752484
    109          7           0        3.912978    3.678382    6.812319
    110          1           0        3.317310    2.866435    6.868078
    111          1           0        3.762362    4.433108    7.468073
    112          8           0        5.319650    4.979834    5.611989
    113          7           0        7.487483    4.163525    3.955960
    114          1           0        6.945142    4.668529    4.661839
    115          6           0        8.932513    4.367993    3.903017
    116          1           0        9.321037    3.649637    3.175504
    117          6           0        9.493605    4.088359    5.306776
    118          6           0        9.292696    5.810159    3.453642
    119          1           0        8.859583    6.487473    4.202590
    120          8           0        9.018173    4.639802    6.298596
    121          6           0       10.814595    6.021724    3.438284
    122          1           0       11.305957    5.329241    2.742458
    123          1           0       11.051929    7.039904    3.111440
    124          1           0       11.262851    5.881065    4.427241
    125          6           0        8.684328    6.134088    2.082851
    126          1           0        9.079580    5.466569    1.307054
    127          1           0        8.925199    7.163480    1.794439
    128          1           0        7.594539    6.035596    2.089958
    129          7           0       10.521909    3.205422    5.369177
    130          1           0       11.004094    2.902035    4.528449
    131          6           0       11.278151    3.009663    6.596310
    132          1           0       11.543999    3.999890    6.996830
    133          6           0       12.596259    2.316921    6.188106
    134          6           0       10.485870    2.254555    7.696280
    135          1           0       10.766479    1.194926    7.681425
    136          1           0        9.425288    2.299418    7.440406
    137          8           0       13.382910    1.835095    7.145979
    138          6           0       10.698453    2.876590    9.091152
    139          1           0        9.984322    3.698545    9.216004
    140          1           0       11.690698    3.342003    9.138063
    141          6           0       10.576702    1.899025   10.268568
    142          1           0       10.744584    2.455069   11.201509
    143          1           0        9.559019    1.492713   10.336551
    144          6           0       11.560808    0.720752   10.198415
    145          1           0       11.579877    0.201549   11.168172
    146          1           0       11.226280   -0.012522    9.456613
    147          7           0       12.903261    1.172449    9.773903
    148          1           0       13.546456    0.381484    9.749192
    149          1           0       13.286107    1.825535   10.458361
    150          1           0       13.021096    1.785745    8.083450
    151          8           0       12.920400    2.240659    5.018602
    152          1           0       -6.793553   -6.665249    0.487209
 ---------------------------------------------------------------------

 SCF Done:  E(RB3LYP) =  -3473.79198907     A.U. after    2 cycles

 Alpha  occ. eigenvalues --  -19.31437 -19.27085 -19.25055 -19.22113 -19.20587
 Alpha  occ. eigenvalues --  -19.20026 -19.19306 -19.17944 -19.17115 -19.16971
 Alpha  occ. eigenvalues --  -19.16817 -19.15814 -19.15609 -19.14255 -14.56979
 Alpha  occ. eigenvalues --  -14.47933 -14.46067 -14.44617 -14.43293 -14.41908
 Alpha  occ. eigenvalues --  -14.41109 -14.41104 -14.40471 -14.39053 -14.39044
 Alpha  occ. eigenvalues --  -14.38673 -10.44637 -10.42063 -10.39833 -10.39243
 Alpha  occ. eigenvalues --  -10.37892 -10.36553 -10.35068 -10.34687 -10.34605
 Alpha  occ. eigenvalues --  -10.34274 -10.34209 -10.33763 -10.32934 -10.32160
 Alpha  occ. eigenvalues --  -10.31709 -10.31322 -10.30004 -10.29964 -10.29956
 Alpha  occ. eigenvalues --  -10.28993 -10.28927 -10.28482 -10.28005 -10.26947
 Alpha  occ. eigenvalues --  -10.26372 -10.25945 -10.25149 -10.24466 -10.24405
 Alpha  occ. eigenvalues --  -10.24136 -10.23943 -10.23717 -10.23021 -10.22527
 Alpha  occ. eigenvalues --  -10.22390 -10.22339 -10.22332 -10.22292 -10.22221
 Alpha  occ. eigenvalues --  -10.22166 -10.22045 -10.21409 -10.21148 -10.20287
 Alpha  occ. eigenvalues --  -10.20054  -1.22898  -1.17316  -1.13796  -1.13622
 Alpha  occ. eigenvalues --   -1.12676  -1.11427  -1.11396  -1.11200  -1.09914
 Alpha  occ. eigenvalues --   -1.09147  -1.08752  -1.08395  -1.07464  -1.06127
 Alpha  occ. eigenvalues --   -1.04739  -1.03289  -1.01181  -1.00781  -0.99779
 Alpha  occ. eigenvalues --   -0.98449  -0.97669  -0.97146  -0.96019  -0.95631
 Alpha  occ. eigenvalues --   -0.95223  -0.94766  -0.91748  -0.90021  -0.88025
 Alpha  occ. eigenvalues --   -0.87130  -0.86200  -0.85301  -0.84249  -0.83801
 Alpha  occ. eigenvalues --   -0.83521  -0.82198  -0.81511  -0.80128  -0.79348
 Alpha  occ. eigenvalues --   -0.79035  -0.77652  -0.77408  -0.75699  -0.74972
 Alpha  occ. eigenvalues --   -0.74708  -0.73345  -0.73150  -0.73023  -0.72445
 Alpha  occ. eigenvalues --   -0.72203  -0.71741  -0.71494  -0.71097  -0.70940
 Alpha  occ. eigenvalues --   -0.69917  -0.69261  -0.69111  -0.67544  -0.67423
 Alpha  occ. eigenvalues --   -0.66550  -0.65758  -0.65007  -0.64662  -0.64475
 Alpha  occ. eigenvalues --   -0.64366  -0.63822  -0.63651  -0.63426  -0.63223
 Alpha  occ. eigenvalues --   -0.62162  -0.61664  -0.61574  -0.61528  -0.61168
 Alpha  occ. eigenvalues --   -0.61087  -0.60621  -0.60251  -0.60195  -0.60152
 Alpha  occ. eigenvalues --   -0.59674  -0.59423  -0.59302  -0.58650  -0.57971
 Alpha  occ. eigenvalues --   -0.57343  -0.56971  -0.55757  -0.55620  -0.55064
 Alpha  occ. eigenvalues --   -0.54811  -0.54724  -0.54160  -0.54020  -0.53964
 Alpha  occ. eigenvalues --   -0.53242  -0.53207  -0.52870  -0.52433  -0.52277
 Alpha  occ. eigenvalues --   -0.52081  -0.51913  -0.51772  -0.51651  -0.51371
 Alpha  occ. eigenvalues --   -0.51288  -0.51060  -0.50718  -0.50581  -0.50379
 Alpha  occ. eigenvalues --   -0.50187  -0.49875  -0.49763  -0.49695  -0.49338
 Alpha  occ. eigenvalues --   -0.49237  -0.49138  -0.49062  -0.48600  -0.48456
 Alpha  occ. eigenvalues --   -0.48324  -0.48114  -0.47848  -0.47624  -0.47529
 Alpha  occ. eigenvalues --   -0.47487  -0.47118  -0.46685  -0.46458  -0.46398
 Alpha  occ. eigenvalues --   -0.46362  -0.46007  -0.45889  -0.45542  -0.45393
 Alpha  occ. eigenvalues --   -0.45361  -0.45303  -0.45122  -0.44569  -0.44293
 Alpha  occ. eigenvalues --   -0.44077  -0.44004  -0.43921  -0.43785  -0.43474
 Alpha  occ. eigenvalues --   -0.43406  -0.43222  -0.43095  -0.42699  -0.42545
 Alpha  occ. eigenvalues --   -0.42324  -0.41990  -0.41954  -0.41646  -0.41548
 Alpha  occ. eigenvalues --   -0.41465  -0.41276  -0.40944  -0.40807  -0.40557
 Alpha  occ. eigenvalues --   -0.40479  -0.40377  -0.39939  -0.39499  -0.39352
 Alpha  occ. eigenvalues --   -0.39100  -0.38964  -0.38885  -0.38375  -0.38018
 Alpha  occ. eigenvalues --   -0.37847  -0.37798  -0.37630  -0.37522  -0.37151
 Alpha  occ. eigenvalues --   -0.37040  -0.37022  -0.36917  -0.36754  -0.36587
 Alpha  occ. eigenvalues --   -0.36445  -0.36284  -0.36173  -0.35749  -0.34833
 Alpha  occ. eigenvalues --   -0.33782  -0.33361  -0.33032  -0.32637  -0.32340
 Alpha  occ. eigenvalues --   -0.32123  -0.31823  -0.31562  -0.31438  -0.31224
 Alpha  occ. eigenvalues --   -0.30533  -0.30424  -0.30145  -0.29757  -0.29612
 Alpha  occ. eigenvalues --   -0.29030  -0.28426  -0.27114
 Alpha virt. eigenvalues --   -0.11599  -0.11477  -0.08224  -0.07356  -0.06897
 Alpha virt. eigenvalues --   -0.05346  -0.04015  -0.03290  -0.02832  -0.02718
 Alpha virt. eigenvalues --   -0.02368  -0.02217  -0.01997  -0.01794  -0.01146

 Mulliken charges:
               1
     1  N   -0.772744
     2  H    0.400617
     3  H    0.451883
     4  H    0.418115
     5  C   -0.123534
     6  H    0.226221
     7  C    0.655111
     8  C   -0.480924
     9  H    0.217018
    10  H    0.198627
    11  H    0.181957
    12  O   -0.546777
    13  N   -0.624211
    14  H    0.401377
    15  C   -0.054130
    16  H    0.188385
    17  C    0.626325
    18  C   -0.413766
    19  H    0.173050
    20  H    0.238970
    21  O   -0.517988
    22  C    0.626968
    23  N   -0.736400
    24  H    0.364051
    25  H    0.359475
    26  O   -0.544401
    27  N   -0.612156
    28  H    0.376496
    29  C   -0.056441
    30  H    0.188716
    31  C    0.634995
    32  C   -0.283146
    33  H    0.180948
    34  H    0.187484
    35  O   -0.556607
    36  C   -0.369081
    37  H    0.207326
    38  H    0.188963
    39  C    0.597176
    40  O   -0.527070
    41  O   -0.517742
    42  N   -0.627151
    43  H    0.359065
    44  C   -0.053149
    45  H    0.170683
    46  C    0.619310
    47  C   -0.256255
    48  H    0.145615
    49  H    0.161411
    50  O   -0.551343
    51  C   -0.092192
    52  H    0.138723
    53  C   -0.448880
    54  H    0.148867
    55  H    0.135994
    56  H    0.158506
    57  C   -0.445177
    58  H    0.142213
    59  H    0.146018
    60  H    0.152074
    61  N   -0.623265
    62  H    0.365519
    63  C   -0.058823
    64  H    0.178885
    65  C    0.623197
    66  C   -0.251474
    67  H    0.155376
    68  H    0.141277
    69  O   -0.554140
    70  C   -0.090536
    71  H    0.134774
    72  C   -0.447604
    73  H    0.149817
    74  H    0.143991
    75  H    0.150962
    76  C   -0.443477
    77  H    0.141566
    78  H    0.143295
    79  H    0.144130
    80  N   -0.623241
    81  H    0.365835
    82  C   -0.061570
    83  H    0.179579
    84  C    0.625984
    85  C   -0.073968
    86  H    0.153464
    87  O   -0.563745
    88  C   -0.278155
    89  H    0.141937
    90  H    0.151498
    91  C   -0.461021
    92  H    0.155055
    93  H    0.146176
    94  H    0.150253
    95  C   -0.455494
    96  H    0.159065
    97  H    0.153814
    98  H    0.141939
    99  N   -0.642692
   100  H    0.378919
   101  C   -0.031389
   102  H    0.199562
   103  C    0.592262
   104  C   -0.380909
   105  H    0.188633
   106  H    0.181785
   107  O   -0.549998
   108  C    0.630089
   109  N   -0.745877
   110  H    0.344385
   111  H    0.353999
   112  O   -0.514382
   113  N   -0.626321
   114  H    0.396244
   115  C   -0.052659
   116  H    0.170899
   117  C    0.619746
   118  C   -0.076630
   119  H    0.150913
   120  O   -0.546916
   121  C   -0.463512
   122  H    0.147907
   123  H    0.152984
   124  H    0.157107
   125  C   -0.447372
   126  H    0.149571
   127  H    0.147604
   128  H    0.146927
   129  N   -0.623772
   130  H    0.358349
   131  C   -0.042075
   132  H    0.184677
   133  C    0.583066
   134  C   -0.284627
   135  H    0.141323
   136  H    0.174570
   137  O   -0.617760
   138  C   -0.273047
   139  H    0.169919
   140  H    0.134560
   141  C   -0.279283
   142  H    0.140954
   143  H    0.146553
   144  C   -0.138365
   145  H    0.141796
   146  H    0.158020
   147  N   -0.766865
   148  H    0.333567
   149  H    0.323778
   150  H    0.477648
   151  O   -0.473358
   152  H    0.431144
 Sum of Mulliken charges =   1.00000

 Dipole moment (field-independent basis, Debye):
    X=            -26.1425    Y=            -28.4414    Z=             -8.7868  Tot=             39.6175
 Quadrupole moment (field-independent basis, Debye-Ang):
   XX=           -157.8415   YY=           -199.9531   ZZ=           -151.6543
   XY=            204.6066   XZ=            264.1847   YZ=            114.6132

 Normal termination of Gaussian 16 at Mon Jul 11 13:01:02 2022.
