 Gaussian 16, Revision C.01,
 Gaussian 16:  ES64L-G16RevC.01  3-Jul-2019

 -------------------------------------------------------------------
 # B3LYP/6-31G* guess=read geom=check nosymm integral(ultrafinegrid)
 -------------------------------------------------------------------

 ------------------------------------------------------
 Candidate Structure: Conf:112 Charge calc in gas phase
 ------------------------------------------------------
 Structure from the checkpoint file:  "conf-112.chk"
 Charge =  1 Multiplicity = 1

                          Input orientation:
 ---------------------------------------------------------------------
 Center     Atomic      Atomic             Coordinates (Angstroms)
 Number     Number       Type             X           Y           Z
 ---------------------------------------------------------------------
      1          7           0      -11.138001   -2.752502   -3.497763
      2          1           0      -10.687385   -3.290804   -4.278140
      3          1           0      -12.154897   -2.705000   -3.606918
      4          1           0      -10.888027   -3.248938   -2.629827
      5          6           0      -10.474084   -1.387992   -3.422588
      6          1           0      -10.637387   -0.915200   -4.393782
      7          6           0       -9.000569   -1.797334   -3.215943
      8          6           0      -11.053679   -0.568431   -2.276452
      9          1           0      -10.576231    0.415681   -2.257235
     10          1           0      -10.861759   -1.055617   -1.315200
     11          1           0      -12.131030   -0.411975   -2.397293
     12          8           0       -8.766466   -2.679050   -2.389842
     13          7           0       -8.091828   -1.232877   -4.026530
     14          1           0       -8.345078   -0.521636   -4.706710
     15          6           0       -6.815855   -1.875667   -4.300214
     16          1           0       -6.450547   -2.328062   -3.375985
     17          6           0       -5.878175   -0.771311   -4.828656
     18          6           0       -6.965102   -2.954964   -5.421519
     19          1           0       -6.000825   -3.458028   -5.548676
     20          1           0       -7.193627   -2.431775   -6.356348
     21          8           0       -6.357697    0.127343   -5.524001
     22          6           0       -8.090100   -3.962909   -5.202500
     23          7           0       -7.722932   -5.231917   -4.947971
     24          1           0       -8.436065   -5.940992   -4.834834
     25          1           0       -6.756544   -5.522664   -4.910968
     26          8           0       -9.282957   -3.625240   -5.284068
     27          7           0       -4.581935   -0.901362   -4.515245
     28          1           0       -4.225658   -1.680511   -3.962423
     29          6           0       -3.523211   -0.051353   -5.048052
     30          1           0       -3.662916    0.039201   -6.130482
     31          6           0       -2.213329   -0.830013   -4.787602
     32          6           0       -3.500111    1.375325   -4.414550
     33          1           0       -4.123448    1.357475   -3.515708
     34          1           0       -2.484627    1.617895   -4.086136
     35          8           0       -2.222928   -1.847099   -4.077048
     36          6           0       -4.005188    2.477821   -5.350313
     37          1           0       -4.133671    3.420814   -4.806000
     38          1           0       -4.990944    2.218060   -5.755032
     39          6           0       -3.072107    2.740105   -6.510847
     40          8           0       -2.078908    2.087529   -6.789091
     41          8           0       -3.460836    3.795564   -7.241737
     42          7           0       -1.119029   -0.325366   -5.375496
     43          1           0       -1.216294    0.536889   -5.912821
     44          6           0        0.215143   -0.928361   -5.227469
     45          1           0        0.058399   -2.009639   -5.170042
     46          6           0        0.839492   -0.447222   -3.893354
     47          6           0        1.083592   -0.564808   -6.435441
     48          1           0        1.274848    0.514091   -6.400632
     49          1           0        0.502730   -0.769089   -7.345413
     50          8           0        1.674747    0.459569   -3.851993
     51          6           0        2.432686   -1.308393   -6.518543
     52          1           0        2.966772   -1.135182   -5.575129
     53          6           0        2.263254   -2.823357   -6.713087
     54          1           0        1.711463   -3.041713   -7.636934
     55          1           0        1.728333   -3.298598   -5.882527
     56          1           0        3.239968   -3.314215   -6.789301
     57          6           0        3.280636   -0.710870   -7.651552
     58          1           0        2.786821   -0.838325   -8.623752
     59          1           0        3.451200    0.360959   -7.499464
     60          1           0        4.258364   -1.202115   -7.711011
     61          7           0        0.368478   -1.082049   -2.794530
     62          1           0       -0.383749   -1.752473   -2.922687
     63          6           0        0.667910   -0.630327   -1.427637
     64          1           0        0.778057    0.458671   -1.478096
     65          6           0        2.021501   -1.208617   -0.939449
     66          6           0       -0.477466   -1.018844   -0.486588
     67          1           0       -1.428635   -0.789796   -0.989308
     68          1           0       -0.435425   -2.103898   -0.335482
     69          8           0        2.102048   -2.042932   -0.042483
     70          6           0       -0.452819   -0.321871    0.889950
     71          1           0        0.546599   -0.468648    1.316287
     72          6           0       -0.724470    1.187050    0.790717
     73          1           0       -1.715963    1.381081    0.358262
     74          1           0        0.018657    1.707466    0.176445
     75          1           0       -0.701327    1.650221    1.783557
     76          6           0       -1.467001   -0.991845    1.828717
     77          1           0       -2.489371   -0.902857    1.435800
     78          1           0       -1.246896   -2.057987    1.955801
     79          1           0       -1.453415   -0.525238    2.820312
     80          7           0        3.106724   -0.706483   -1.581178
     81          1           0        2.957083    0.003893   -2.292270
     82          6           0        4.447351   -1.014996   -1.120342
     83          1           0        4.559894   -2.106332   -1.099632
     84          6           0        4.621986   -0.482281    0.321147
     85          6           0        5.494696   -0.421881   -2.107675
     86          1           0        5.116134   -0.675684   -3.109416
     87          8           0        4.046498    0.519322    0.722666
     88          6           0        6.861887   -1.119529   -1.957765
     89          1           0        7.262127   -0.901470   -0.957104
     90          1           0        6.708359   -2.206713   -1.989572
     91          6           0        5.596345    1.109875   -2.006178
     92          1           0        6.050046    1.416506   -1.056767
     93          1           0        4.612604    1.586904   -2.054553
     94          1           0        6.198075    1.515414   -2.825264
     95          6           0        7.889081   -0.736151   -3.029914
     96          1           0        8.805671   -1.327869   -2.922521
     97          1           0        8.167499    0.322110   -2.979444
     98          1           0        7.496620   -0.924399   -4.036268
     99          7           0        5.520556   -1.168616    1.101124
    100          1           0        5.675401   -2.160129    0.913951
    101          6           0        5.567735   -0.845231    2.518052
    102          1           0        4.571059   -0.982522    2.963127
    103          6           0        6.000562    0.609426    2.762689
    104          6           0        6.579771   -1.759427    3.247079
    105          1           0        6.688321   -1.414331    4.278843
    106          1           0        7.561357   -1.634994    2.774876
    107          8           0        6.894151    1.165245    2.092922
    108          6           0        6.226926   -3.238616    3.131385
    109          7           0        6.162826   -3.925191    4.298526
    110          1           0        6.379819   -3.502203    5.188626
    111          1           0        5.979886   -4.919300    4.265540
    112          8           0        6.027079   -3.771630    2.038969
    113          7           0        5.417861    1.204508    3.805756
    114          1           0        4.748662    0.651605    4.323832
    115          6           0        6.005212    2.339557    4.524555
    116          1           0        6.103206    3.176079    3.824506
    117          6           0        7.426394    1.902932    5.007664
    118          6           0        5.042788    2.742900    5.678565
    119          1           0        5.039327    1.903935    6.392834
    120          8           0        7.687323    0.694757    5.138539
    121          6           0        5.497008    4.008658    6.421560
    122          1           0        5.472628    4.877954    5.751896
    123          1           0        4.802484    4.212553    7.244289
    124          1           0        6.505754    3.958181    6.836623
    125          6           0        3.606274    2.956231    5.161908
    126          1           0        3.581178    3.762994    4.419233
    127          1           0        2.955011    3.248559    5.992769
    128          1           0        3.164855    2.068736    4.695061
    129          7           0        8.294314    2.902626    5.203513
    130          1           0        7.969061    3.882186    5.329889
    131          6           0        9.518380    2.803501    6.010986
    132          1           0        9.424436    1.945196    6.685377
    133          6           0        9.574430    4.141041    6.870270
    134          6           0       10.824849    2.668899    5.215190
    135          1           0       11.616877    2.701132    5.968972
    136          1           0       10.964558    3.560512    4.586780
    137          8           0       10.531543    4.221477    7.651726
    138          6           0       10.956568    1.400684    4.353820
    139          1           0       10.518507    0.553964    4.897529
    140          1           0       12.016354    1.163264    4.183756
    141          6           0       10.249949    1.548157    2.994499
    142          1           0        9.264381    1.993901    3.148781
    143          1           0       10.822632    2.234265    2.352679
    144          6           0       10.076119    0.211500    2.289942
    145          1           0       11.021010   -0.219019    1.945171
    146          1           0        9.573764   -0.503692    2.945266
    147          7           0        9.173656    0.373005    1.081281
    148          1           0        9.135497   -0.468556    0.500206
    149          1           0        9.497381    1.145644    0.491987
    150          1           0        8.170699    0.610044    1.411269
    151          8           0        8.636796    4.956053    6.615861
    152          1           0       -2.816433    3.900922   -7.968302
 ---------------------------------------------------------------------

 SCF Done:  E(RB3LYP) =  -3473.71661474     A.U. after    3 cycles

 Alpha  occ. eigenvalues --  -19.28711 -19.26104 -19.25965 -19.23862 -19.23323
 Alpha  occ. eigenvalues --  -19.21990 -19.19081 -19.18861 -19.18105 -19.16830
 Alpha  occ. eigenvalues --  -19.16360 -19.12859 -19.04235 -19.03024 -14.59744
 Alpha  occ. eigenvalues --  -14.51424 -14.49930 -14.49795 -14.47176 -14.44984
 Alpha  occ. eigenvalues --  -14.42754 -14.42541 -14.41619 -14.40760 -14.40145
 Alpha  occ. eigenvalues --  -14.34730 -10.43711 -10.43589 -10.41748 -10.40898
 Alpha  occ. eigenvalues --  -10.40621 -10.38682 -10.37177 -10.35926 -10.35668
 Alpha  occ. eigenvalues --  -10.35468 -10.33827 -10.33550 -10.33381 -10.33362
 Alpha  occ. eigenvalues --  -10.33235 -10.31201 -10.30943 -10.30280 -10.29678
 Alpha  occ. eigenvalues --  -10.29140 -10.29048 -10.28880 -10.28490 -10.26634
 Alpha  occ. eigenvalues --  -10.26482 -10.25816 -10.25208 -10.25072 -10.24920
 Alpha  occ. eigenvalues --  -10.24006 -10.23976 -10.23725 -10.23474 -10.23385
 Alpha  occ. eigenvalues --  -10.22969 -10.22903 -10.22769 -10.22255 -10.22194
 Alpha  occ. eigenvalues --  -10.22030 -10.20916 -10.20820 -10.19464 -10.18168
 Alpha  occ. eigenvalues --  -10.17943  -1.19990  -1.19054  -1.17119  -1.15356
 Alpha  occ. eigenvalues --   -1.13858  -1.13488  -1.10894  -1.10541  -1.10463
 Alpha  occ. eigenvalues --   -1.09834  -1.08926  -1.07765  -1.06670  -1.06114
 Alpha  occ. eigenvalues --   -1.04510  -1.03993  -1.03692  -1.01635  -0.99027
 Alpha  occ. eigenvalues --   -0.98296  -0.97608  -0.97175  -0.97108  -0.97038
 Alpha  occ. eigenvalues --   -0.93505  -0.91537  -0.91147  -0.89639  -0.88363
 Alpha  occ. eigenvalues --   -0.87750  -0.87179  -0.86201  -0.85024  -0.84621
 Alpha  occ. eigenvalues --   -0.84419  -0.82989  -0.82915  -0.81736  -0.80383
 Alpha  occ. eigenvalues --   -0.79426  -0.78925  -0.77908  -0.76398  -0.75555
 Alpha  occ. eigenvalues --   -0.75442  -0.74444  -0.74108  -0.73668  -0.73105
 Alpha  occ. eigenvalues --   -0.72847  -0.72566  -0.72128  -0.71556  -0.71061
 Alpha  occ. eigenvalues --   -0.70702  -0.70382  -0.70123  -0.68834  -0.68263
 Alpha  occ. eigenvalues --   -0.67841  -0.67668  -0.67518  -0.66564  -0.66255
 Alpha  occ. eigenvalues --   -0.65791  -0.65547  -0.65001  -0.63915  -0.63493
 Alpha  occ. eigenvalues --   -0.63093  -0.62983  -0.62766  -0.62314  -0.62011
 Alpha  occ. eigenvalues --   -0.61637  -0.60713  -0.60549  -0.60318  -0.60107
 Alpha  occ. eigenvalues --   -0.59998  -0.59620  -0.59423  -0.59039  -0.58169
 Alpha  occ. eigenvalues --   -0.57904  -0.57596  -0.56929  -0.56885  -0.56710
 Alpha  occ. eigenvalues --   -0.56408  -0.56154  -0.56017  -0.55498  -0.55242
 Alpha  occ. eigenvalues --   -0.55150  -0.55018  -0.54800  -0.54171  -0.53870
 Alpha  occ. eigenvalues --   -0.53843  -0.53480  -0.53266  -0.52845  -0.52768
 Alpha  occ. eigenvalues --   -0.52489  -0.52132  -0.51985  -0.51829  -0.51416
 Alpha  occ. eigenvalues --   -0.51234  -0.50768  -0.50560  -0.50311  -0.50123
 Alpha  occ. eigenvalues --   -0.49963  -0.49802  -0.49436  -0.49263  -0.48678
 Alpha  occ. eigenvalues --   -0.48611  -0.48303  -0.48164  -0.47779  -0.47660
 Alpha  occ. eigenvalues --   -0.47415  -0.46937  -0.46864  -0.46696  -0.46559
 Alpha  occ. eigenvalues --   -0.46449  -0.46185  -0.45888  -0.45740  -0.45582
 Alpha  occ. eigenvalues --   -0.45227  -0.45008  -0.44922  -0.44614  -0.44532
 Alpha  occ. eigenvalues --   -0.44455  -0.44221  -0.44152  -0.43860  -0.43705
 Alpha  occ. eigenvalues --   -0.43630  -0.43517  -0.43274  -0.42737  -0.42558
 Alpha  occ. eigenvalues --   -0.42359  -0.42218  -0.42059  -0.41288  -0.41213
 Alpha  occ. eigenvalues --   -0.41027  -0.40992  -0.40899  -0.40831  -0.40576
 Alpha  occ. eigenvalues --   -0.40523  -0.40336  -0.40005  -0.39348  -0.39226
 Alpha  occ. eigenvalues --   -0.39095  -0.38866  -0.38657  -0.38569  -0.38501
 Alpha  occ. eigenvalues --   -0.38289  -0.38075  -0.37940  -0.37542  -0.37476
 Alpha  occ. eigenvalues --   -0.37344  -0.37163  -0.36745  -0.36671  -0.36048
 Alpha  occ. eigenvalues --   -0.36035  -0.35651  -0.35598  -0.35177  -0.34719
 Alpha  occ. eigenvalues --   -0.34091  -0.33758  -0.33574  -0.33491  -0.33292
 Alpha  occ. eigenvalues --   -0.32529  -0.31766  -0.31740  -0.31317  -0.31062
 Alpha  occ. eigenvalues --   -0.30760  -0.29479  -0.29129  -0.26967  -0.25858
 Alpha  occ. eigenvalues --   -0.19314  -0.19122  -0.17211
 Alpha virt. eigenvalues --   -0.13285  -0.12494  -0.09637  -0.09184  -0.08356
 Alpha virt. eigenvalues --   -0.07530  -0.05851  -0.05194  -0.05075  -0.04746
 Alpha virt. eigenvalues --   -0.04677  -0.03748  -0.03174  -0.03160  -0.02378

 Mulliken charges:
               1
     1  N   -0.746644
     2  H    0.448345
     3  H    0.406263
     4  H    0.414118
     5  C   -0.109996
     6  H    0.209142
     7  C    0.652159
     8  C   -0.465748
     9  H    0.211793
    10  H    0.201143
    11  H    0.184722
    12  O   -0.531320
    13  N   -0.583300
    14  H    0.361983
    15  C   -0.075494
    16  H    0.203026
    17  C    0.637569
    18  C   -0.361748
    19  H    0.176006
    20  H    0.211824
    21  O   -0.540085
    22  C    0.640705
    23  N   -0.719938
    24  H    0.363882
    25  H    0.368513
    26  O   -0.579085
    27  N   -0.629379
    28  H    0.363292
    29  C   -0.026763
    30  H    0.192976
    31  C    0.596018
    32  C   -0.283381
    33  H    0.169049
    34  H    0.181911
    35  O   -0.566102
    36  C   -0.376769
    37  H    0.197001
    38  H    0.222955
    39  C    0.596505
    40  O   -0.484102
    41  O   -0.546051
    42  N   -0.631969
    43  H    0.400050
    44  C   -0.060689
    45  H    0.175579
    46  C    0.635276
    47  C   -0.276545
    48  H    0.165071
    49  H    0.136858
    50  O   -0.546461
    51  C   -0.082727
    52  H    0.146486
    53  C   -0.451809
    54  H    0.141646
    55  H    0.141179
    56  H    0.153699
    57  C   -0.446705
    58  H    0.141960
    59  H    0.151648
    60  H    0.147881
    61  N   -0.619417
    62  H    0.365981
    63  C   -0.066040
    64  H    0.177818
    65  C    0.651800
    66  C   -0.279532
    67  H    0.115973
    68  H    0.158624
    69  O   -0.537191
    70  C   -0.078020
    71  H    0.165197
    72  C   -0.449962
    73  H    0.123090
    74  H    0.153015
    75  H    0.152961
    76  C   -0.445863
    77  H    0.124311
    78  H    0.150298
    79  H    0.147149
    80  N   -0.639430
    81  H    0.374814
    82  C   -0.027281
    83  H    0.161375
    84  C    0.649456
    85  C   -0.107460
    86  H    0.144495
    87  O   -0.527171
    88  C   -0.263666
    89  H    0.107819
    90  H    0.145529
    91  C   -0.471462
    92  H    0.161404
    93  H    0.168814
    94  H    0.150153
    95  C   -0.455127
    96  H    0.143904
    97  H    0.147215
    98  H    0.157835
    99  N   -0.644870
   100  H    0.371841
   101  C   -0.061805
   102  H    0.167869
   103  C    0.717860
   104  C   -0.401390
   105  H    0.208564
   106  H    0.155622
   107  O   -0.606297
   108  C    0.616440
   109  N   -0.739155
   110  H    0.357967
   111  H    0.355118
   112  O   -0.522478
   113  N   -0.579224
   114  H    0.338620
   115  C   -0.027740
   116  H    0.172749
   117  C    0.603420
   118  C   -0.120689
   119  H    0.131597
   120  O   -0.590946
   121  C   -0.471027
   122  H    0.146489
   123  H    0.140832
   124  H    0.214207
   125  C   -0.442069
   126  H    0.153728
   127  H    0.153544
   128  H    0.127908
   129  N   -0.603932
   130  H    0.361383
   131  C   -0.074743
   132  H    0.144847
   133  C    0.584390
   134  C   -0.265718
   135  H    0.177388
   136  H    0.127970
   137  O   -0.576990
   138  C   -0.267386
   139  H    0.153348
   140  H    0.126262
   141  C   -0.289458
   142  H    0.204964
   143  H    0.136949
   144  C   -0.194479
   145  H    0.182933
   146  H    0.212376
   147  N   -0.776796
   148  H    0.392088
   149  H    0.390664
   150  H    0.459752
   151  O   -0.615032
   152  H    0.425703
 Sum of Mulliken charges =   1.00000

 Dipole moment (field-independent basis, Debye):
    X=            -45.4821    Y=            -23.5253    Z=            -35.9626  Tot=             62.5729
 Quadrupole moment (field-independent basis, Debye-Ang):
   XX=            -16.8674   YY=           -415.7971   ZZ=           -421.9935
   XY=            -25.4801   XZ=              1.2014   YZ=            -64.4396

 Normal termination of Gaussian 16 at Mon Jul 11 13:02:00 2022.
