 Gaussian 16, Revision C.01,
 Gaussian 16:  ES64L-G16RevC.01  3-Jul-2019

 -------------------------------------------------------------------
 # B3LYP/6-31G* guess=read geom=check nosymm integral(ultrafinegrid)
 -------------------------------------------------------------------

 -----------------------------------------------------
 Candidate Structure: Conf:14 Charge calc in gas phase
 -----------------------------------------------------
 Structure from the checkpoint file:  "conf-14.chk"
 Charge =  1 Multiplicity = 1

                          Input orientation:
 ---------------------------------------------------------------------
 Center     Atomic      Atomic             Coordinates (Angstroms)
 Number     Number       Type             X           Y           Z
 ---------------------------------------------------------------------
      1          7           0       -9.563629    1.252277    7.049351
      2          1           0      -10.474367    0.874690    6.784022
      3          1           0       -9.500955    1.357733    8.062494
      4          1           0       -8.843169    0.604928    6.712478
      5          6           0       -9.294968    2.537824    6.382090
      6          1           0      -10.225680    3.102713    6.286493
      7          6           0       -8.724179    2.223628    5.004118
      8          6           0       -8.303166    3.374843    7.193008
      9          1           0       -8.095160    4.300133    6.652276
     10          1           0       -7.359526    2.828433    7.269619
     11          8           0       -8.162737    1.151219    4.789602
     12          6           0       -8.830627    3.687021    8.571085
     13          6           0       -9.912429    4.550651    8.732257
     14          1           0      -10.345436    5.013170    7.852708
     15          6           0       -8.293982    3.073435    9.698461
     16          1           0       -7.464737    2.381710    9.585650
     17          6           0      -10.428839    4.820518    9.995437
     18          1           0      -11.263782    5.504620   10.096446
     19          6           0       -8.815308    3.324364   10.964705
     20          1           0       -8.384793    2.831508   11.828441
     21          6           0       -9.882955    4.203712   11.117169
     22          1           0      -10.287035    4.405683   12.102618
     23          7           0       -8.841438    3.186896    4.067814
     24          1           0       -9.296094    4.052318    4.297168
     25          6           0       -8.385960    2.997409    2.698120
     26          1           0       -8.499109    1.927746    2.483313
     27          6           0       -6.893472    3.353473    2.611303
     28          6           0       -9.230644    3.821753    1.747133
     29          1           0       -8.936153    3.650489    0.710551
     30          1           0       -9.119053    4.885309    1.964733
     31          1           0      -10.278965    3.535495    1.853979
     32          8           0       -6.472078    4.330350    2.000697
     33          7           0       -6.073889    2.529788    3.318336
     34          1           0       -6.436239    1.643926    3.650560
     35          6           0       -4.640343    2.601817    3.153867
     36          1           0       -4.422322    3.591843    2.749270
     37          6           0       -4.206008    1.530982    2.148708
     38          6           0       -3.926296    2.394728    4.483745
     39          1           0       -2.845864    2.501026    4.358503
     40          1           0       -4.130260    1.392764    4.870127
     41          1           0       -4.269306    3.127929    5.214576
     42          8           0       -4.770206    0.454956    2.065225
     43          7           0       -3.135262    1.859242    1.377344
     44          1           0       -2.526889    2.628429    1.610730
     45          6           0       -2.611904    0.934009    0.404608
     46          1           0       -2.937905   -0.066427    0.693024
     47          6           0       -1.085913    1.057756    0.427421
     48          6           0       -3.132368    1.224448   -1.017220
     49          1           0       -2.713354    2.179859   -1.343094
     50          1           0       -2.748964    0.452113   -1.687957
     51          8           0       -0.520683    2.022590    0.909476
     52          6           0       -4.632623    1.291188   -1.082512
     53          6           0       -5.289616    2.483435   -0.761286
     54          1           0       -4.699161    3.347049   -0.465042
     55          6           0       -5.418133    0.190450   -1.430432
     56          1           0       -4.940525   -0.746432   -1.693789
     57          6           0       -6.677546    2.575051   -0.761929
     58          1           0       -7.167876    3.494249   -0.477349
     59          6           0       -6.812042    0.269004   -1.443505
     60          1           0       -7.397277   -0.600604   -1.720263
     61          8           0       -8.804749    1.609378   -1.087118
     62          1           0       -9.209883    0.776912   -1.341325
     63          6           0       -7.438911    1.464736   -1.105669
     64          7           0       -0.419842    0.054598   -0.185304
     65          1           0       -0.905513   -0.756692   -0.533289
     66          6           0        1.028565    0.047439   -0.248351
     67          1           0        1.351609    1.068959   -0.458895
     68          6           0        1.420078   -0.898048   -1.374750
     69          6           0        1.641951   -0.407536    1.083407
     70          1           0        1.268929    0.267016    1.855110
     71          1           0        1.250454   -1.402168    1.307586
     72          8           0        0.863758   -1.977745   -1.522161
     73          6           0        3.171101   -0.455326    1.137501
     74          1           0        3.526333   -1.137511    0.356164
     75          6           0        3.792485    0.917654    0.905717
     76          1           0        3.419567    1.629076    1.648093
     77          1           0        4.880993    0.867801    0.997441
     78          1           0        3.574106    1.312568   -0.088396
     79          6           0        3.605758   -1.016022    2.489795
     80          1           0        3.260578   -0.364979    3.296305
     81          1           0        3.190167   -2.012729    2.652796
     82          1           0        4.693409   -1.090714    2.553796
     83          7           0        2.441617   -0.466190   -2.159406
     84          1           0        2.931276    0.376255   -1.907768
     85          6           0        3.220371   -1.359556   -2.991107
     86          1           0        2.927174   -2.386935   -2.759257
     87          6           0        4.689203   -1.139167   -2.644319
     88          6           0        2.972003   -1.099650   -4.476424
     89          1           0        3.168641   -0.050825   -4.710834
     90          1           0        3.685815   -1.689700   -5.060771
     91          8           0        5.092201   -0.117292   -2.120222
     92          6           0        1.542748   -1.443276   -4.872289
     93          1           0        0.831010   -0.896607   -4.253561
     94          1           0        1.324572   -2.506602   -4.761422
     95          6           0        1.264878   -1.022517   -6.347221
     96          8           0        0.531104   -1.803426   -6.981096
     97          8           0        1.762518    0.060564   -6.695776
     98          7           0        5.527111   -2.166502   -2.971030
     99          1           0        5.183192   -2.833922   -3.636635
    100          6           0        6.961775   -1.912177   -3.015227
    101          1           0        7.249458   -1.429996   -2.078516
    102          6           0        7.261637   -0.966125   -4.160617
    103          6           0        7.706201   -3.242407   -3.171760
    104          1           0        7.433101   -3.689108   -4.132137
    105          1           0        7.327895   -3.902619   -2.387798
    106          8           0        6.574227   -0.827483   -5.141708
    107          6           0        9.218948   -3.144187   -3.042964
    108          1           0        9.469293   -2.649539   -2.101480
    109          1           0        9.636860   -2.537043   -3.845857
    110          6           0        9.869609   -4.515319   -3.073340
    111          1           0        9.643633   -4.999313   -4.027809
    112          1           0        9.454867   -5.146001   -2.277724
    113          7           0       11.330870   -4.379290   -2.925432
    114          1           0       11.624944   -3.628390   -2.318474
    115          7           0       11.679019   -6.677976   -3.190015
    116          1           0       12.324596   -7.399185   -3.467231
    117          1           0       10.742559   -6.760870   -3.547056
    118          7           0       13.445243   -5.256722   -2.580270
    119          1           0       14.088346   -6.005464   -2.785158
    120          1           0       13.822429   -4.330374   -2.725398
    121          6           0       12.147318   -5.445985   -2.918738
    122          8           0        8.421432   -0.301375   -3.969848
    123          1           0        8.550743    0.250375   -4.749996
 ---------------------------------------------------------------------

 SCF Done:  E(RB3LYP) =  -2973.87323465     A.U. after    1 cycles

 Alpha  occ. eigenvalues --  -19.25897 -19.25271 -19.21512 -19.19082 -19.17955
 Alpha  occ. eigenvalues --  -19.15640 -19.15449 -19.14919 -19.13233 -19.00871
 Alpha  occ. eigenvalues --  -19.00197 -14.61773 -14.51849 -14.51277 -14.51232
 Alpha  occ. eigenvalues --  -14.49091 -14.41526 -14.40266 -14.39292 -14.38654
 Alpha  occ. eigenvalues --  -14.37146 -10.46506 -10.42772 -10.40873 -10.37016
 Alpha  occ. eigenvalues --  -10.35221 -10.35189 -10.33995 -10.32480 -10.32125
 Alpha  occ. eigenvalues --  -10.31898 -10.31748 -10.31676 -10.30571 -10.30347
 Alpha  occ. eigenvalues --  -10.30250 -10.29957 -10.29946 -10.29872 -10.29629
 Alpha  occ. eigenvalues --  -10.29291 -10.28161 -10.28100 -10.27828 -10.26312
 Alpha  occ. eigenvalues --  -10.25424 -10.25253 -10.24299 -10.23830 -10.22120
 Alpha  occ. eigenvalues --  -10.21864 -10.21808 -10.21596 -10.21470 -10.21275
 Alpha  occ. eigenvalues --  -10.21167 -10.20541 -10.20047 -10.19380 -10.18458
 Alpha  occ. eigenvalues --  -10.16447 -10.12295  -1.19435  -1.16356  -1.16179
 Alpha  occ. eigenvalues --   -1.16094  -1.10076  -1.09575  -1.08343  -1.08202
 Alpha  occ. eigenvalues --   -1.07397  -1.06984  -1.05607  -1.05490  -1.05391
 Alpha  occ. eigenvalues --   -1.04927  -0.98439  -0.98116  -0.97748  -0.96356
 Alpha  occ. eigenvalues --   -0.95525  -0.94267  -0.94063  -0.94049  -0.90904
 Alpha  occ. eigenvalues --   -0.88333  -0.88170  -0.85900  -0.85483  -0.85470
 Alpha  occ. eigenvalues --   -0.84660  -0.84238  -0.83271  -0.81374  -0.80195
 Alpha  occ. eigenvalues --   -0.79761  -0.78586  -0.77614  -0.77420  -0.76387
 Alpha  occ. eigenvalues --   -0.76006  -0.75290  -0.75196  -0.74261  -0.73867
 Alpha  occ. eigenvalues --   -0.72671  -0.72112  -0.71329  -0.70908  -0.70689
 Alpha  occ. eigenvalues --   -0.70181  -0.70083  -0.69518  -0.68949  -0.67708
 Alpha  occ. eigenvalues --   -0.66436  -0.65497  -0.65138  -0.64784  -0.64556
 Alpha  occ. eigenvalues --   -0.63940  -0.63615  -0.63201  -0.62773  -0.62194
 Alpha  occ. eigenvalues --   -0.61911  -0.61531  -0.61068  -0.60641  -0.60190
 Alpha  occ. eigenvalues --   -0.59106  -0.59071  -0.58686  -0.58281  -0.58020
 Alpha  occ. eigenvalues --   -0.57685  -0.57579  -0.57420  -0.56978  -0.56217
 Alpha  occ. eigenvalues --   -0.55910  -0.55245  -0.54668  -0.54069  -0.53359
 Alpha  occ. eigenvalues --   -0.53093  -0.52790  -0.52715  -0.52216  -0.51954
 Alpha  occ. eigenvalues --   -0.51564  -0.51430  -0.51039  -0.50566  -0.50181
 Alpha  occ. eigenvalues --   -0.50050  -0.49797  -0.49355  -0.48998  -0.48582
 Alpha  occ. eigenvalues --   -0.48387  -0.48139  -0.47678  -0.47517  -0.47332
 Alpha  occ. eigenvalues --   -0.46982  -0.46519  -0.46384  -0.46316  -0.46127
 Alpha  occ. eigenvalues --   -0.45913  -0.45722  -0.45675  -0.45452  -0.45298
 Alpha  occ. eigenvalues --   -0.44999  -0.44863  -0.44587  -0.44363  -0.43870
 Alpha  occ. eigenvalues --   -0.43797  -0.43707  -0.43483  -0.43306  -0.43133
 Alpha  occ. eigenvalues --   -0.42981  -0.42795  -0.42269  -0.41915  -0.41620
 Alpha  occ. eigenvalues --   -0.41527  -0.40862  -0.40786  -0.40668  -0.40433
 Alpha  occ. eigenvalues --   -0.40195  -0.39258  -0.39019  -0.38930  -0.38769
 Alpha  occ. eigenvalues --   -0.38425  -0.37860  -0.37184  -0.36612  -0.36597
 Alpha  occ. eigenvalues --   -0.36570  -0.36178  -0.35917  -0.35598  -0.35098
 Alpha  occ. eigenvalues --   -0.34957  -0.34934  -0.33675  -0.32893  -0.32375
 Alpha  occ. eigenvalues --   -0.32334  -0.31491  -0.30921  -0.30056  -0.29921
 Alpha  occ. eigenvalues --   -0.29280  -0.29099  -0.28748  -0.28097  -0.27993
 Alpha  occ. eigenvalues --   -0.27700  -0.26785  -0.26393  -0.24727  -0.16206
 Alpha  occ. eigenvalues --   -0.14551  -0.14030
 Alpha virt. eigenvalues --   -0.13443  -0.13188  -0.11817  -0.10850  -0.10686
 Alpha virt. eigenvalues --   -0.08036  -0.06516  -0.04969  -0.04938  -0.04264
 Alpha virt. eigenvalues --   -0.03986  -0.03214  -0.03063  -0.02822  -0.02678

 Mulliken charges:
               1
     1  N   -0.715749
     2  H    0.425864
     3  H    0.410766
     4  H    0.423700
     5  C   -0.140311
     6  H    0.209777
     7  C    0.652427
     8  C   -0.382094
     9  H    0.213350
    10  H    0.194899
    11  O   -0.531585
    12  C    0.140347
    13  C   -0.185314
    14  H    0.134582
    15  C   -0.215522
    16  H    0.143829
    17  C   -0.122522
    18  H    0.166578
    19  C   -0.122332
    20  H    0.165911
    21  C   -0.123979
    22  H    0.169197
    23  N   -0.585268
    24  H    0.344022
    25  C   -0.083938
    26  H    0.208801
    27  C    0.640213
    28  C   -0.478455
    29  H    0.228065
    30  H    0.166927
    31  H    0.146194
    32  O   -0.513387
    33  N   -0.603162
    34  H    0.360981
    35  C   -0.075082
    36  H    0.189660
    37  C    0.635952
    38  C   -0.452932
    39  H    0.173210
    40  H    0.155348
    41  H    0.145420
    42  O   -0.530125
    43  N   -0.610964
    44  H    0.345171
    45  C   -0.055901
    46  H    0.182509
    47  C    0.627619
    48  C   -0.363445
    49  H    0.165903
    50  H    0.167455
    51  O   -0.544335
    52  C    0.190882
    53  C   -0.189693
    54  H    0.135548
    55  C   -0.175850
    56  H    0.134641
    57  C   -0.178714
    58  H    0.149544
    59  C   -0.186661
    60  H    0.120115
    61  O   -0.662185
    62  H    0.407698
    63  C    0.338517
    64  N   -0.620764
    65  H    0.348111
    66  C   -0.031221
    67  H    0.172258
    68  C    0.604502
    69  C   -0.255758
    70  H    0.153606
    71  H    0.140249
    72  O   -0.540847
    73  C   -0.088632
    74  H    0.133783
    75  C   -0.437758
    76  H    0.140507
    77  H    0.141827
    78  H    0.149093
    79  C   -0.440527
    80  H    0.139042
    81  H    0.139385
    82  H    0.133970
    83  N   -0.585352
    84  H    0.353507
    85  C   -0.090628
    86  H    0.167646
    87  C    0.634134
    88  C   -0.249696
    89  H    0.173024
    90  H    0.123091
    91  O   -0.537490
    92  C   -0.342332
    93  H    0.132395
    94  H    0.114583
    95  C    0.553573
    96  O   -0.563784
    97  O   -0.577074
    98  N   -0.605963
    99  H    0.341263
   100  C   -0.031934
   101  H    0.195533
   102  C    0.592534
   103  C   -0.307281
   104  H    0.164545
   105  H    0.170522
   106  O   -0.431973
   107  C   -0.302677
   108  H    0.161084
   109  H    0.187419
   110  C   -0.159164
   111  H    0.181431
   112  H    0.183510
   113  N   -0.591649
   114  H    0.363265
   115  N   -0.734461
   116  H    0.373748
   117  H    0.387987
   118  N   -0.735589
   119  H    0.368483
   120  H    0.375619
   121  C    0.740450
   122  O   -0.575788
   123  H    0.420548
 Sum of Mulliken charges =   1.00000

 Dipole moment (field-independent basis, Debye):
    X=              4.4099    Y=            -11.3700    Z=             39.7775  Tot=             41.6050
 Quadrupole moment (field-independent basis, Debye-Ang):
   XX=            653.6817   YY=           -217.5118   ZZ=           -227.2465
   XY=           -350.9319   XZ=           -443.7224   YZ=            132.1254

 Normal termination of Gaussian 16 at Mon Aug  1 02:10:28 2022.
