 Gaussian 16, Revision C.01,
 Gaussian 16:  ES64L-G16RevC.01  3-Jul-2019

 -------------------------------------------------------------------
 # B3LYP/6-31G* guess=read geom=check nosymm integral(ultrafinegrid)
 -------------------------------------------------------------------

 ------------------------------------------------------
 Candidate Structure: Conf:474 Charge calc in gas phase
 ------------------------------------------------------
 Structure from the checkpoint file:  "conf-474.chk"
 Charge =  1 Multiplicity = 1

                          Input orientation:
 ---------------------------------------------------------------------
 Center     Atomic      Atomic             Coordinates (Angstroms)
 Number     Number       Type             X           Y           Z
 ---------------------------------------------------------------------
      1          7           0      -11.978916    2.117250    4.912026
      2          1           0      -12.229507    1.318531    4.329119
      3          1           0      -12.632911    2.877248    4.737849
      4          1           0      -12.080048    1.814034    5.879558
      5          6           0      -10.586125    2.527764    4.654598
      6          1           0      -10.467955    2.749313    3.586858
      7          6           0       -9.676555    1.345727    4.985924
      8          6           0      -10.205012    3.790361    5.440449
      9          1           0      -10.914658    4.574694    5.159652
     10          1           0       -9.218269    4.120275    5.104167
     11          8           0      -10.113428    0.311370    5.465784
     12          6           0      -10.211439    3.602870    6.934629
     13          6           0      -11.386606    3.758205    7.666621
     14          1           0      -12.298603    4.049024    7.153559
     15          6           0       -9.045811    3.254747    7.621035
     16          1           0       -8.112614    3.155647    7.072590
     17          6           0      -11.411958    3.538497    9.042412
     18          1           0      -12.342208    3.655714    9.585834
     19          6           0       -9.062997    3.034784    8.996581
     20          1           0       -8.146097    2.758615    9.502864
     21          6           0      -10.248766    3.172299    9.711135
     22          1           0      -10.265106    2.999946   10.781477
     23          7           0       -8.365140    1.516749    4.713756
     24          1           0       -7.988943    2.373739    4.337485
     25          6           0       -7.388288    0.486368    4.981864
     26          1           0       -7.532574    0.116618    6.001110
     27          6           0       -6.029941    1.173341    4.865244
     28          6           0       -7.493418   -0.699721    4.016465
     29          1           0       -6.648812   -1.377284    4.166565
     30          1           0       -7.465040   -0.344446    2.984996
     31          1           0       -8.429309   -1.228720    4.177249
     32          8           0       -5.874342    2.205298    4.224212
     33          7           0       -5.007697    0.547614    5.513280
     34          1           0       -5.167350   -0.413553    5.761889
     35          6           0       -3.629191    0.838067    5.148603
     36          1           0       -3.560142    1.919135    5.021110
     37          6           0       -3.301623    0.140596    3.822654
     38          6           0       -2.687490    0.357223    6.241904
     39          1           0       -1.649698    0.597533    5.998378
     40          1           0       -2.770386   -0.726268    6.358252
     41          1           0       -2.943062    0.831358    7.190450
     42          8           0       -3.830783   -0.912697    3.500544
     43          7           0       -2.375952    0.775431    3.058791
     44          1           0       -1.840318    1.539298    3.436969
     45          6           0       -1.907358    0.224552    1.809466
     46          1           0       -2.227933   -0.815885    1.779454
     47          6           0       -0.379660    0.352595    1.792568
     48          6           0       -2.501876    0.980159    0.605519
     49          1           0       -2.205226    2.028078    0.691819
     50          1           0       -2.056810    0.591279   -0.315634
     51          8           0        0.175945    1.325484    2.285611
     52          6           0       -4.002407    0.864153    0.533838
     53          6           0       -4.619766   -0.082678   -0.283729
     54          1           0       -4.017038   -0.727001   -0.911929
     55          6           0       -4.821933    1.686155    1.319689
     56          1           0       -4.365058    2.419247    1.975817
     57          6           0       -6.008146   -0.215497   -0.325172
     58          1           0       -6.478516   -0.952510   -0.962483
     59          6           0       -6.208783    1.566779    1.286172
     60          1           0       -6.818103    2.192459    1.924066
     61          8           0       -8.162017    0.440220    0.435223
     62          1           0       -8.549133    1.141987    0.966753
     63          6           0       -6.796996    0.615732    0.460072
     64          7           0        0.283062   -0.657111    1.169278
     65          1           0       -0.223112   -1.296388    0.573946
     66          6           0        1.692212   -0.572328    0.842638
     67          1           0        2.013618    0.465639    0.955233
     68          6           0        1.820633   -1.003387   -0.621455
     69          6           0        2.556878   -1.468566    1.730797
     70          1           0        2.205628   -2.497568    1.624303
     71          1           0        3.582959   -1.444860    1.353589
     72          8           0        0.987290   -1.715056   -1.156665
     73          6           0        2.581991   -1.103324    3.217517
     74          1           0        1.556962   -1.094379    3.588792
     75          6           0        3.351689   -2.172825    3.987833
     76          1           0        4.384993   -2.225803    3.635209
     77          1           0        3.367985   -1.951784    5.057552
     78          1           0        2.893988   -3.155458    3.854047
     79          6           0        3.196474    0.274001    3.453312
     80          1           0        4.227310    0.293875    3.086755
     81          1           0        2.634729    1.061161    2.950011
     82          1           0        3.214022    0.504188    4.521607
     83          7           0        2.938182   -0.584569   -1.259221
     84          1           0        3.701353   -0.129278   -0.783147
     85          6           0        3.243118   -1.030562   -2.600998
     86          1           0        3.025620   -2.098827   -2.676588
     87          6           0        4.741911   -0.782669   -2.799320
     88          6           0        2.376730   -0.323540   -3.651123
     89          1           0        2.577055   -0.756934   -4.635201
     90          1           0        1.338518   -0.543000   -3.397721
     91          8           0        5.405833   -0.155200   -1.992105
     92          6           0        2.600082    1.183142   -3.721580
     93          1           0        3.618700    1.401008   -4.049807
     94          1           0        2.415597    1.668104   -2.764646
     95          6           0        1.611859    1.733947   -4.787671
     96          8           0        1.855184    1.358266   -5.944960
     97          8           0        0.704611    2.476339   -4.371392
     98          7           0        5.266647   -1.281065   -3.938917
     99          1           0        4.695817   -1.753716   -4.622444
    100          6           0        6.668575   -1.090852   -4.258143
    101          1           0        6.955029   -0.071685   -3.981202
    102          6           0        6.808588   -1.277698   -5.749135
    103          6           0        7.557004   -2.069124   -3.469963
    104          1           0        7.337757   -3.088970   -3.794948
    105          1           0        7.235442   -1.989202   -2.429810
    106          8           0        6.018738   -1.857877   -6.451140
    107          6           0        9.048327   -1.781020   -3.570293
    108          1           0        9.239204   -0.753532   -3.261783
    109          1           0        9.398315   -1.871531   -4.598003
    110          6           0        9.851615   -2.721589   -2.686654
    111          1           0        9.701866   -3.749300   -3.025092
    112          1           0        9.493386   -2.675559   -1.652829
    113          7           0       11.308548   -2.497147   -2.709133
    114          1           0       11.788188   -2.852792   -3.524318
    115          7           0       11.169551   -0.572962   -1.391783
    116          1           0       11.638750    0.039567   -0.743848
    117          1           0       10.232215   -0.841434   -1.141887
    118          7           0       13.205897   -1.213671   -2.369748
    119          1           0       13.677336   -0.542130   -1.781842
    120          1           0       13.765478   -2.014731   -2.630893
    121          6           0       11.889393   -1.435010   -2.133605
    122          8           0        7.947376   -0.731538   -6.219374
    123          1           0        7.976169   -0.929645   -7.163557
 ---------------------------------------------------------------------

 SCF Done:  E(RB3LYP) =  -2973.88375227     A.U. after    3 cycles

 Alpha  occ. eigenvalues --  -19.26227 -19.24644 -19.22541 -19.20908 -19.20373
 Alpha  occ. eigenvalues --  -19.16549 -19.15870 -19.15492 -19.13968 -18.99916
 Alpha  occ. eigenvalues --  -18.99617 -14.62758 -14.51282 -14.51011 -14.50984
 Alpha  occ. eigenvalues --  -14.47489 -14.43693 -14.40552 -14.40175 -14.38996
 Alpha  occ. eigenvalues --  -14.37394 -10.46223 -10.42086 -10.40931 -10.38298
 Alpha  occ. eigenvalues --  -10.37435 -10.34659 -10.34213 -10.33622 -10.32706
 Alpha  occ. eigenvalues --  -10.32361 -10.32347 -10.31302 -10.30773 -10.30357
 Alpha  occ. eigenvalues --  -10.30035 -10.29722 -10.29597 -10.29507 -10.29197
 Alpha  occ. eigenvalues --  -10.29081 -10.28517 -10.28267 -10.27005 -10.26977
 Alpha  occ. eigenvalues --  -10.25738 -10.25341 -10.24982 -10.24255 -10.22603
 Alpha  occ. eigenvalues --  -10.22469 -10.22373 -10.22310 -10.22222 -10.21939
 Alpha  occ. eigenvalues --  -10.21778 -10.21714 -10.20613 -10.19691 -10.17968
 Alpha  occ. eigenvalues --  -10.16646 -10.12402  -1.19288  -1.17527  -1.16012
 Alpha  occ. eigenvalues --   -1.15798  -1.13038  -1.10618  -1.08969  -1.08761
 Alpha  occ. eigenvalues --   -1.08224  -1.07651  -1.06371  -1.05159  -1.04495
 Alpha  occ. eigenvalues --   -1.04368  -1.00621  -0.97687  -0.97609  -0.97458
 Alpha  occ. eigenvalues --   -0.95920  -0.94486  -0.93941  -0.93601  -0.90164
 Alpha  occ. eigenvalues --   -0.89006  -0.87889  -0.86159  -0.85236  -0.84898
 Alpha  occ. eigenvalues --   -0.84856  -0.84351  -0.83758  -0.81935  -0.80298
 Alpha  occ. eigenvalues --   -0.80176  -0.79050  -0.78351  -0.77543  -0.76531
 Alpha  occ. eigenvalues --   -0.76307  -0.75713  -0.75510  -0.75321  -0.73315
 Alpha  occ. eigenvalues --   -0.72307  -0.71478  -0.71381  -0.71360  -0.70410
 Alpha  occ. eigenvalues --   -0.70285  -0.69989  -0.69405  -0.69131  -0.68413
 Alpha  occ. eigenvalues --   -0.67422  -0.66129  -0.65912  -0.65622  -0.64353
 Alpha  occ. eigenvalues --   -0.63956  -0.63855  -0.63736  -0.63525  -0.62636
 Alpha  occ. eigenvalues --   -0.62519  -0.61347  -0.61140  -0.60715  -0.59496
 Alpha  occ. eigenvalues --   -0.59051  -0.58971  -0.58610  -0.58350  -0.57747
 Alpha  occ. eigenvalues --   -0.57627  -0.57517  -0.57255  -0.57013  -0.56371
 Alpha  occ. eigenvalues --   -0.56129  -0.55041  -0.54695  -0.54088  -0.53810
 Alpha  occ. eigenvalues --   -0.53237  -0.52770  -0.52689  -0.52608  -0.52373
 Alpha  occ. eigenvalues --   -0.52028  -0.51804  -0.51610  -0.51521  -0.51032
 Alpha  occ. eigenvalues --   -0.50850  -0.50476  -0.50241  -0.49494  -0.49257
 Alpha  occ. eigenvalues --   -0.48942  -0.48864  -0.48760  -0.48129  -0.47716
 Alpha  occ. eigenvalues --   -0.47345  -0.47124  -0.46867  -0.46633  -0.46587
 Alpha  occ. eigenvalues --   -0.46479  -0.46079  -0.45821  -0.45725  -0.45536
 Alpha  occ. eigenvalues --   -0.45458  -0.45206  -0.45107  -0.44812  -0.44535
 Alpha  occ. eigenvalues --   -0.44193  -0.43804  -0.43722  -0.43463  -0.43302
 Alpha  occ. eigenvalues --   -0.43120  -0.42889  -0.42604  -0.42231  -0.42147
 Alpha  occ. eigenvalues --   -0.41711  -0.41387  -0.41153  -0.40863  -0.40722
 Alpha  occ. eigenvalues --   -0.40245  -0.39863  -0.39667  -0.38961  -0.38866
 Alpha  occ. eigenvalues --   -0.38344  -0.38151  -0.37615  -0.37251  -0.37084
 Alpha  occ. eigenvalues --   -0.36372  -0.35957  -0.35868  -0.35761  -0.35551
 Alpha  occ. eigenvalues --   -0.35423  -0.34938  -0.34457  -0.34108  -0.34042
 Alpha  occ. eigenvalues --   -0.33438  -0.32656  -0.31057  -0.30424  -0.30356
 Alpha  occ. eigenvalues --   -0.29680  -0.29549  -0.29324  -0.29015  -0.28410
 Alpha  occ. eigenvalues --   -0.27998  -0.27442  -0.26588  -0.25503  -0.15604
 Alpha  occ. eigenvalues --   -0.14190  -0.13502
 Alpha virt. eigenvalues --   -0.12702  -0.12581  -0.11698  -0.11088  -0.09955
 Alpha virt. eigenvalues --   -0.08057  -0.06796  -0.06753  -0.05756  -0.05748
 Alpha virt. eigenvalues --   -0.04056  -0.03884  -0.03186  -0.03007  -0.02942

 Mulliken charges:
               1
     1  N   -0.704617
     2  H    0.433278
     3  H    0.419013
     4  H    0.428169
     5  C   -0.148666
     6  H    0.221679
     7  C    0.651556
     8  C   -0.393319
     9  H    0.181805
    10  H    0.211936
    11  O   -0.517775
    12  C    0.172699
    13  C   -0.222558
    14  H    0.109239
    15  C   -0.176760
    16  H    0.151803
    17  C   -0.118446
    18  H    0.161012
    19  C   -0.120726
    20  H    0.164218
    21  C   -0.120654
    22  H    0.166798
    23  N   -0.631855
    24  H    0.359860
    25  C   -0.038816
    26  H    0.182286
    27  C    0.622199
    28  C   -0.468930
    29  H    0.190170
    30  H    0.188744
    31  H    0.180039
    32  O   -0.528437
    33  N   -0.581213
    34  H    0.340295
    35  C   -0.080850
    36  H    0.182397
    37  C    0.637443
    38  C   -0.462131
    39  H    0.177246
    40  H    0.166040
    41  H    0.167191
    42  O   -0.534849
    43  N   -0.603114
    44  H    0.343744
    45  C   -0.060836
    46  H    0.186560
    47  C    0.620109
    48  C   -0.365071
    49  H    0.171044
    50  H    0.181780
    51  O   -0.537214
    52  C    0.183887
    53  C   -0.184814
    54  H    0.144341
    55  C   -0.178609
    56  H    0.134470
    57  C   -0.155823
    58  H    0.143991
    59  C   -0.195260
    60  H    0.091527
    61  O   -0.653615
    62  H    0.384289
    63  C    0.352411
    64  N   -0.601782
    65  H    0.351718
    66  C   -0.077277
    67  H    0.188129
    68  C    0.625369
    69  C   -0.247008
    70  H    0.140377
    71  H    0.126703
    72  O   -0.537649
    73  C   -0.067261
    74  H    0.132404
    75  C   -0.440145
    76  H    0.131056
    77  H    0.139917
    78  H    0.140713
    79  C   -0.460756
    80  H    0.123439
    81  H    0.185412
    82  H    0.134941
    83  N   -0.608323
    84  H    0.346872
    85  C   -0.052334
    86  H    0.156072
    87  C    0.633954
    88  C   -0.274920
    89  H    0.146498
    90  H    0.178898
    91  O   -0.561257
    92  C   -0.327648
    93  H    0.101386
    94  H    0.111496
    95  C    0.539793
    96  O   -0.588146
    97  O   -0.578274
    98  N   -0.630466
    99  H    0.368600
   100  C   -0.012453
   101  H    0.199610
   102  C    0.582729
   103  C   -0.282315
   104  H    0.157863
   105  H    0.177399
   106  O   -0.440656
   107  C   -0.281227
   108  H    0.161188
   109  H    0.171611
   110  C   -0.197592
   111  H    0.196953
   112  H    0.176516
   113  N   -0.572614
   114  H    0.363168
   115  N   -0.728136
   116  H    0.373903
   117  H    0.388851
   118  N   -0.736184
   119  H    0.369588
   120  H    0.373603
   121  C    0.735761
   122  O   -0.571163
   123  H    0.422782
 Sum of Mulliken charges =   1.00000

 Dipole moment (field-independent basis, Debye):
    X=             -1.7543    Y=             -2.6995    Z=             31.7928  Tot=             31.9554
 Quadrupole moment (field-independent basis, Debye-Ang):
   XX=            744.1349   YY=           -338.7170   ZZ=           -269.8217
   XY=           -218.0739   XZ=           -346.8017   YZ=            118.4392

 Normal termination of Gaussian 16 at Mon Aug  1 02:11:19 2022.
