 Gaussian 16, Revision C.01,
 Gaussian 16:  ES64L-G16RevC.01  3-Jul-2019

 -------------------------------------------------------------------
 # B3LYP/6-31G* guess=read geom=check nosymm integral(ultrafinegrid)
 -------------------------------------------------------------------

 ------------------------------------------------------
 Candidate Structure: Conf:684 Charge calc in gas phase
 ------------------------------------------------------
 Structure from the checkpoint file:  "conf-684.chk"
 Charge =  1 Multiplicity = 1

                          Input orientation:
 ---------------------------------------------------------------------
 Center     Atomic      Atomic             Coordinates (Angstroms)
 Number     Number       Type             X           Y           Z
 ---------------------------------------------------------------------
      1          7           0       -9.179134    6.702121    5.288911
      2          1           0       -9.321233    7.077321    4.341514
      3          1           0       -9.436099    7.425065    5.973866
      4          1           0       -9.780563    5.844705    5.353456
      5          6           0       -7.778122    6.129972    5.474155
      6          1           0       -7.041084    6.835284    5.084266
      7          6           0       -7.954072    4.856604    4.621901
      8          6           0       -7.489284    5.850065    6.973186
      9          1           0       -8.262231    5.176559    7.370555
     10          1           0       -7.560173    6.799091    7.529436
     11          8           0       -9.139896    4.455971    4.635372
     12          6           0       -6.109287    5.237649    7.152927
     13          6           0       -5.965907    3.853874    7.348780
     14          1           0       -6.847665    3.216385    7.399420
     15          6           0       -4.958659    6.044354    7.082279
     16          1           0       -5.045290    7.120791    6.933431
     17          6           0       -4.696240    3.286514    7.470389
     18          1           0       -4.595697    2.214996    7.618801
     19          6           0       -3.690232    5.474498    7.203401
     20          1           0       -2.806244    6.105478    7.148478
     21          6           0       -3.556911    4.095397    7.396916
     22          1           0       -2.568076    3.653882    7.489820
     23          7           0       -6.909748    4.361722    4.014577
     24          1           0       -5.957636    4.728845    4.159814
     25          6           0       -6.853294    3.084190    3.284200
     26          1           0       -7.422349    2.324497    3.834317
     27          6           0       -5.339501    2.752073    3.300603
     28          6           0       -7.421656    3.218713    1.857059
     29          1           0       -7.339425    2.278156    1.308051
     30          1           0       -6.874736    3.983704    1.295708
     31          1           0       -8.481402    3.498075    1.902074
     32          8           0       -4.552262    3.681857    3.551843
     33          7           0       -4.999635    1.494755    3.020437
     34          1           0       -5.688904    0.762241    2.832679
     35          6           0       -3.617696    1.034789    2.848452
     36          1           0       -3.085826    1.768620    2.232515
     37          6           0       -3.736907   -0.305837    2.087328
     38          6           0       -2.880819    0.862219    4.195123
     39          1           0       -1.868967    0.471340    4.034032
     40          1           0       -3.426076    0.161815    4.839377
     41          1           0       -2.800373    1.830316    4.699887
     42          8           0       -4.777580   -0.973822    2.176230
     43          7           0       -2.654480   -0.632039    1.366866
     44          1           0       -1.798606   -0.077947    1.427049
     45          6           0       -2.542271   -1.788958    0.495819
     46          1           0       -3.206867   -2.581936    0.861825
     47          6           0       -1.060734   -2.202012    0.527553
     48          6           0       -2.934112   -1.440683   -0.996000
     49          1           0       -2.145300   -0.819506   -1.425473
     50          1           0       -2.946351   -2.382988   -1.564863
     51          8           0       -0.241653   -1.432969    1.045194
     52          6           0       -4.257765   -0.721415   -1.133153
     53          6           0       -4.290058    0.685313   -1.155685
     54          1           0       -3.358211    1.248330   -1.122842
     55          6           0       -5.467338   -1.420604   -1.223956
     56          1           0       -5.466624   -2.510009   -1.222775
     57          6           0       -5.499117    1.371907   -1.230691
     58          1           0       -5.523332    2.458393   -1.261006
     59          6           0       -6.684193   -0.747730   -1.304348
     60          1           0       -7.619340   -1.307241   -1.370603
     61          8           0       -7.876132    1.373626   -1.347204
     62          1           0       -8.622175    0.746779   -1.383714
     63          6           0       -6.703498    0.653588   -1.295645
     64          7           0       -0.678005   -3.357749   -0.091850
     65          1           0       -1.357458   -3.860951   -0.657930
     66          6           0        0.752225   -3.527232   -0.460346
     67          1           0        1.302616   -3.101656    0.380731
     68          6           0        1.016752   -2.659113   -1.737684
     69          6           0        1.120252   -5.006223   -0.644084
     70          1           0        0.899401   -5.527707    0.301115
     71          1           0        0.469776   -5.441469   -1.417568
     72          8           0        1.059728   -3.145936   -2.869083
     73          6           0        2.596412   -5.271604   -1.043720
     74          1           0        2.688105   -5.009585   -2.105604
     75          6           0        3.612652   -4.421759   -0.248206
     76          1           0        3.480437   -4.537018    0.838106
     77          1           0        4.640020   -4.734859   -0.481804
     78          1           0        3.537130   -3.350649   -0.478671
     79          6           0        2.914577   -6.770704   -0.885322
     80          1           0        2.878625   -7.078710    0.170655
     81          1           0        2.197185   -7.395402   -1.435718
     82          1           0        3.918698   -7.005833   -1.264337
     83          7           0        1.043237   -1.335853   -1.448376
     84          1           0        1.006523   -1.084170   -0.463749
     85          6           0        1.227785   -0.232088   -2.375283
     86          1           0        0.904294   -0.565935   -3.368579
     87          6           0        2.705021    0.180274   -2.418464
     88          6           0        0.321788    0.949956   -1.910483
     89          1           0        0.678256    1.275089   -0.916737
     90          1           0        0.421151    1.804210   -2.592842
     91          8           0        3.429428    0.238741   -1.436950
     92          6           0       -1.165328    0.567919   -1.882283
     93          1           0       -1.328476   -0.260515   -1.188321
     94          1           0       -1.419426    0.258393   -2.911284
     95          6           0       -2.118777    1.756688   -1.454652
     96          8           0       -2.873577    1.524330   -0.467532
     97          8           0       -1.977402    2.798516   -2.148879
     98          7           0        3.171839    0.516669   -3.686221
     99          1           0        2.516391    0.545645   -4.461667
    100          6           0        4.481818    1.107460   -3.890668
    101          1           0        5.061099    0.844606   -2.999128
    102          6           0        4.337767    2.642407   -3.976683
    103          6           0        5.124367    0.558737   -5.177843
    104          1           0        4.502231    0.854033   -6.034922
    105          1           0        5.115015   -0.539012   -5.117565
    106          8           0        4.130530    3.242770   -5.018029
    107          6           0        6.557010    1.076754   -5.399878
    108          1           0        7.178041    0.851045   -4.515444
    109          1           0        6.539943    2.167395   -5.528339
    110          6           0        7.192371    0.440812   -6.642362
    111          1           0        6.588732    0.692874   -7.524891
    112          1           0        7.233106   -0.654184   -6.546192
    113          7           0        8.554398    0.971606   -6.856937
    114          1           0        9.029769    1.249742   -6.000679
    115          7           0        8.894322   -0.144403   -8.883442
    116          1           0        9.432743   -0.242765   -9.736732
    117          1           0        7.901129   -0.322316   -8.975594
    118          7           0       10.668777    0.957197   -7.860671
    119          1           0       11.210297    0.900103   -8.716690
    120          1           0       10.966921    1.701875   -7.241245
    121          6           0        9.358399    0.610657   -7.870669
    122          8           0        4.422669    3.231907   -2.776024
    123          1           0        4.228053    4.187900   -2.901437
 ---------------------------------------------------------------------

 SCF Done:  E(RB3LYP) =  -2973.54012528     A.U. after    3 cycles

 Alpha  occ. eigenvalues --  -19.26216 -19.22885 -19.20397 -19.17943 -19.17739
 Alpha  occ. eigenvalues --  -19.16825 -19.16686 -19.14778 -19.14444 -19.14312
 Alpha  occ. eigenvalues --  -19.11092 -14.57365 -14.50004 -14.49746 -14.49714
 Alpha  occ. eigenvalues --  -14.45961 -14.42060 -14.41268 -14.41065 -14.38891
 Alpha  occ. eigenvalues --  -14.38724 -10.44377 -10.40027 -10.38431 -10.37968
 Alpha  occ. eigenvalues --  -10.34843 -10.34437 -10.33788 -10.33586 -10.31970
 Alpha  occ. eigenvalues --  -10.31802 -10.31712 -10.30995 -10.30510 -10.29666
 Alpha  occ. eigenvalues --  -10.29162 -10.28690 -10.27549 -10.27472 -10.27338
 Alpha  occ. eigenvalues --  -10.27227 -10.27016 -10.26958 -10.26751 -10.26547
 Alpha  occ. eigenvalues --  -10.26461 -10.26334 -10.23882 -10.23743 -10.22420
 Alpha  occ. eigenvalues --  -10.22260 -10.22128 -10.22089 -10.20589 -10.20447
 Alpha  occ. eigenvalues --  -10.19703 -10.19160 -10.18064 -10.17679 -10.17346
 Alpha  occ. eigenvalues --  -10.16208 -10.11770  -1.17205  -1.16907  -1.16294
 Alpha  occ. eigenvalues --   -1.14097  -1.10504  -1.09388  -1.08891  -1.08586
 Alpha  occ. eigenvalues --   -1.07744  -1.06094  -1.05909  -1.05447  -1.03878
 Alpha  occ. eigenvalues --   -1.02743  -1.02699  -0.98417  -0.98238  -0.97568
 Alpha  occ. eigenvalues --   -0.96845  -0.95783  -0.95434  -0.94059  -0.89993
 Alpha  occ. eigenvalues --   -0.89585  -0.85172  -0.84477  -0.83862  -0.83616
 Alpha  occ. eigenvalues --   -0.82511  -0.82138  -0.82090  -0.81058  -0.79132
 Alpha  occ. eigenvalues --   -0.78264  -0.77623  -0.76873  -0.75847  -0.74509
 Alpha  occ. eigenvalues --   -0.73486  -0.73235  -0.73113  -0.72530  -0.71514
 Alpha  occ. eigenvalues --   -0.71222  -0.70614  -0.70472  -0.70130  -0.68474
 Alpha  occ. eigenvalues --   -0.68357  -0.68222  -0.67914  -0.66527  -0.66101
 Alpha  occ. eigenvalues --   -0.66052  -0.64830  -0.64495  -0.64042  -0.63156
 Alpha  occ. eigenvalues --   -0.62871  -0.62682  -0.62539  -0.62146  -0.61698
 Alpha  occ. eigenvalues --   -0.60980  -0.60776  -0.59910  -0.59237  -0.59032
 Alpha  occ. eigenvalues --   -0.58729  -0.58400  -0.58100  -0.57688  -0.57557
 Alpha  occ. eigenvalues --   -0.56313  -0.55730  -0.55256  -0.54702  -0.54490
 Alpha  occ. eigenvalues --   -0.54294  -0.53980  -0.53809  -0.53542  -0.53306
 Alpha  occ. eigenvalues --   -0.52717  -0.52574  -0.51803  -0.51408  -0.51228
 Alpha  occ. eigenvalues --   -0.51005  -0.50295  -0.49961  -0.49718  -0.49583
 Alpha  occ. eigenvalues --   -0.49365  -0.49189  -0.49068  -0.48937  -0.48628
 Alpha  occ. eigenvalues --   -0.48371  -0.48223  -0.48033  -0.47774  -0.47467
 Alpha  occ. eigenvalues --   -0.46850  -0.46776  -0.46270  -0.46104  -0.45610
 Alpha  occ. eigenvalues --   -0.45419  -0.45212  -0.45119  -0.44639  -0.44428
 Alpha  occ. eigenvalues --   -0.44215  -0.43843  -0.43708  -0.43538  -0.43473
 Alpha  occ. eigenvalues --   -0.43302  -0.43129  -0.42916  -0.42749  -0.42697
 Alpha  occ. eigenvalues --   -0.42237  -0.41867  -0.41744  -0.41594  -0.41485
 Alpha  occ. eigenvalues --   -0.41383  -0.41196  -0.41142  -0.40713  -0.40208
 Alpha  occ. eigenvalues --   -0.40034  -0.39676  -0.39598  -0.39214  -0.39133
 Alpha  occ. eigenvalues --   -0.38580  -0.38103  -0.37916  -0.37877  -0.37514
 Alpha  occ. eigenvalues --   -0.36598  -0.36048  -0.36021  -0.35692  -0.35309
 Alpha  occ. eigenvalues --   -0.34708  -0.33818  -0.32625  -0.32401  -0.32324
 Alpha  occ. eigenvalues --   -0.32113  -0.32032  -0.31720  -0.31489  -0.31081
 Alpha  occ. eigenvalues --   -0.30728  -0.30393  -0.30101  -0.29784  -0.28504
 Alpha  occ. eigenvalues --   -0.28174  -0.27706  -0.27088  -0.24298  -0.23238
 Alpha  occ. eigenvalues --   -0.20687  -0.11824
 Alpha virt. eigenvalues --   -0.11104  -0.09681  -0.08809  -0.08164  -0.07743
 Alpha virt. eigenvalues --   -0.07200  -0.06354  -0.03925  -0.03564  -0.03506
 Alpha virt. eigenvalues --   -0.03256  -0.02673  -0.02388  -0.01820  -0.00798

 Mulliken charges:
               1
     1  N   -0.742236
     2  H    0.415094
     3  H    0.399336
     4  H    0.435969
     5  C   -0.122896
     6  H    0.209857
     7  C    0.683929
     8  C   -0.367451
     9  H    0.183939
    10  H    0.173113
    11  O   -0.583750
    12  C    0.145890
    13  C   -0.178697
    14  H    0.143154
    15  C   -0.185256
    16  H    0.128820
    17  C   -0.121532
    18  H    0.156540
    19  C   -0.116659
    20  H    0.154809
    21  C   -0.115461
    22  H    0.156908
    23  N   -0.606056
    24  H    0.387919
    25  C   -0.065984
    26  H    0.182630
    27  C    0.647567
    28  C   -0.454519
    29  H    0.211718
    30  H    0.175505
    31  H    0.165617
    32  O   -0.561221
    33  N   -0.620952
    34  H    0.366739
    35  C   -0.038812
    36  H    0.202082
    37  C    0.633330
    38  C   -0.456545
    39  H    0.163372
    40  H    0.155486
    41  H    0.171820
    42  O   -0.552961
    43  N   -0.581732
    44  H    0.354464
    45  C   -0.063466
    46  H    0.183601
    47  C    0.639749
    48  C   -0.382820
    49  H    0.129077
    50  H    0.116816
    51  O   -0.561780
    52  C    0.200913
    53  C   -0.263122
    54  H    0.338336
    55  C   -0.183289
    56  H    0.088990
    57  C   -0.205471
    58  H    0.101672
    59  C   -0.205599
    60  H    0.090917
    61  O   -0.666604
    62  H    0.391645
    63  C    0.341670
    64  N   -0.607498
    65  H    0.341856
    66  C   -0.078328
    67  H    0.186995
    68  C    0.617589
    69  C   -0.266713
    70  H    0.140487
    71  H    0.144267
    72  O   -0.538264
    73  C   -0.072913
    74  H    0.156272
    75  C   -0.461559
    76  H    0.141725
    77  H    0.139074
    78  H    0.154340
    79  C   -0.447771
    80  H    0.140013
    81  H    0.143396
    82  H    0.139469
    83  N   -0.600840
    84  H    0.377905
    85  C   -0.078628
    86  H    0.161590
    87  C    0.640829
    88  C   -0.285843
    89  H    0.154238
    90  H    0.160984
    91  O   -0.506533
    92  C   -0.327320
    93  H    0.166623
    94  H    0.150513
    95  C    0.502030
    96  O   -0.451587
    97  O   -0.507800
    98  N   -0.625936
    99  H    0.338188
   100  C   -0.015234
   101  H    0.199395
   102  C    0.577770
   103  C   -0.279770
   104  H    0.164566
   105  H    0.164829
   106  O   -0.473419
   107  C   -0.316601
   108  H    0.155097
   109  H    0.186585
   110  C   -0.140372
   111  H    0.175878
   112  H    0.180445
   113  N   -0.608552
   114  H    0.353971
   115  N   -0.752248
   116  H    0.368078
   117  H    0.380194
   118  N   -0.752905
   119  H    0.363930
   120  H    0.366769
   121  C    0.756431
   122  O   -0.539136
   123  H    0.419325
 Sum of Mulliken charges =   1.00000

 Dipole moment (field-independent basis, Debye):
    X=             10.1426    Y=             20.1764    Z=             -4.6254  Tot=             23.0511
 Quadrupole moment (field-independent basis, Debye-Ang):
   XX=            155.9669   YY=           -207.7832   ZZ=            -36.4893
   XY=           -144.2073   XZ=           -420.1765   YZ=            118.9951

 Normal termination of Gaussian 16 at Mon Aug  1 02:11:35 2022.
