 Gaussian 16, Revision C.01,
 Gaussian 16:  ES64L-G16RevC.01  3-Jul-2019

 -------------------------------------------------------------------
 # B3LYP/6-31G* guess=read geom=check nosymm integral(ultrafinegrid)
 -------------------------------------------------------------------

 ------------------------------------------------------
 Candidate Structure: Conf:961 Charge calc in gas phase
 ------------------------------------------------------
 Structure from the checkpoint file:  "conf-961.chk"
 Charge =  1 Multiplicity = 1

                          Input orientation:
 ---------------------------------------------------------------------
 Center     Atomic      Atomic             Coordinates (Angstroms)
 Number     Number       Type             X           Y           Z
 ---------------------------------------------------------------------
      1          7           0       -9.947715    1.344366    9.669637
      2          1           0      -10.856284    1.595808    9.270829
      3          1           0       -9.967544    1.536665   10.682570
      4          1           0       -9.754380    0.329180    9.443831
      5          6           0       -8.793323    2.052459    8.999207
      6          1           0       -9.181380    2.947189    8.508296
      7          6           0       -8.275436    0.997125    7.986404
      8          6           0       -7.720779    2.424953   10.053530
      9          1           0       -6.952045    3.008348    9.535676
     10          1           0       -7.237881    1.503616   10.400701
     11          8           0       -8.644408   -0.176608    8.150780
     12          6           0       -8.301774    3.192772   11.222706
     13          6           0       -8.611636    4.556257   11.106609
     14          1           0       -8.377271    5.089072   10.187348
     15          6           0       -8.591654    2.531266   12.427374
     16          1           0       -8.309167    1.486773   12.553335
     17          6           0       -9.195996    5.241436   12.170697
     18          1           0       -9.417848    6.300017   12.072760
     19          6           0       -9.183003    3.218582   13.492790
     20          1           0       -9.387750    2.697571   14.423351
     21          6           0       -9.487502    4.572959   13.363837
     22          1           0       -9.939040    5.110899   14.191861
     23          7           0       -7.448430    1.439390    7.050783
     24          1           0       -7.133347    2.413791    6.991573
     25          6           0       -6.747357    0.600436    6.077130
     26          1           0       -6.304538   -0.252946    6.603236
     27          6           0       -5.626565    1.523163    5.533778
     28          6           0       -7.681020    0.093648    4.966865
     29          1           0       -7.129863   -0.527047    4.254177
     30          1           0       -8.121781    0.933767    4.420815
     31          1           0       -8.480920   -0.513154    5.399439
     32          8           0       -5.629972    2.725801    5.827369
     33          7           0       -4.717762    0.929361    4.755950
     34          1           0       -4.779138   -0.053442    4.487982
     35          6           0       -3.645591    1.629477    4.057437
     36          1           0       -4.057238    2.535360    3.597763
     37          6           0       -3.185885    0.647884    2.955609
     38          6           0       -2.492976    2.014636    5.000805
     39          1           0       -1.696813    2.533336    4.457123
     40          1           0       -2.064806    1.120855    5.466080
     41          1           0       -2.866349    2.680762    5.782990
     42          8           0       -3.560952   -0.525905    2.977296
     43          7           0       -2.371915    1.175560    2.020418
     44          1           0       -1.947888    2.088459    2.165261
     45          6           0       -1.671978    0.378451    1.024960
     46          1           0       -1.730128   -0.669284    1.332985
     47          6           0       -0.212086    0.876185    1.018817
     48          6           0       -2.278234    0.541804   -0.398941
     49          1           0       -2.124062    1.581524   -0.711888
     50          1           0       -1.689863   -0.080186   -1.085847
     51          8           0        0.058132    1.998882    1.453396
     52          6           0       -3.746540    0.192169   -0.496177
     53          6           0       -4.183623   -1.140561   -0.443808
     54          1           0       -3.455855   -1.940957   -0.331989
     55          6           0       -4.713172    1.190534   -0.648738
     56          1           0       -4.404392    2.231950   -0.702383
     57          6           0       -5.531006   -1.468299   -0.539889
     58          1           0       -5.863540   -2.500996   -0.508137
     59          6           0       -6.070583    0.880021   -0.749267
     60          1           0       -6.804421    1.674078   -0.878617
     61          8           0       -7.796262   -0.828782   -0.787254
     62          1           0       -8.333409   -0.045136   -0.981861
     63          6           0       -6.482553   -0.453611   -0.695703
     64          7           0        0.684925    0.019779    0.488748
     65          1           0        0.357223   -0.805899   -0.009938
     66          6           0        2.032942    0.400088    0.079283
     67          1           0        2.079377    1.492302    0.040291
     68          6           0        2.216264   -0.194247   -1.336832
     69          6           0        3.120653   -0.148973    1.030761
     70          1           0        3.033429   -1.244046    1.035465
     71          1           0        4.103810    0.081716    0.597135
     72          8           0        1.483892   -1.109373   -1.725911
     73          6           0        3.074811    0.375812    2.478823
     74          1           0        2.066455    0.186917    2.873293
     75          6           0        4.074292   -0.408869    3.343063
     76          1           0        5.102909   -0.258840    2.990132
     77          1           0        4.032720   -0.079911    4.387959
     78          1           0        3.868243   -1.485818    3.320875
     79          6           0        3.343381    1.885818    2.564956
     80          1           0        4.315672    2.138614    2.121082
     81          1           0        2.564680    2.463784    2.058771
     82          1           0        3.365414    2.212816    3.611402
     83          7           0        3.218153    0.332567   -2.061454
     84          1           0        3.819229    1.065191   -1.693022
     85          6           0        3.624417   -0.152567   -3.376628
     86          1           0        3.556683   -1.243563   -3.387593
     87          6           0        5.101738    0.271398   -3.522675
     88          6           0        2.681234    0.416117   -4.470599
     89          1           0        1.683294    0.029266   -4.235924
     90          1           0        2.642746    1.504583   -4.336878
     91          8           0        5.575130    1.193641   -2.853505
     92          6           0        3.011162    0.135650   -5.951840
     93          1           0        3.959264    0.623690   -6.211677
     94          1           0        2.228507    0.598379   -6.559790
     95          6           0        3.117119   -1.330641   -6.393453
     96          8           0        4.095492   -2.014288   -5.853986
     97          8           0        2.358057   -1.786444   -7.256498
     98          7           0        5.803879   -0.478930   -4.397121
     99          1           0        5.252916   -1.133657   -4.982006
    100          6           0        7.187110   -0.214527   -4.710342
    101          1           0        7.711139    0.056027   -3.788144
    102          6           0        7.340025    0.969710   -5.670755
    103          6           0        7.839744   -1.485733   -5.305342
    104          1           0        7.680055   -2.283543   -4.569200
    105          1           0        8.920816   -1.328168   -5.370619
    106          8           0        6.479277    1.424040   -6.389029
    107          6           0        7.274280   -1.910782   -6.685722
    108          1           0        7.952846   -1.584758   -7.484233
    109          1           0        6.311514   -1.428640   -6.875646
    110          6           0        7.073245   -3.431673   -6.774422
    111          1           0        6.334873   -3.760606   -6.038324
    112          1           0        8.005840   -3.961865   -6.551069
    113          7           0        6.631158   -3.898159   -8.094825
    114          1           0        7.323017   -3.857141   -8.831498
    115          7           0        4.332513   -3.768015   -7.700374
    116          1           0        3.393564   -3.713613   -8.087725
    117          1           0        4.352601   -3.116579   -6.817154
    118          7           0        5.149598   -4.299409   -9.824066
    119          1           0        4.200489   -4.485518  -10.117219
    120          1           0        5.847363   -4.864478  -10.288989
    121          6           0        5.345514   -3.976388   -8.509074
    122          8           0        8.611250    1.437618   -5.656880
    123          1           0        8.640780    2.175475   -6.295263
 ---------------------------------------------------------------------

 SCF Done:  E(RB3LYP) =  -2974.04545349     A.U. after    2 cycles

 Alpha  occ. eigenvalues --  -19.25805 -19.23545 -19.22134 -19.20900 -19.18267
 Alpha  occ. eigenvalues --  -19.17937 -19.16804 -19.15183 -19.14485 -19.13169
 Alpha  occ. eigenvalues --  -19.11204 -14.59009 -14.48368 -14.44746 -14.44585
 Alpha  occ. eigenvalues --  -14.44017 -14.41778 -14.40425 -14.40300 -14.39025
 Alpha  occ. eigenvalues --  -14.37374 -10.42661 -10.40143 -10.39834 -10.37867
 Alpha  occ. eigenvalues --  -10.35661 -10.35295 -10.33806 -10.33730 -10.33689
 Alpha  occ. eigenvalues --  -10.32238 -10.31957 -10.31243 -10.30702 -10.30699
 Alpha  occ. eigenvalues --  -10.30338 -10.30043 -10.29927 -10.29672 -10.29671
 Alpha  occ. eigenvalues --  -10.29307 -10.29097 -10.28666 -10.27644 -10.27366
 Alpha  occ. eigenvalues --  -10.27165 -10.25684 -10.24860 -10.24603 -10.24275
 Alpha  occ. eigenvalues --  -10.24215 -10.23400 -10.23292 -10.23218 -10.23117
 Alpha  occ. eigenvalues --  -10.22577 -10.22352 -10.22208 -10.21243 -10.20537
 Alpha  occ. eigenvalues --  -10.19898 -10.19657  -1.18222  -1.14358  -1.13201
 Alpha  occ. eigenvalues --   -1.12610  -1.10179  -1.10099  -1.08525  -1.08459
 Alpha  occ. eigenvalues --   -1.07046  -1.06099  -1.05299  -1.05125  -1.05016
 Alpha  occ. eigenvalues --   -1.00726  -0.98517  -0.98490  -0.97345  -0.96991
 Alpha  occ. eigenvalues --   -0.96520  -0.95644  -0.95461  -0.94877  -0.92770
 Alpha  occ. eigenvalues --   -0.89522  -0.88292  -0.85912  -0.85567  -0.85320
 Alpha  occ. eigenvalues --   -0.84897  -0.83962  -0.82273  -0.81640  -0.79788
 Alpha  occ. eigenvalues --   -0.79246  -0.78967  -0.78803  -0.76877  -0.76150
 Alpha  occ. eigenvalues --   -0.74310  -0.73471  -0.73247  -0.73147  -0.72726
 Alpha  occ. eigenvalues --   -0.71376  -0.71127  -0.70930  -0.69875  -0.69737
 Alpha  occ. eigenvalues --   -0.69559  -0.68621  -0.67289  -0.66699  -0.65989
 Alpha  occ. eigenvalues --   -0.65831  -0.65593  -0.65229  -0.64584  -0.63716
 Alpha  occ. eigenvalues --   -0.63216  -0.62621  -0.62433  -0.62417  -0.62242
 Alpha  occ. eigenvalues --   -0.61037  -0.60873  -0.59921  -0.59474  -0.58661
 Alpha  occ. eigenvalues --   -0.58526  -0.57869  -0.57733  -0.57057  -0.56865
 Alpha  occ. eigenvalues --   -0.56157  -0.55854  -0.55348  -0.54533  -0.54349
 Alpha  occ. eigenvalues --   -0.54092  -0.53825  -0.53386  -0.53103  -0.53008
 Alpha  occ. eigenvalues --   -0.52789  -0.52302  -0.52040  -0.51956  -0.51855
 Alpha  occ. eigenvalues --   -0.51318  -0.51303  -0.51190  -0.50856  -0.50762
 Alpha  occ. eigenvalues --   -0.50515  -0.50361  -0.50300  -0.49639  -0.49325
 Alpha  occ. eigenvalues --   -0.48832  -0.48681  -0.48558  -0.47951  -0.47884
 Alpha  occ. eigenvalues --   -0.47540  -0.47421  -0.47184  -0.47067  -0.46904
 Alpha  occ. eigenvalues --   -0.46379  -0.46222  -0.46144  -0.45954  -0.45761
 Alpha  occ. eigenvalues --   -0.45458  -0.45250  -0.45176  -0.44926  -0.44789
 Alpha  occ. eigenvalues --   -0.44557  -0.44485  -0.44011  -0.43918  -0.43749
 Alpha  occ. eigenvalues --   -0.43348  -0.43108  -0.42579  -0.42255  -0.41838
 Alpha  occ. eigenvalues --   -0.41742  -0.41576  -0.41245  -0.41086  -0.40849
 Alpha  occ. eigenvalues --   -0.40483  -0.40440  -0.40382  -0.39628  -0.39549
 Alpha  occ. eigenvalues --   -0.39344  -0.38941  -0.38311  -0.38077  -0.37836
 Alpha  occ. eigenvalues --   -0.37052  -0.36867  -0.36408  -0.36127  -0.35932
 Alpha  occ. eigenvalues --   -0.35881  -0.35662  -0.35602  -0.35558  -0.35140
 Alpha  occ. eigenvalues --   -0.34981  -0.34042  -0.32902  -0.32505  -0.31835
 Alpha  occ. eigenvalues --   -0.31490  -0.30741  -0.30355  -0.29499  -0.29174
 Alpha  occ. eigenvalues --   -0.28815  -0.28363  -0.28011  -0.27917  -0.27297
 Alpha  occ. eigenvalues --   -0.25894  -0.25033
 Alpha virt. eigenvalues --   -0.12668  -0.12078  -0.10455  -0.09416  -0.06443
 Alpha virt. eigenvalues --   -0.04571  -0.04449  -0.04214  -0.03936  -0.03383
 Alpha virt. eigenvalues --   -0.03010  -0.02164  -0.01819  -0.01686  -0.01464

 Mulliken charges:
               1
     1  N   -0.751463
     2  H    0.414539
     3  H    0.404016
     4  H    0.427042
     5  C   -0.111153
     6  H    0.212609
     7  C    0.656647
     8  C   -0.385431
     9  H    0.211102
    10  H    0.194067
    11  O   -0.544050
    12  C    0.138693
    13  C   -0.181525
    14  H    0.148039
    15  C   -0.229770
    16  H    0.151103
    17  C   -0.122398
    18  H    0.167810
    19  C   -0.120241
    20  H    0.167160
    21  C   -0.123765
    22  H    0.169012
    23  N   -0.612546
    24  H    0.373117
    25  C   -0.053484
    26  H    0.195113
    27  C    0.630160
    28  C   -0.457089
    29  H    0.188363
    30  H    0.168133
    31  H    0.185292
    32  O   -0.554131
    33  N   -0.621146
    34  H    0.368304
    35  C   -0.044131
    36  H    0.184511
    37  C    0.623233
    38  C   -0.456432
    39  H    0.173665
    40  H    0.164808
    41  H    0.180449
    42  O   -0.537854
    43  N   -0.603557
    44  H    0.355021
    45  C   -0.070526
    46  H    0.186512
    47  C    0.621299
    48  C   -0.373222
    49  H    0.157903
    50  H    0.175201
    51  O   -0.545295
    52  C    0.188916
    53  C   -0.168645
    54  H    0.132208
    55  C   -0.196832
    56  H    0.126632
    57  C   -0.157838
    58  H    0.143443
    59  C   -0.196740
    60  H    0.117014
    61  O   -0.643428
    62  H    0.406538
    63  C    0.346299
    64  N   -0.596271
    65  H    0.355901
    66  C   -0.081828
    67  H    0.180423
    68  C    0.624744
    69  C   -0.252342
    70  H    0.141591
    71  H    0.144251
    72  O   -0.552138
    73  C   -0.064659
    74  H    0.129639
    75  C   -0.444185
    76  H    0.143723
    77  H    0.141084
    78  H    0.139717
    79  C   -0.463232
    80  H    0.136683
    81  H    0.174137
    82  H    0.137974
    83  N   -0.617306
    84  H    0.354400
    85  C   -0.053671
    86  H    0.191103
    87  C    0.599830
    88  C   -0.265302
    89  H    0.171943
    90  H    0.143501
    91  O   -0.556115
    92  C   -0.373575
    93  H    0.181515
    94  H    0.155370
    95  C    0.605292
    96  O   -0.673086
    97  O   -0.556805
    98  N   -0.647435
    99  H    0.428416
   100  C   -0.047360
   101  H    0.191396
   102  C    0.604352
   103  C   -0.298201
   104  H    0.163847
   105  H    0.169052
   106  O   -0.458084
   107  C   -0.284944
   108  H    0.140792
   109  H    0.191630
   110  C   -0.169138
   111  H    0.201535
   112  H    0.168077
   113  N   -0.602425
   114  H    0.342761
   115  N   -0.765921
   116  H    0.359009
   117  H    0.448382
   118  N   -0.757738
   119  H    0.364669
   120  H    0.353032
   121  C    0.765936
   122  O   -0.569182
   123  H    0.413957
 Sum of Mulliken charges =   1.00000

 Dipole moment (field-independent basis, Debye):
    X=            -26.3674    Y=              2.0561    Z=             26.0332  Tot=             37.1106
 Quadrupole moment (field-independent basis, Debye-Ang):
   XX=             99.1852   YY=           -300.5971   ZZ=            170.3999
   XY=           -151.8702   XZ=           -474.1874   YZ=            165.7509

 Normal termination of Gaussian 16 at Mon Aug  1 02:10:18 2022.
