 Gaussian 16, Revision C.01,
 Gaussian 16:  ES64L-G16RevC.01  3-Jul-2019

 -------------------------------------------------------------------
 # B3LYP/6-31G* guess=read geom=check nosymm integral(ultrafinegrid)
 -------------------------------------------------------------------

 ------------------------------------------------------
 Candidate Structure: Conf:472 Charge calc in gas phase
 ------------------------------------------------------
 Structure from the checkpoint file:  "conf-472.chk"
 Charge =  1 Multiplicity = 1

                          Input orientation:
 ---------------------------------------------------------------------
 Center     Atomic      Atomic             Coordinates (Angstroms)
 Number     Number       Type             X           Y           Z
 ---------------------------------------------------------------------
      1          7           0      -10.026287    4.805118    4.424041
      2          1           0      -10.605664    4.665792    3.597137
      3          1           0      -10.136194    5.756663    4.771084
      4          1           0      -10.369965    4.170118    5.146686
      5          6           0       -8.613570    4.484384    4.153230
      6          1           0       -8.275835    5.037826    3.267849
      7          6           0       -8.512804    2.991565    3.834539
      8          6           0       -7.729917    4.880276    5.346438
      9          1           0       -7.659477    5.971529    5.364049
     10          1           0       -6.721447    4.491632    5.190278
     11          8           0       -9.452033    2.230237    4.002771
     12          6           0       -8.296343    4.402172    6.656027
     13          6           0       -8.999493    5.276797    7.481917
     14          1           0       -9.090605    6.318401    7.193009
     15          6           0       -8.185807    3.068646    7.040034
     16          1           0       -7.637659    2.382160    6.404784
     17          6           0       -9.590860    4.829874    8.659705
     18          1           0      -10.137329    5.525903    9.285434
     19          6           0       -8.773722    2.612936    8.216606
     20          1           0       -8.674478    1.569725    8.490656
     21          6           0       -9.480658    3.493462    9.029868
     22          1           0       -9.939539    3.140055    9.946250
     23          7           0       -7.314882    2.569739    3.370022
     24          1           0       -6.548912    3.200320    3.188487
     25          6           0       -7.094300    1.194449    2.971757
     26          1           0       -7.491156    0.539564    3.751543
     27          6           0       -5.580012    1.033630    2.869527
     28          6           0       -7.788103    0.850988    1.652976
     29          1           0       -7.571402   -0.177982    1.360256
     30          1           0       -7.445726    1.518456    0.858383
     31          1           0       -8.864406    0.968843    1.763657
     32          8           0       -4.847843    2.001339    2.683931
     33          7           0       -5.109995   -0.227494    2.950673
     34          1           0       -5.747686   -0.985108    3.115113
     35          6           0       -3.681446   -0.518632    2.965606
     36          1           0       -3.207205    0.359130    3.422291
     37          6           0       -3.159393   -0.633911    1.529497
     38          6           0       -3.397353   -1.763744    3.780574
     39          1           0       -2.328380   -1.977569    3.768418
     40          1           0       -3.920746   -2.624870    3.364284
     41          1           0       -3.711518   -1.610033    4.814677
     42          8           0       -2.699422   -1.679222    1.067749
     43          7           0       -3.255883    0.489835    0.783283
     44          1           0       -3.550764    1.350151    1.228012
     45          6           0       -2.622407    0.545541   -0.527195
     46          1           0       -2.801875   -0.426531   -0.993223
     47          6           0       -1.122868    0.749961   -0.327085
     48          6           0       -3.210033    1.651896   -1.401118
     49          1           0       -4.297622    1.607985   -1.316550
     50          1           0       -2.881310    2.616272   -1.011865
     51          8           0       -0.600262    1.862705   -0.297704
     52          6           0       -2.806478    1.473577   -2.846745
     53          6           0       -1.530355    1.821809   -3.296996
     54          1           0       -0.821860    2.240157   -2.595463
     55          6           0       -3.686926    0.914768   -3.774557
     56          1           0       -4.682796    0.635437   -3.457723
     57          6           0       -1.148513    1.620619   -4.620428
     58          1           0       -0.159557    1.889525   -4.964492
     59          6           0       -3.316776    0.709665   -5.104145
     60          1           0       -4.025785    0.274188   -5.799927
     61          8           0       -1.608981    0.894680   -6.813041
     62          1           0       -2.316131    0.505153   -7.333741
     63          6           0       -2.039550    1.065808   -5.527486
     64          7           0       -0.405887   -0.376370   -0.142823
     65          1           0       -0.889249   -1.255377   -0.011959
     66          6           0        1.020188   -0.273625    0.063847
     67          1           0        1.198942    0.613452    0.678408
     68          6           0        1.666674   -0.039718   -1.305521
     69          6           0        1.615424   -1.481933    0.752542
     70          1           0        1.570153   -2.345474    0.088267
     71          1           0        2.676728   -1.278165    0.931963
     72          8           0        1.762544   -0.918176   -2.160861
     73          6           0        0.962991   -1.845807    2.091597
     74          1           0        0.018889   -2.358495    1.881664
     75          6           0        1.879919   -2.815615    2.835141
     76          1           0        2.784306   -2.293493    3.178743
     77          1           0        1.377832   -3.244116    3.705739
     78          1           0        2.201249   -3.631411    2.186257
     79          6           0        0.664322   -0.627193    2.960516
     80          1           0        1.569114   -0.028235    3.094162
     81          1           0       -0.109398    0.013813    2.530092
     82          1           0        0.322211   -0.947278    3.949336
     83          7           0        2.096600    1.224232   -1.485281
     84          1           0        1.884072    1.897002   -0.768171
     85          6           0        2.665900    1.727999   -2.722058
     86          1           0        2.027077    1.399045   -3.549294
     87          6           0        4.058162    1.109143   -2.913878
     88          6           0        2.745926    3.252372   -2.683227
     89          1           0        3.398060    3.546603   -1.862676
     90          1           0        3.214966    3.601965   -3.604434
     91          8           0        5.081342    1.600765   -2.461721
     92          6           0        1.402758    3.964245   -2.550603
     93          1           0        0.945448    3.794330   -1.570371
     94          1           0        0.704881    3.635445   -3.332721
     95          6           0        1.701504    5.463764   -2.720921
     96          8           0        1.982578    6.080053   -1.676496
     97          8           0        1.664490    5.895360   -3.887783
     98          7           0        4.043140   -0.032939   -3.647864
     99          1           0        3.159089   -0.472523   -3.866086
    100          6           0        5.199332   -0.879622   -3.794789
    101          1           0        6.078692   -0.299850   -3.501869
    102          6           0        5.324507   -1.285910   -5.250779
    103          6           0        5.112946   -2.158341   -2.949508
    104          1           0        5.998543   -2.758390   -3.161867
    105          1           0        4.242793   -2.735287   -3.278420
    106          8           0        4.441303   -1.245334   -6.064033
    107          6           0        5.031494   -1.918094   -1.451729
    108          1           0        4.127615   -1.366682   -1.195245
    109          1           0        5.879554   -1.301024   -1.143462
    110          6           0        5.018129   -3.229642   -0.692471
    111          1           0        5.907725   -3.821597   -0.930997
    112          1           0        4.140255   -3.803381   -1.007933
    113          7           0        4.949990   -2.964126    0.759797
    114          1           0        5.499496   -2.161342    1.028972
    115          7           0        4.487591   -5.188872    1.305788
    116          1           0        4.759539   -5.973572    1.876487
    117          1           0        4.434347   -5.391779    0.320692
    118          7           0        5.323586   -3.730252    2.930114
    119          1           0        5.064908   -4.390588    3.645010
    120          1           0        5.434361   -2.779067    3.243492
    121          6           0        4.939592   -3.964217    1.657151
    122          8           0        6.562082   -1.749680   -5.525346
    123          1           0        6.546246   -2.009876   -6.454589
 ---------------------------------------------------------------------

 SCF Done:  E(RB3LYP) =  -2973.86811078     A.U. after    4 cycles

 Alpha  occ. eigenvalues --  -19.25929 -19.24177 -19.23707 -19.19980 -19.19644
 Alpha  occ. eigenvalues --  -19.18424 -19.16514 -19.15684 -19.13601 -19.00729
 Alpha  occ. eigenvalues --  -19.00713 -14.62910 -14.51623 -14.51566 -14.50987
 Alpha  occ. eigenvalues --  -14.49109 -14.47623 -14.43041 -14.41162 -14.39372
 Alpha  occ. eigenvalues --  -14.38374 -10.46747 -10.43286 -10.41485 -10.40473
 Alpha  occ. eigenvalues --  -10.36496 -10.36236 -10.35489 -10.34477 -10.34206
 Alpha  occ. eigenvalues --  -10.33422 -10.32883 -10.32398 -10.31865 -10.30830
 Alpha  occ. eigenvalues --  -10.30592 -10.30340 -10.30031 -10.30005 -10.29794
 Alpha  occ. eigenvalues --  -10.28904 -10.28530 -10.28227 -10.28225 -10.27266
 Alpha  occ. eigenvalues --  -10.27212 -10.27072 -10.26304 -10.26067 -10.25926
 Alpha  occ. eigenvalues --  -10.25349 -10.24467 -10.24354 -10.23488 -10.21958
 Alpha  occ. eigenvalues --  -10.21757 -10.21503 -10.20535 -10.20242 -10.18778
 Alpha  occ. eigenvalues --  -10.16994 -10.13444  -1.19942  -1.17019  -1.16085
 Alpha  occ. eigenvalues --   -1.16034  -1.15562  -1.11663  -1.09045  -1.08293
 Alpha  occ. eigenvalues --   -1.07587  -1.06553  -1.06009  -1.05749  -1.05437
 Alpha  occ. eigenvalues --   -1.04880  -1.04244  -0.99684  -0.98368  -0.98152
 Alpha  occ. eigenvalues --   -0.96202  -0.95954  -0.94617  -0.94468  -0.90057
 Alpha  occ. eigenvalues --   -0.89422  -0.88902  -0.88317  -0.87483  -0.85997
 Alpha  occ. eigenvalues --   -0.85881  -0.85545  -0.83803  -0.83377  -0.81776
 Alpha  occ. eigenvalues --   -0.80892  -0.79183  -0.78236  -0.78016  -0.77351
 Alpha  occ. eigenvalues --   -0.77045  -0.76542  -0.76320  -0.75989  -0.75831
 Alpha  occ. eigenvalues --   -0.74354  -0.73627  -0.72637  -0.72441  -0.72157
 Alpha  occ. eigenvalues --   -0.70806  -0.70710  -0.70221  -0.70190  -0.69046
 Alpha  occ. eigenvalues --   -0.68209  -0.68201  -0.66384  -0.65551  -0.64882
 Alpha  occ. eigenvalues --   -0.64510  -0.64328  -0.64153  -0.63651  -0.63396
 Alpha  occ. eigenvalues --   -0.62435  -0.62380  -0.61660  -0.61460  -0.61185
 Alpha  occ. eigenvalues --   -0.60701  -0.60081  -0.59785  -0.59441  -0.58857
 Alpha  occ. eigenvalues --   -0.58667  -0.57960  -0.57714  -0.57318  -0.57196
 Alpha  occ. eigenvalues --   -0.56596  -0.56300  -0.55973  -0.55840  -0.55563
 Alpha  occ. eigenvalues --   -0.55090  -0.54433  -0.53872  -0.53798  -0.53607
 Alpha  occ. eigenvalues --   -0.53146  -0.52971  -0.52638  -0.52463  -0.51800
 Alpha  occ. eigenvalues --   -0.51716  -0.51594  -0.51055  -0.50938  -0.50425
 Alpha  occ. eigenvalues --   -0.50200  -0.49806  -0.49691  -0.49305  -0.48802
 Alpha  occ. eigenvalues --   -0.48642  -0.48321  -0.48229  -0.47757  -0.47695
 Alpha  occ. eigenvalues --   -0.47402  -0.47326  -0.47238  -0.46602  -0.46202
 Alpha  occ. eigenvalues --   -0.46163  -0.45759  -0.45605  -0.45516  -0.45426
 Alpha  occ. eigenvalues --   -0.45053  -0.44969  -0.44640  -0.44364  -0.44144
 Alpha  occ. eigenvalues --   -0.43726  -0.43506  -0.43335  -0.43161  -0.42831
 Alpha  occ. eigenvalues --   -0.42731  -0.42551  -0.41823  -0.41683  -0.40975
 Alpha  occ. eigenvalues --   -0.40732  -0.40573  -0.40391  -0.40039  -0.39769
 Alpha  occ. eigenvalues --   -0.39730  -0.39526  -0.39218  -0.39136  -0.38180
 Alpha  occ. eigenvalues --   -0.37927  -0.37781  -0.37542  -0.36668  -0.36419
 Alpha  occ. eigenvalues --   -0.36385  -0.35977  -0.35326  -0.34826  -0.34318
 Alpha  occ. eigenvalues --   -0.33375  -0.33204  -0.32742  -0.32254  -0.32073
 Alpha  occ. eigenvalues --   -0.30778  -0.30087  -0.29634  -0.29196  -0.28602
 Alpha  occ. eigenvalues --   -0.27856  -0.27400  -0.26184  -0.24399  -0.16364
 Alpha  occ. eigenvalues --   -0.15199  -0.14093
 Alpha virt. eigenvalues --   -0.13339  -0.13154  -0.12301  -0.11994  -0.10658
 Alpha virt. eigenvalues --   -0.09457  -0.08361  -0.07015  -0.06602  -0.05840
 Alpha virt. eigenvalues --   -0.04321  -0.03714  -0.03528  -0.03096  -0.03031

 Mulliken charges:
               1
     1  N   -0.698720
     2  H    0.422862
     3  H    0.413192
     4  H    0.431050
     5  C   -0.142757
     6  H    0.225158
     7  C    0.646136
     8  C   -0.389125
     9  H    0.187792
    10  H    0.214851
    11  O   -0.523948
    12  C    0.126764
    13  C   -0.219247
    14  H    0.132688
    15  C   -0.173470
    16  H    0.143584
    17  C   -0.123404
    18  H    0.163916
    19  C   -0.124342
    20  H    0.160944
    21  C   -0.124173
    22  H    0.166849
    23  N   -0.623330
    24  H    0.364135
    25  C   -0.037342
    26  H    0.182560
    27  C    0.629780
    28  C   -0.453792
    29  H    0.171470
    30  H    0.176056
    31  H    0.191512
    32  O   -0.545079
    33  N   -0.594774
    34  H    0.343246
    35  C   -0.072369
    36  H    0.195066
    37  C    0.633576
    38  C   -0.468395
    39  H    0.187217
    40  H    0.171484
    41  H    0.154715
    42  O   -0.544073
    43  N   -0.621073
    44  H    0.372751
    45  C   -0.042624
    46  H    0.180387
    47  C    0.635588
    48  C   -0.377303
    49  H    0.127409
    50  H    0.186306
    51  O   -0.527660
    52  C    0.147527
    53  C   -0.205029
    54  H    0.197130
    55  C   -0.194077
    56  H    0.104463
    57  C   -0.166683
    58  H    0.165610
    59  C   -0.191202
    60  H    0.113501
    61  O   -0.635091
    62  H    0.406095
    63  C    0.353851
    64  N   -0.605129
    65  H    0.365478
    66  C   -0.046562
    67  H    0.166184
    68  C    0.634757
    69  C   -0.300846
    70  H    0.152890
    71  H    0.126272
    72  O   -0.575789
    73  C   -0.079321
    74  H    0.149944
    75  C   -0.454599
    76  H    0.108239
    77  H    0.148269
    78  H    0.138414
    79  C   -0.458268
    80  H    0.146448
    81  H    0.166251
    82  H    0.136376
    83  N   -0.582412
    84  H    0.361351
    85  C   -0.051216
    86  H    0.164837
    87  C    0.613698
    88  C   -0.303125
    89  H    0.164898
    90  H    0.174142
    91  O   -0.530725
    92  C   -0.352573
    93  H    0.121962
    94  H    0.122037
    95  C    0.540367
    96  O   -0.578583
    97  O   -0.568582
    98  N   -0.574953
    99  H    0.357740
   100  C   -0.061740
   101  H    0.204175
   102  C    0.585383
   103  C   -0.281760
   104  H    0.158129
   105  H    0.161755
   106  O   -0.443879
   107  C   -0.316844
   108  H    0.209805
   109  H    0.165277
   110  C   -0.170439
   111  H    0.175648
   112  H    0.186016
   113  N   -0.575381
   114  H    0.362218
   115  N   -0.734988
   116  H    0.372888
   117  H    0.386306
   118  N   -0.745218
   119  H    0.376209
   120  H    0.380171
   121  C    0.754242
   122  O   -0.570267
   123  H    0.416281
 Sum of Mulliken charges =   1.00000

 Dipole moment (field-independent basis, Debye):
    X=            -31.4461    Y=            -18.3762    Z=             37.4135  Tot=             52.2141
 Quadrupole moment (field-independent basis, Debye-Ang):
   XX=            119.6654   YY=           -322.4126   ZZ=           -239.6112
   XY=           -311.6728   XZ=           -144.8510   YZ=            128.1123

 Normal termination of Gaussian 16 at Mon Aug  1 02:12:37 2022.
