 Gaussian 16, Revision C.01,
 Gaussian 16:  ES64L-G16RevC.01  3-Jul-2019

 -------------------------------------------------------------------
 # B3LYP/6-31G* guess=read geom=check nosymm integral(ultrafinegrid)
 -------------------------------------------------------------------

 ------------------------------------------------------
 Candidate Structure: Conf:890 Charge calc in gas phase
 ------------------------------------------------------
 Structure from the checkpoint file:  "conf-890.chk"
 Charge =  1 Multiplicity = 1

                          Input orientation:
 ---------------------------------------------------------------------
 Center     Atomic      Atomic             Coordinates (Angstroms)
 Number     Number       Type             X           Y           Z
 ---------------------------------------------------------------------
      1          7           0       -8.149557    4.059194    5.122250
      2          1           0       -7.745111    4.506078    4.268057
      3          1           0       -8.253844    4.761819    5.867416
      4          1           0       -9.063247    3.614391    4.901655
      5          6           0       -7.261810    2.928425    5.567880
      6          1           0       -6.244120    3.180793    5.263067
      7          6           0       -7.824441    1.698175    4.818273
      8          6           0       -7.354071    2.747331    7.101588
      9          1           0       -6.650908    1.952642    7.373524
     10          1           0       -8.358575    2.382623    7.346223
     11          8           0       -9.043825    1.660562    4.623815
     12          6           0       -7.050490    4.026755    7.854042
     13          6           0       -5.727411    4.459917    8.030262
     14          1           0       -4.904764    3.844196    7.672292
     15          6           0       -8.094937    4.826556    8.345005
     16          1           0       -9.124917    4.483347    8.259108
     17          6           0       -5.456150    5.661505    8.682892
     18          1           0       -4.426686    5.977050    8.825400
     19          6           0       -7.822771    6.034635    8.995330
     20          1           0       -8.640945    6.635112    9.381965
     21          6           0       -6.503554    6.453695    9.162831
     22          1           0       -6.289170    7.386844    9.675020
     23          7           0       -6.915887    0.781980    4.481733
     24          1           0       -5.918333    0.970612    4.602611
     25          6           0       -7.130775   -0.483424    3.778083
     26          1           0       -7.562253   -1.212793    4.477329
     27          6           0       -5.695204   -0.938863    3.410179
     28          6           0       -8.043133   -0.357338    2.547825
     29          1           0       -8.213913   -1.338485    2.093466
     30          1           0       -7.591501    0.300647    1.800519
     31          1           0       -9.011895    0.047519    2.843129
     32          8           0       -4.720648   -0.269532    3.782402
     33          7           0       -5.569949   -2.053137    2.673503
     34          1           0       -6.397520   -2.532804    2.344180
     35          6           0       -4.265502   -2.596831    2.258114
     36          1           0       -3.565369   -2.343208    3.062115
     37          6           0       -3.734085   -1.925862    0.961933
     38          6           0       -4.359009   -4.110779    2.097340
     39          1           0       -3.389018   -4.511181    1.798263
     40          1           0       -5.071735   -4.381808    1.311014
     41          1           0       -4.664111   -4.575686    3.039810
     42          8           0       -3.347694   -2.601921    0.016705
     43          7           0       -3.711724   -0.560590    0.972415
     44          1           0       -3.863466   -0.085710    1.857453
     45          6           0       -3.104269    0.191319   -0.125304
     46          1           0       -3.050352   -0.519283   -0.955411
     47          6           0       -1.645411    0.588416    0.218143
     48          6           0       -3.968198    1.382267   -0.602463
     49          1           0       -3.332534    1.990152   -1.255576
     50          1           0       -4.761914    0.965489   -1.231534
     51          8           0       -1.301875    1.762528    0.372990
     52          6           0       -4.622512    2.287240    0.429806
     53          6           0       -6.021732    2.354489    0.503489
     54          1           0       -6.620344    1.724417   -0.150020
     55          6           0       -3.881264    3.143494    1.260921
     56          1           0       -2.797967    3.107799    1.210904
     57          6           0       -6.675007    3.249672    1.354470
     58          1           0       -7.758665    3.322132    1.365473
     59          6           0       -4.517653    4.034545    2.125742
     60          1           0       -3.926059    4.696148    2.756189
     61          8           0       -6.582822    4.988474    3.000486
     62          1           0       -6.011403    5.757875    3.156441
     63          6           0       -5.910131    4.090353    2.155703
     64          7           0       -0.807177   -0.466136    0.336926
     65          1           0       -1.093836   -1.387479    0.007129
     66          6           0        0.632698   -0.328936    0.526958
     67          1           0        0.904469    0.699168    0.273125
     68          6           0        1.295109   -1.323639   -0.449209
     69          6           0        1.075898   -0.662442    1.971290
     70          1           0        0.792319   -1.705168    2.168776
     71          1           0        2.174003   -0.627821    2.005881
     72          8           0        0.694908   -2.341597   -0.798242
     73          6           0        0.509614    0.242978    3.081653
     74          1           0       -0.586726    0.236630    2.994166
     75          6           0        0.874278   -0.336817    4.457537
     76          1           0        1.962426   -0.357473    4.599789
     77          1           0        0.447721    0.268657    5.266206
     78          1           0        0.504942   -1.362994    4.574030
     79          6           0        0.989255    1.697035    2.956791
     80          1           0        2.085726    1.751801    2.979199
     81          1           0        0.634696    2.160052    2.031337
     82          1           0        0.614364    2.299751    3.793304
     83          7           0        2.546156   -1.006885   -0.834280
     84          1           0        3.013739   -0.169421   -0.498466
     85          6           0        3.389962   -1.864269   -1.660529
     86          1           0        3.248345   -2.904328   -1.358863
     87          6           0        4.836438   -1.432944   -1.342459
     88          6           0        2.981001   -1.729386   -3.154935
     89          1           0        1.948768   -2.092310   -3.208746
     90          1           0        2.953803   -0.657672   -3.389863
     91          8           0        5.085632   -0.340179   -0.826647
     92          6           0        3.831193   -2.425323   -4.237235
     93          1           0        4.824180   -1.956907   -4.275314
     94          1           0        3.363967   -2.244571   -5.209803
     95          6           0        4.066909   -3.937331   -4.119512
     96          8           0        4.454529   -4.355207   -2.940876
     97          8           0        3.968656   -4.667247   -5.110549
     98          7           0        5.782700   -2.352009   -1.642612
     99          1           0        5.457995   -3.172929   -2.177255
    100          6           0        7.189138   -2.073278   -1.459067
    101          1           0        7.349692   -1.702011   -0.440493
    102          6           0        7.741262   -0.958663   -2.357886
    103          6           0        8.053839   -3.336741   -1.673408
    104          1           0        9.095532   -3.012197   -1.590578
    105          1           0        7.921766   -3.696096   -2.702740
    106          8           0        8.759094   -0.352709   -2.111188
    107          6           0        7.794250   -4.484968   -0.671404
    108          1           0        7.374342   -4.083983    0.259036
    109          1           0        8.753934   -4.940749   -0.390387
    110          6           0        6.854436   -5.600859   -1.153764
    111          1           0        5.904334   -5.191014   -1.489926
    112          1           0        6.641781   -6.286778   -0.323370
    113          7           0        7.454447   -6.370900   -2.256988
    114          1           0        8.329836   -6.827097   -2.031889
    115          7           0        5.563954   -6.564355   -3.620749
    116          1           0        5.216649   -6.720227   -4.562330
    117          1           0        5.039685   -5.700553   -3.196289
    118          7           0        7.536599   -7.692659   -4.153380
    119          1           0        7.140706   -7.919496   -5.055298
    120          1           0        8.544982   -7.620580   -4.149556
    121          6           0        6.819836   -6.845195   -3.352365
    122          8           0        7.022297   -0.765433   -3.486139
    123          1           0        7.471545   -0.048103   -3.972321
 ---------------------------------------------------------------------

 SCF Done:  E(RB3LYP) =  -2974.04646850     A.U. after    1 cycles

 Alpha  occ. eigenvalues --  -19.30351 -19.24761 -19.23754 -19.23243 -19.18933
 Alpha  occ. eigenvalues --  -19.17612 -19.17380 -19.15303 -19.15181 -19.13713
 Alpha  occ. eigenvalues --  -19.11698 -14.56764 -14.48235 -14.47178 -14.45314
 Alpha  occ. eigenvalues --  -14.45135 -14.42972 -14.40950 -14.40698 -14.39290
 Alpha  occ. eigenvalues --  -14.38331 -10.41998 -10.40437 -10.40128 -10.38688
 Alpha  occ. eigenvalues --  -10.36066 -10.35767 -10.35267 -10.34598 -10.34348
 Alpha  occ. eigenvalues --  -10.32697 -10.32387 -10.32184 -10.31954 -10.31338
 Alpha  occ. eigenvalues --  -10.30249 -10.30133 -10.29861 -10.29843 -10.29551
 Alpha  occ. eigenvalues --  -10.29476 -10.29309 -10.29226 -10.28408 -10.28178
 Alpha  occ. eigenvalues --  -10.28177 -10.28153 -10.27828 -10.27742 -10.27566
 Alpha  occ. eigenvalues --  -10.26800 -10.26236 -10.26085 -10.25650 -10.25613
 Alpha  occ. eigenvalues --  -10.25001 -10.23520 -10.23197 -10.21966 -10.21695
 Alpha  occ. eigenvalues --  -10.21217 -10.20508  -1.17235  -1.16897  -1.15145
 Alpha  occ. eigenvalues --   -1.14474  -1.11477  -1.10865  -1.08982  -1.08947
 Alpha  occ. eigenvalues --   -1.07393  -1.06635  -1.05745  -1.05330  -1.04984
 Alpha  occ. eigenvalues --   -1.03245  -0.99410  -0.98962  -0.97170  -0.97063
 Alpha  occ. eigenvalues --   -0.96719  -0.96184  -0.95855  -0.95446  -0.94159
 Alpha  occ. eigenvalues --   -0.91927  -0.89038  -0.86513  -0.85837  -0.85504
 Alpha  occ. eigenvalues --   -0.85440  -0.85089  -0.84139  -0.83579  -0.82257
 Alpha  occ. eigenvalues --   -0.81348  -0.80247  -0.78821  -0.78801  -0.76765
 Alpha  occ. eigenvalues --   -0.74925  -0.74427  -0.73589  -0.72495  -0.72421
 Alpha  occ. eigenvalues --   -0.72038  -0.71425  -0.71071  -0.71023  -0.70382
 Alpha  occ. eigenvalues --   -0.70187  -0.69386  -0.69025  -0.68229  -0.67563
 Alpha  occ. eigenvalues --   -0.67372  -0.66408  -0.66114  -0.65581  -0.64652
 Alpha  occ. eigenvalues --   -0.64591  -0.63910  -0.63257  -0.62707  -0.62225
 Alpha  occ. eigenvalues --   -0.62212  -0.61604  -0.61305  -0.60628  -0.60521
 Alpha  occ. eigenvalues --   -0.59652  -0.58869  -0.58277  -0.57961  -0.57357
 Alpha  occ. eigenvalues --   -0.56628  -0.56579  -0.56323  -0.56070  -0.55830
 Alpha  occ. eigenvalues --   -0.55463  -0.54987  -0.54461  -0.54218  -0.54106
 Alpha  occ. eigenvalues --   -0.53479  -0.53381  -0.53008  -0.52802  -0.52603
 Alpha  occ. eigenvalues --   -0.52517  -0.52385  -0.51690  -0.51591  -0.51456
 Alpha  occ. eigenvalues --   -0.51186  -0.51010  -0.50753  -0.50699  -0.50472
 Alpha  occ. eigenvalues --   -0.50209  -0.49716  -0.49702  -0.49433  -0.49095
 Alpha  occ. eigenvalues --   -0.48958  -0.48828  -0.48695  -0.48304  -0.47796
 Alpha  occ. eigenvalues --   -0.47780  -0.47637  -0.47403  -0.47032  -0.46896
 Alpha  occ. eigenvalues --   -0.46542  -0.46411  -0.46147  -0.45778  -0.45728
 Alpha  occ. eigenvalues --   -0.45327  -0.45117  -0.44861  -0.44713  -0.44674
 Alpha  occ. eigenvalues --   -0.44580  -0.44109  -0.43952  -0.43718  -0.43357
 Alpha  occ. eigenvalues --   -0.43172  -0.42877  -0.42525  -0.42281  -0.41978
 Alpha  occ. eigenvalues --   -0.41851  -0.41555  -0.41367  -0.41217  -0.40702
 Alpha  occ. eigenvalues --   -0.40188  -0.39908  -0.39718  -0.38987  -0.38520
 Alpha  occ. eigenvalues --   -0.38445  -0.37927  -0.37597  -0.37036  -0.36947
 Alpha  occ. eigenvalues --   -0.36874  -0.36686  -0.36466  -0.35890  -0.35519
 Alpha  occ. eigenvalues --   -0.35411  -0.35335  -0.34220  -0.33968  -0.33572
 Alpha  occ. eigenvalues --   -0.32519  -0.32093  -0.31773  -0.30991  -0.30195
 Alpha  occ. eigenvalues --   -0.29744  -0.28940  -0.28779  -0.28464  -0.28320
 Alpha  occ. eigenvalues --   -0.27856  -0.25572
 Alpha virt. eigenvalues --   -0.12201  -0.11353  -0.10286  -0.09266  -0.08801
 Alpha virt. eigenvalues --   -0.08436  -0.06556  -0.05861  -0.05105  -0.03741
 Alpha virt. eigenvalues --   -0.03132  -0.03048  -0.02570  -0.02184  -0.01843

 Mulliken charges:
               1
     1  N   -0.777154
     2  H    0.448316
     3  H    0.393947
     4  H    0.412294
     5  C   -0.108862
     6  H    0.201382
     7  C    0.654880
     8  C   -0.374331
     9  H    0.199483
    10  H    0.193438
    11  O   -0.537419
    12  C    0.137712
    13  C   -0.182217
    14  H    0.144513
    15  C   -0.224988
    16  H    0.148611
    17  C   -0.124738
    18  H    0.163606
    19  C   -0.121182
    20  H    0.164376
    21  C   -0.125051
    22  H    0.165778
    23  N   -0.631584
    24  H    0.376683
    25  C   -0.027548
    26  H    0.198221
    27  C    0.630165
    28  C   -0.481088
    29  H    0.157619
    30  H    0.176628
    31  H    0.211905
    32  O   -0.556457
    33  N   -0.596093
    34  H    0.348285
    35  C   -0.079012
    36  H    0.202441
    37  C    0.621611
    38  C   -0.463181
    39  H    0.202684
    40  H    0.166351
    41  H    0.156840
    42  O   -0.502327
    43  N   -0.622011
    44  H    0.365736
    45  C   -0.074810
    46  H    0.206393
    47  C    0.617675
    48  C   -0.352867
    49  H    0.189722
    50  H    0.152865
    51  O   -0.533295
    52  C    0.146056
    53  C   -0.206863
    54  H    0.146347
    55  C   -0.194986
    56  H    0.210740
    57  C   -0.161679
    58  H    0.144181
    59  C   -0.183683
    60  H    0.137870
    61  O   -0.710010
    62  H    0.431480
    63  C    0.324728
    64  N   -0.604784
    65  H    0.369492
    66  C   -0.072606
    67  H    0.177574
    68  C    0.620688
    69  C   -0.251127
    70  H    0.140983
    71  H    0.144522
    72  O   -0.542191
    73  C   -0.064821
    74  H    0.119602
    75  C   -0.441749
    76  H    0.147006
    77  H    0.134730
    78  H    0.136588
    79  C   -0.463256
    80  H    0.141038
    81  H    0.176658
    82  H    0.128897
    83  N   -0.620284
    84  H    0.351864
    85  C   -0.049835
    86  H    0.195700
    87  C    0.598565
    88  C   -0.260626
    89  H    0.175761
    90  H    0.138526
    91  O   -0.553964
    92  C   -0.377635
    93  H    0.170962
    94  H    0.158920
    95  C    0.604583
    96  O   -0.666945
    97  O   -0.554196
    98  N   -0.657002
    99  H    0.407282
   100  C   -0.014067
   101  H    0.187782
   102  C    0.594719
   103  C   -0.308777
   104  H    0.177490
   105  H    0.155363
   106  O   -0.467456
   107  C   -0.276242
   108  H    0.169885
   109  H    0.140521
   110  C   -0.172937
   111  H    0.229167
   112  H    0.169215
   113  N   -0.601918
   114  H    0.339645
   115  N   -0.756828
   116  H    0.356059
   117  H    0.445175
   118  N   -0.753804
   119  H    0.363590
   120  H    0.353703
   121  C    0.756158
   122  O   -0.558410
   123  H    0.414924
 Sum of Mulliken charges =   1.00000

 Dipole moment (field-independent basis, Debye):
    X=            -19.5752    Y=              3.1597    Z=             20.0571  Tot=             28.2039
 Quadrupole moment (field-independent basis, Debye-Ang):
   XX=            -27.5974   YY=           -190.2323   ZZ=           -212.5426
   XY=           -209.4922   XZ=           -202.0238   YZ=            113.8004

 Normal termination of Gaussian 16 at Mon Aug  1 02:10:04 2022.
