 Gaussian 16, Revision C.01,
 Gaussian 16:  ES64L-G16RevC.01  3-Jul-2019

 -------------------------------------------------------------------
 # B3LYP/6-31G* guess=read geom=check nosymm integral(ultrafinegrid)
 -------------------------------------------------------------------

 ------------------------------------------------------
 Candidate Structure: Conf:234 Charge calc in gas phase
 ------------------------------------------------------
 Structure from the checkpoint file:  "conf-234.chk"
 Charge =  1 Multiplicity = 1

                          Input orientation:
 ---------------------------------------------------------------------
 Center     Atomic      Atomic             Coordinates (Angstroms)
 Number     Number       Type             X           Y           Z
 ---------------------------------------------------------------------
      1          7           0       -9.131726   -1.299738    8.075307
      2          1           0       -9.263260   -2.219083    7.653337
      3          1           0      -10.022672   -0.977169    8.446402
      4          1           0       -8.456013   -1.410164    8.841752
      5          6           0       -8.543566   -0.330712    7.115034
      6          1           0       -9.098927   -0.357849    6.173588
      7          6           0       -7.089361   -0.760997    6.899902
      8          6           0       -8.602135    1.098500    7.677264
      9          1           0       -8.025526    1.118958    8.606500
     10          1           0       -9.647585    1.313743    7.925838
     11          8           0       -6.475763   -1.303058    7.814484
     12          6           0       -8.068941    2.118819    6.702029
     13          6           0       -6.786485    2.648181    6.850501
     14          1           0       -6.160400    2.318953    7.675388
     15          6           0       -8.844093    2.514695    5.610235
     16          1           0       -9.835362    2.086349    5.483649
     17          6           0       -6.299700    3.577702    5.931219
     18          1           0       -5.300086    3.983222    6.056002
     19          6           0       -8.359455    3.443883    4.692117
     20          1           0       -8.978315    3.746982    3.855465
     21          6           0       -7.083990    3.979774    4.853115
     22          1           0       -6.702943    4.702967    4.141462
     23          7           0       -6.566481   -0.479028    5.695219
     24          1           0       -7.077196    0.092799    5.031642
     25          6           0       -5.139280   -0.593926    5.427387
     26          1           0       -4.594874   -0.430947    6.362121
     27          6           0       -4.815254    0.516146    4.431506
     28          6           0       -4.772680   -1.968155    4.863804
     29          1           0       -3.701836   -2.016057    4.648082
     30          1           0       -5.320246   -2.148888    3.935963
     31          1           0       -5.026968   -2.749011    5.583567
     32          8           0       -5.612639    0.829652    3.558497
     33          7           0       -3.603877    1.119293    4.592645
     34          1           0       -2.894948    0.578410    5.065426
     35          6           0       -3.090152    1.971604    3.530071
     36          1           0       -3.947676    2.513673    3.126375
     37          6           0       -2.492595    1.083708    2.428467
     38          6           0       -2.055435    2.943082    4.088129
     39          1           0       -1.688795    3.613892    3.307964
     40          1           0       -1.203064    2.394894    4.499741
     41          1           0       -2.502034    3.541177    4.885924
     42          8           0       -2.051692   -0.040500    2.668299
     43          7           0       -2.482815    1.638471    1.197607
     44          1           0       -2.814311    2.578875    1.074336
     45          6           0       -1.944803    0.948305    0.038267
     46          1           0       -2.359951   -0.061551    0.032028
     47          6           0       -0.422023    0.887168    0.148488
     48          6           0       -2.314909    1.679353   -1.260050
     49          1           0       -1.847460    2.663848   -1.267960
     50          1           0       -1.865651    1.128366   -2.094591
     51          8           0        0.245686    1.921871    0.219707
     52          6           0       -3.791506    1.854801   -1.488230
     53          6           0       -4.695536    0.794343   -1.414720
     54          1           0       -4.334428   -0.203030   -1.190084
     55          6           0       -4.282477    3.122210   -1.802487
     56          1           0       -3.587380    3.949328   -1.901273
     57          6           0       -6.056655    0.986820   -1.642312
     58          1           0       -6.756506    0.160843   -1.587265
     59          6           0       -5.641632    3.332733   -2.024154
     60          1           0       -6.003467    4.327107   -2.270279
     61          8           0       -7.879263    2.402310   -2.149741
     62          1           0       -8.065685    3.325440   -2.353318
     63          6           0       -6.531204    2.261875   -1.940723
     64          7           0        0.155795   -0.333633    0.126807
     65          1           0       -0.417085   -1.157284    0.066309
     66          6           0        1.603841   -0.497093    0.252654
     67          1           0        1.949125    0.319603    0.892760
     68          6           0        2.209223   -0.279006   -1.144977
     69          6           0        1.968786   -1.843507    0.857032
     70          1           0        1.701990   -2.635472    0.153420
     71          1           0        3.058361   -1.881045    0.962030
     72          8           0        2.558932   -1.209085   -1.884569
     73          6           0        1.322535   -2.127314    2.218720
     74          1           0        0.235378   -2.163308    2.079753
     75          6           0        1.788979   -3.492024    2.726556
     76          1           0        2.870508   -3.486783    2.894776
     77          1           0        1.304634   -3.750682    3.672599
     78          1           0        1.562634   -4.283733    2.006086
     79          6           0        1.627838   -1.033251    3.241715
     80          1           0        2.705049   -0.977293    3.434906
     81          1           0        1.286198   -0.050761    2.905288
     82          1           0        1.127710   -1.248115    4.191612
     83          7           0        2.268422    1.015371   -1.515407
     84          1           0        1.859771    1.692520   -0.878833
     85          6           0        2.425302    1.452111   -2.902254
     86          1           0        2.014939    0.656015   -3.539683
     87          6           0        3.904506    1.599243   -3.282585
     88          6           0        1.622758    2.742506   -3.096915
     89          1           0        1.994077    3.520462   -2.423265
     90          1           0        1.780271    3.122453   -4.108384
     91          8           0        4.386561    2.602527   -3.786182
     92          6           0        0.157784    2.471227   -2.790444
     93          1           0        0.100111    2.059220   -1.787905
     94          1           0       -0.279646    1.743790   -3.479946
     95          6           0       -0.779834    3.706613   -2.702027
     96          8           0       -0.249165    4.789735   -2.398419
     97          8           0       -1.996172    3.425067   -2.830913
     98          7           0        4.638099    0.486280   -2.989218
     99          1           0        4.111236   -0.352498   -2.766411
    100          6           0        5.995275    0.347153   -3.452339
    101          1           0        6.437733    1.345517   -3.493380
    102          6           0        6.033016   -0.215787   -4.867051
    103          6           0        6.807500   -0.534662   -2.490941
    104          1           0        6.815979   -0.034457   -1.518368
    105          1           0        7.842241   -0.571247   -2.844545
    106          8           0        5.096551   -0.681024   -5.465609
    107          6           0        6.247674   -1.946224   -2.340476
    108          1           0        6.151780   -2.415953   -3.323724
    109          1           0        5.246836   -1.909495   -1.902562
    110          6           0        7.134054   -2.819490   -1.466481
    111          1           0        7.236673   -2.377994   -0.467225
    112          1           0        8.134225   -2.879745   -1.908227
    113          7           0        6.559029   -4.175840   -1.383718
    114          1           0        5.547476   -4.200395   -1.391016
    115          7           0        8.347649   -4.999121   -0.120093
    116          1           0        8.883192   -5.810337    0.148419
    117          1           0        8.880529   -4.178859   -0.360912
    118          7           0        6.445079   -6.314508   -0.495308
    119          1           0        6.953822   -7.116243   -0.152725
    120          1           0        5.730288   -6.534780   -1.176224
    121          6           0        7.134488   -5.162681   -0.678322
    122          8           0        7.281851   -0.152976   -5.380954
    123          1           0        7.225226   -0.520884   -6.275537
 ---------------------------------------------------------------------

 SCF Done:  E(RB3LYP) =  -2973.85934854     A.U. after    3 cycles

 Alpha  occ. eigenvalues --  -19.24875 -19.24741 -19.19782 -19.18930 -19.17841
 Alpha  occ. eigenvalues --  -19.16157 -19.15920 -19.14886 -19.13480 -19.01464
 Alpha  occ. eigenvalues --  -19.01314 -14.62634 -14.53863 -14.53220 -14.52831
 Alpha  occ. eigenvalues --  -14.47629 -14.43175 -14.40607 -14.39813 -14.38270
 Alpha  occ. eigenvalues --  -14.37842 -10.49347 -10.41995 -10.40446 -10.36620
 Alpha  occ. eigenvalues --  -10.36610 -10.35812 -10.33659 -10.32961 -10.32626
 Alpha  occ. eigenvalues --  -10.32248 -10.31880 -10.30200 -10.29996 -10.28974
 Alpha  occ. eigenvalues --  -10.28878 -10.28613 -10.28509 -10.28365 -10.27728
 Alpha  occ. eigenvalues --  -10.27717 -10.27681 -10.27454 -10.27066 -10.26385
 Alpha  occ. eigenvalues --  -10.25271 -10.24302 -10.24193 -10.24159 -10.23928
 Alpha  occ. eigenvalues --  -10.23873 -10.23198 -10.22189 -10.19915 -10.18422
 Alpha  occ. eigenvalues --  -10.17968 -10.17712 -10.17601 -10.16909 -10.16345
 Alpha  occ. eigenvalues --  -10.16281 -10.13100  -1.19019  -1.18050  -1.15865
 Alpha  occ. eigenvalues --   -1.15692  -1.12071  -1.08209  -1.07682  -1.07167
 Alpha  occ. eigenvalues --   -1.06880  -1.06751  -1.06734  -1.05927  -1.05380
 Alpha  occ. eigenvalues --   -1.04311  -0.99858  -0.97039  -0.96464  -0.96399
 Alpha  occ. eigenvalues --   -0.96097  -0.95694  -0.95011  -0.92809  -0.90621
 Alpha  occ. eigenvalues --   -0.87426  -0.87169  -0.86705  -0.85028  -0.84470
 Alpha  occ. eigenvalues --   -0.84186  -0.83607  -0.83025  -0.81130  -0.80065
 Alpha  occ. eigenvalues --   -0.79666  -0.78766  -0.77871  -0.76906  -0.76190
 Alpha  occ. eigenvalues --   -0.75302  -0.75103  -0.74824  -0.73891  -0.73747
 Alpha  occ. eigenvalues --   -0.73681  -0.71649  -0.71532  -0.71228  -0.70083
 Alpha  occ. eigenvalues --   -0.69821  -0.69549  -0.69030  -0.68077  -0.67484
 Alpha  occ. eigenvalues --   -0.66468  -0.66256  -0.65764  -0.65334  -0.65075
 Alpha  occ. eigenvalues --   -0.63975  -0.63218  -0.62428  -0.62080  -0.61676
 Alpha  occ. eigenvalues --   -0.61272  -0.61221  -0.60896  -0.60553  -0.59848
 Alpha  occ. eigenvalues --   -0.59521  -0.59112  -0.58409  -0.57975  -0.57799
 Alpha  occ. eigenvalues --   -0.56727  -0.56126  -0.55962  -0.55677  -0.55051
 Alpha  occ. eigenvalues --   -0.54959  -0.54349  -0.53964  -0.53702  -0.53505
 Alpha  occ. eigenvalues --   -0.53336  -0.53024  -0.52510  -0.52071  -0.51897
 Alpha  occ. eigenvalues --   -0.51561  -0.51104  -0.50942  -0.50640  -0.50465
 Alpha  occ. eigenvalues --   -0.50369  -0.50040  -0.50012  -0.49291  -0.48738
 Alpha  occ. eigenvalues --   -0.48420  -0.48170  -0.47964  -0.47484  -0.46889
 Alpha  occ. eigenvalues --   -0.46619  -0.46503  -0.45968  -0.45785  -0.45425
 Alpha  occ. eigenvalues --   -0.45164  -0.45098  -0.44847  -0.44667  -0.44549
 Alpha  occ. eigenvalues --   -0.44449  -0.44247  -0.44077  -0.43846  -0.43785
 Alpha  occ. eigenvalues --   -0.43709  -0.43383  -0.43243  -0.43204  -0.42834
 Alpha  occ. eigenvalues --   -0.42420  -0.42328  -0.42110  -0.41797  -0.41731
 Alpha  occ. eigenvalues --   -0.41443  -0.41181  -0.40651  -0.40497  -0.40388
 Alpha  occ. eigenvalues --   -0.39761  -0.39289  -0.39068  -0.39018  -0.38110
 Alpha  occ. eigenvalues --   -0.37865  -0.37769  -0.37600  -0.37285  -0.36948
 Alpha  occ. eigenvalues --   -0.36887  -0.34776  -0.34382  -0.34138  -0.34102
 Alpha  occ. eigenvalues --   -0.33826  -0.33676  -0.33499  -0.33112  -0.32481
 Alpha  occ. eigenvalues --   -0.32408  -0.31699  -0.31134  -0.30815  -0.30319
 Alpha  occ. eigenvalues --   -0.30029  -0.29793  -0.28694  -0.28454  -0.27989
 Alpha  occ. eigenvalues --   -0.27261  -0.25799  -0.24095  -0.21030  -0.17197
 Alpha  occ. eigenvalues --   -0.16422  -0.15575
 Alpha virt. eigenvalues --   -0.14710  -0.12589  -0.10881  -0.10244  -0.09378
 Alpha virt. eigenvalues --   -0.09376  -0.06499  -0.05918  -0.05426  -0.05032
 Alpha virt. eigenvalues --   -0.04476  -0.04156  -0.03789  -0.02759  -0.02300

 Mulliken charges:
               1
     1  N   -0.715624
     2  H    0.429800
     3  H    0.420145
     4  H    0.425175
     5  C   -0.147820
     6  H    0.218443
     7  C    0.638671
     8  C   -0.372865
     9  H    0.186946
    10  H    0.174627
    11  O   -0.533016
    12  C    0.153722
    13  C   -0.182796
    14  H    0.141940
    15  C   -0.193686
    16  H    0.126976
    17  C   -0.124764
    18  H    0.158826
    19  C   -0.115360
    20  H    0.166321
    21  C   -0.109785
    22  H    0.168753
    23  N   -0.591090
    24  H    0.370777
    25  C   -0.050762
    26  H    0.178590
    27  C    0.617778
    28  C   -0.448120
    29  H    0.185470
    30  H    0.180215
    31  H    0.166076
    32  O   -0.516158
    33  N   -0.583004
    34  H    0.335719
    35  C   -0.092550
    36  H    0.190710
    37  C    0.646269
    38  C   -0.456153
    39  H    0.191600
    40  H    0.159142
    41  H    0.156864
    42  O   -0.568884
    43  N   -0.577663
    44  H    0.347198
    45  C   -0.036796
    46  H    0.132855
    47  C    0.656869
    48  C   -0.398724
    49  H    0.219595
    50  H    0.163924
    51  O   -0.542934
    52  C    0.167706
    53  C   -0.184405
    54  H    0.092865
    55  C   -0.166003
    56  H    0.193472
    57  C   -0.169771
    58  H    0.108591
    59  C   -0.218738
    60  H    0.107721
    61  O   -0.659448
    62  H    0.401156
    63  C    0.346064
    64  N   -0.595416
    65  H    0.336653
    66  C   -0.060189
    67  H    0.179421
    68  C    0.624025
    69  C   -0.279820
    70  H    0.145103
    71  H    0.117545
    72  O   -0.586747
    73  C   -0.074763
    74  H    0.145578
    75  C   -0.440077
    76  H    0.125072
    77  H    0.145963
    78  H    0.132460
    79  C   -0.447529
    80  H    0.128265
    81  H    0.173741
    82  H    0.139235
    83  N   -0.599831
    84  H    0.388568
    85  C   -0.079865
    86  H    0.178021
    87  C    0.629083
    88  C   -0.275709
    89  H    0.164709
    90  H    0.160993
    91  O   -0.511467
    92  C   -0.384451
    93  H    0.148785
    94  H    0.113233
    95  C    0.563224
    96  O   -0.578970
    97  O   -0.599391
    98  N   -0.636123
    99  H    0.380544
   100  C   -0.048774
   101  H    0.212535
   102  C    0.586463
   103  C   -0.284415
   104  H    0.166302
   105  H    0.162106
   106  O   -0.452295
   107  C   -0.334551
   108  H    0.181952
   109  H    0.186791
   110  C   -0.165060
   111  H    0.189301
   112  H    0.179242
   113  N   -0.586553
   114  H    0.379688
   115  N   -0.731052
   116  H    0.380391
   117  H    0.395632
   118  N   -0.731845
   119  H    0.374941
   120  H    0.386646
   121  C    0.768132
   122  O   -0.570721
   123  H    0.414622
 Sum of Mulliken charges =   1.00000

 Dipole moment (field-independent basis, Debye):
    X=             -2.8924    Y=            -34.5080    Z=             38.1241  Tot=             51.5036
 Quadrupole moment (field-independent basis, Debye-Ang):
   XX=            192.3553   YY=           -273.6613   ZZ=           -157.2345
   XY=           -142.9024   XZ=           -304.8396   YZ=             36.9143

 Normal termination of Gaussian 16 at Mon Aug  1 02:11:32 2022.
