 Gaussian 16, Revision C.01,
 Gaussian 16:  ES64L-G16RevC.01  3-Jul-2019

 -------------------------------------------------------------------
 # B3LYP/6-31G* guess=read geom=check nosymm integral(ultrafinegrid)
 -------------------------------------------------------------------

 ------------------------------------------------------
 Candidate Structure: Conf:477 Charge calc in gas phase
 ------------------------------------------------------
 Structure from the checkpoint file:  "conf-477.chk"
 Charge =  1 Multiplicity = 1

                          Input orientation:
 ---------------------------------------------------------------------
 Center     Atomic      Atomic             Coordinates (Angstroms)
 Number     Number       Type             X           Y           Z
 ---------------------------------------------------------------------
      1          7           0       -3.882807    4.745097    0.670536
      2          1           0       -4.691691    5.371207    0.711593
      3          1           0       -4.053162    3.989553   -0.020833
      4          1           0       -2.959573    5.231532    0.336402
      5          6           0       -3.622112    4.168793    2.017640
      6          1           0       -2.816684    3.441670    1.880372
      7          6           0       -4.898665    3.446484    2.481977
      8          6           0       -3.131965    5.270788    2.995054
      9          1           0       -2.128448    5.556253    2.666005
     10          1           0       -3.036507    4.810628    3.985442
     11          8           0       -6.001283    3.800569    2.070410
     12          6           0       -4.013703    6.501992    3.058451
     13          6           0       -3.721340    7.610221    2.248450
     14          1           0       -2.850259    7.578960    1.597221
     15          6           0       -5.127718    6.561758    3.907118
     16          1           0       -5.363822    5.715233    4.547302
     17          6           0       -4.528629    8.749051    2.284336
     18          1           0       -4.286005    9.601351    1.655472
     19          6           0       -5.932303    7.700127    3.945523
     20          1           0       -6.789422    7.732425    4.612419
     21          6           0       -5.635731    8.796272    3.132604
     22          1           0       -6.261353    9.683912    3.165211
     23          7           0       -4.643627    2.434114    3.339379
     24          1           0       -3.683855    2.255229    3.623990
     25          6           0       -5.581244    1.508947    3.976113
     26          1           0       -6.030271    1.995124    4.856519
     27          6           0       -4.658896    0.387349    4.516529
     28          6           0       -6.711372    1.036069    3.055027
     29          1           0       -7.437182    0.438368    3.618397
     30          1           0       -6.325221    0.440699    2.221833
     31          1           0       -7.235171    1.899930    2.645014
     32          8           0       -3.499305    0.661147    4.845575
     33          7           0       -5.155645   -0.862837    4.603205
     34          1           0       -6.076265   -1.064439    4.238293
     35          6           0       -4.350249   -1.993902    5.089549
     36          1           0       -3.675363   -1.577133    5.844117
     37          6           0       -3.480303   -2.595295    3.949944
     38          6           0       -5.253859   -3.054661    5.708442
     39          1           0       -4.651593   -3.877654    6.099393
     40          1           0       -5.929712   -3.481343    4.960332
     41          1           0       -5.839631   -2.624102    6.526417
     42          8           0       -3.637295   -3.749154    3.560581
     43          7           0       -2.544046   -1.756784    3.432931
     44          1           0       -2.392268   -0.832671    3.834617
     45          6           0       -1.591494   -2.217307    2.440350
     46          1           0       -1.253459   -3.220049    2.734481
     47          6           0       -0.391483   -1.255368    2.480002
     48          6           0       -2.211280   -2.359592    1.011156
     49          1           0       -1.503916   -2.924262    0.388727
     50          1           0       -3.090198   -2.999748    1.133344
     51          8           0       -0.414294   -0.198782    3.103168
     52          6           0       -2.558700   -1.054196    0.335678
     53          6           0       -3.790278   -0.419005    0.542973
     54          1           0       -4.548805   -0.914120    1.144309
     55          6           0       -1.626109   -0.411525   -0.490077
     56          1           0       -0.673573   -0.886828   -0.704552
     57          6           0       -4.059252    0.839372    0.004375
     58          1           0       -5.015648    1.326469    0.173694
     59          6           0       -1.875901    0.845636   -1.031481
     60          1           0       -1.137524    1.336898   -1.655810
     61          8           0       -3.330708    2.764367   -1.207368
     62          1           0       -2.444643    3.242759   -1.332413
     63          6           0       -3.083274    1.498208   -0.752998
     64          7           0        0.717663   -1.671157    1.799186
     65          1           0        0.659301   -2.482361    1.198711
     66          6           0        1.924859   -0.856294    1.728790
     67          1           0        1.990273   -0.332493    2.685321
     68          6           0        1.815525    0.164259    0.576288
     69          6           0        3.149271   -1.764379    1.521463
     70          1           0        3.132786   -2.533102    2.305211
     71          1           0        3.022463   -2.277120    0.558280
     72          8           0        1.695962   -0.228917   -0.593604
     73          6           0        4.517089   -1.052535    1.534099
     74          1           0        4.495747   -0.257637    0.772825
     75          6           0        4.833668   -0.403460    2.890300
     76          1           0        4.833594   -1.152381    3.692267
     77          1           0        5.823351    0.066291    2.874570
     78          1           0        4.111222    0.374421    3.160648
     79          6           0        5.621793   -2.045695    1.141280
     80          1           0        5.689852   -2.865045    1.867807
     81          1           0        5.430249   -2.490678    0.156961
     82          1           0        6.600478   -1.553408    1.107658
     83          7           0        1.894912    1.468114    0.924234
     84          1           0        1.882610    1.685546    1.912926
     85          6           0        1.654975    2.598003    0.003695
     86          1           0        0.775632    2.364710   -0.603930
     87          6           0        2.864771    2.801908   -0.942910
     88          6           0        1.387687    3.875648    0.808419
     89          1           0        0.686410    3.634416    1.618469
     90          1           0        2.328348    4.199944    1.266164
     91          8           0        3.663337    3.720893   -0.828077
     92          6           0        0.813834    5.040795   -0.029447
     93          1           0        1.396812    5.151617   -0.949654
     94          1           0        0.912428    5.967009    0.541621
     95          6           0       -0.665423    4.837600   -0.374770
     96          8           0       -1.488795    5.622513    0.191781
     97          8           0       -0.953864    3.890143   -1.160980
     98          7           0        2.937500    1.872837   -1.950311
     99          1           0        2.362177    1.033795   -1.842634
    100          6           0        4.004591    1.917014   -2.927311
    101          1           0        4.631080    2.769993   -2.634583
    102          6           0        3.397410    2.256579   -4.295090
    103          6           0        4.831568    0.620435   -2.946009
    104          1           0        4.192747   -0.199691   -3.297448
    105          1           0        5.076454    0.386918   -1.906069
    106          8           0        3.448797    1.557580   -5.305783
    107          6           0        6.134079    0.702435   -3.784365
    108          1           0        7.004944    0.759873   -3.124404
    109          1           0        6.155722    1.617751   -4.388712
    110          6           0        6.341073   -0.491040   -4.724928
    111          1           0        6.336981   -1.433302   -4.160626
    112          1           0        7.308111   -0.396951   -5.235767
    113          7           0        5.254851   -0.505356   -5.714546
    114          1           0        4.552340    0.244256   -5.612033
    115          7           0        5.969530   -2.371817   -6.907310
    116          1           0        5.740257   -3.166962   -7.485762
    117          1           0        6.828608   -2.419115   -6.380351
    118          7           0        3.926301   -1.381500   -7.387611
    119          1           0        3.882045   -1.839295   -8.287102
    120          1           0        3.258038   -0.638836   -7.226357
    121          6           0        5.062672   -1.410048   -6.659908
    122          8           0        2.763103    3.423006   -4.283237
    123          1           0        2.364322    3.570043   -5.162681
 ---------------------------------------------------------------------

 SCF Done:  E(RB3LYP) =  -2974.07756757     A.U. after    2 cycles

 Alpha  occ. eigenvalues --  -19.30797 -19.26764 -19.20760 -19.20180 -19.19275
 Alpha  occ. eigenvalues --  -19.19182 -19.18636 -19.18262 -19.16692 -19.15510
 Alpha  occ. eigenvalues --  -19.15315 -14.52777 -14.52074 -14.51053 -14.46297
 Alpha  occ. eigenvalues --  -14.44623 -14.43885 -14.43406 -14.43371 -14.42520
 Alpha  occ. eigenvalues --  -14.40484 -10.48507 -10.44070 -10.36832 -10.36531
 Alpha  occ. eigenvalues --  -10.36336 -10.36090 -10.35693 -10.35618 -10.33770
 Alpha  occ. eigenvalues --  -10.33763 -10.33057 -10.31378 -10.31199 -10.31064
 Alpha  occ. eigenvalues --  -10.30935 -10.30135 -10.30005 -10.29552 -10.29440
 Alpha  occ. eigenvalues --  -10.29186 -10.26681 -10.26305 -10.25819 -10.25277
 Alpha  occ. eigenvalues --  -10.24867 -10.24780 -10.24762 -10.24731 -10.24307
 Alpha  occ. eigenvalues --  -10.23860 -10.23791 -10.23711 -10.23637 -10.23555
 Alpha  occ. eigenvalues --  -10.23538 -10.23491 -10.23448 -10.23393 -10.23267
 Alpha  occ. eigenvalues --  -10.23014 -10.22976  -1.22480  -1.17044  -1.13301
 Alpha  occ. eigenvalues --   -1.11902  -1.11460  -1.10998  -1.10491  -1.10103
 Alpha  occ. eigenvalues --   -1.09044  -1.08405  -1.07888  -1.06130  -1.05419
 Alpha  occ. eigenvalues --   -1.02397  -1.00856  -1.00404  -0.99935  -0.99627
 Alpha  occ. eigenvalues --   -0.99286  -0.99174  -0.97216  -0.91940  -0.90324
 Alpha  occ. eigenvalues --   -0.89865  -0.88705  -0.87018  -0.86040  -0.85253
 Alpha  occ. eigenvalues --   -0.84400  -0.83658  -0.81804  -0.81448  -0.81054
 Alpha  occ. eigenvalues --   -0.79230  -0.79131  -0.78963  -0.78390  -0.77785
 Alpha  occ. eigenvalues --   -0.77215  -0.75380  -0.74905  -0.74037  -0.73788
 Alpha  occ. eigenvalues --   -0.72531  -0.72017  -0.71239  -0.70996  -0.70099
 Alpha  occ. eigenvalues --   -0.69393  -0.68521  -0.67221  -0.66525  -0.66361
 Alpha  occ. eigenvalues --   -0.65964  -0.65592  -0.65374  -0.65215  -0.65123
 Alpha  occ. eigenvalues --   -0.64291  -0.63960  -0.63333  -0.63214  -0.63029
 Alpha  occ. eigenvalues --   -0.62612  -0.61813  -0.61561  -0.61368  -0.61107
 Alpha  occ. eigenvalues --   -0.60585  -0.59694  -0.59159  -0.58604  -0.58181
 Alpha  occ. eigenvalues --   -0.57927  -0.57173  -0.56507  -0.56285  -0.56021
 Alpha  occ. eigenvalues --   -0.55859  -0.55355  -0.54686  -0.54601  -0.54294
 Alpha  occ. eigenvalues --   -0.54132  -0.53627  -0.53470  -0.52816  -0.52791
 Alpha  occ. eigenvalues --   -0.52366  -0.51855  -0.51475  -0.51226  -0.50849
 Alpha  occ. eigenvalues --   -0.50630  -0.50516  -0.50303  -0.50125  -0.50030
 Alpha  occ. eigenvalues --   -0.49517  -0.49334  -0.49151  -0.48447  -0.48384
 Alpha  occ. eigenvalues --   -0.48237  -0.47948  -0.47838  -0.47482  -0.47314
 Alpha  occ. eigenvalues --   -0.47117  -0.46933  -0.46565  -0.46332  -0.46301
 Alpha  occ. eigenvalues --   -0.46147  -0.45770  -0.45635  -0.45554  -0.45403
 Alpha  occ. eigenvalues --   -0.45329  -0.45277  -0.44978  -0.44740  -0.44589
 Alpha  occ. eigenvalues --   -0.44337  -0.44185  -0.44040  -0.43862  -0.43685
 Alpha  occ. eigenvalues --   -0.43614  -0.43501  -0.43459  -0.43247  -0.43081
 Alpha  occ. eigenvalues --   -0.42581  -0.42190  -0.42063  -0.41556  -0.40929
 Alpha  occ. eigenvalues --   -0.40810  -0.40741  -0.40421  -0.40329  -0.40253
 Alpha  occ. eigenvalues --   -0.39876  -0.39841  -0.39806  -0.39178  -0.38592
 Alpha  occ. eigenvalues --   -0.38531  -0.38018  -0.36563  -0.35719  -0.34953
 Alpha  occ. eigenvalues --   -0.34470  -0.33584  -0.33340  -0.32678  -0.32272
 Alpha  occ. eigenvalues --   -0.32008  -0.31770  -0.31629  -0.30959  -0.30498
 Alpha  occ. eigenvalues --   -0.29968  -0.29626  -0.29601  -0.29536  -0.29341
 Alpha  occ. eigenvalues --   -0.29157  -0.26285
 Alpha virt. eigenvalues --   -0.12338  -0.11387  -0.08424  -0.06480  -0.06141
 Alpha virt. eigenvalues --   -0.05432  -0.05257  -0.05206  -0.04939  -0.04887
 Alpha virt. eigenvalues --   -0.04232  -0.03971  -0.03755  -0.03181  -0.02578

 Mulliken charges:
               1
     1  N   -0.791203
     2  H    0.387827
     3  H    0.418885
     4  H    0.437137
     5  C   -0.111483
     6  H    0.193984
     7  C    0.660634
     8  C   -0.373395
     9  H    0.197385
    10  H    0.168737
    11  O   -0.539298
    12  C    0.135989
    13  C   -0.213980
    14  H    0.165607
    15  C   -0.162872
    16  H    0.128397
    17  C   -0.127473
    18  H    0.141104
    19  C   -0.127751
    20  H    0.140339
    21  C   -0.126574
    22  H    0.141150
    23  N   -0.643402
    24  H    0.368758
    25  C    0.001831
    26  H    0.188781
    27  C    0.614496
    28  C   -0.504351
    29  H    0.149298
    30  H    0.171139
    31  H    0.221181
    32  O   -0.544757
    33  N   -0.606199
    34  H    0.346410
    35  C   -0.065144
    36  H    0.192800
    37  C    0.616520
    38  C   -0.459132
    39  H    0.182592
    40  H    0.166135
    41  H    0.155946
    42  O   -0.523750
    43  N   -0.636175
    44  H    0.391274
    45  C   -0.030178
    46  H    0.176076
    47  C    0.629799
    48  C   -0.378284
    49  H    0.131349
    50  H    0.191920
    51  O   -0.530202
    52  C    0.179495
    53  C   -0.194740
    54  H    0.123482
    55  C   -0.210208
    56  H    0.139256
    57  C   -0.188734
    58  H    0.140195
    59  C   -0.184562
    60  H    0.146343
    61  O   -0.728488
    62  H    0.452385
    63  C    0.347292
    64  N   -0.616054
    65  H    0.336499
    66  C   -0.045049
    67  H    0.172995
    68  C    0.665085
    69  C   -0.280830
    70  H    0.154629
    71  H    0.143473
    72  O   -0.578118
    73  C   -0.089124
    74  H    0.130200
    75  C   -0.446668
    76  H    0.154229
    77  H    0.154865
    78  H    0.140337
    79  C   -0.444533
    80  H    0.155195
    81  H    0.130291
    82  H    0.146853
    83  N   -0.612898
    84  H    0.355500
    85  C   -0.057225
    86  H    0.224411
    87  C    0.625085
    88  C   -0.315503
    89  H    0.145737
    90  H    0.172060
    91  O   -0.506388
    92  C   -0.331502
    93  H    0.168600
    94  H    0.160752
    95  C    0.590977
    96  O   -0.600925
    97  O   -0.592145
    98  N   -0.633134
    99  H    0.380380
   100  C   -0.047430
   101  H    0.220538
   102  C    0.621544
   103  C   -0.300430
   104  H    0.156418
   105  H    0.190087
   106  O   -0.533603
   107  C   -0.316675
   108  H    0.188185
   109  H    0.173365
   110  C   -0.159114
   111  H    0.182650
   112  H    0.180692
   113  N   -0.635626
   114  H    0.431300
   115  N   -0.761806
   116  H    0.383072
   117  H    0.389375
   118  N   -0.763536
   119  H    0.377574
   120  H    0.392673
   121  C    0.813953
   122  O   -0.511874
   123  H    0.431020
 Sum of Mulliken charges =   1.00000

 Dipole moment (field-independent basis, Debye):
    X=             17.0924    Y=             -4.6703    Z=            -19.1010  Tot=             26.0540
 Quadrupole moment (field-independent basis, Debye-Ang):
   XX=           -197.8397   YY=           -335.7166   ZZ=           -159.3753
   XY=            -55.8113   XZ=           -159.7279   YZ=             43.7159

 Normal termination of Gaussian 16 at Mon Aug  1 02:11:16 2022.
