 Gaussian 16, Revision C.01,
 Gaussian 16:  ES64L-G16RevC.01  3-Jul-2019

 -------------------------------------------------------------------
 # B3LYP/6-31G* guess=read geom=check nosymm integral(ultrafinegrid)
 -------------------------------------------------------------------

 ------------------------------------------------------
 Candidate Structure: Conf:126 Charge calc in gas phase
 ------------------------------------------------------
 Structure from the checkpoint file:  "conf-126.chk"
 Charge =  1 Multiplicity = 1

                          Input orientation:
 ---------------------------------------------------------------------
 Center     Atomic      Atomic             Coordinates (Angstroms)
 Number     Number       Type             X           Y           Z
 ---------------------------------------------------------------------
      1          7           0       -8.999573   -1.900982    4.537068
      2          1           0       -9.733291   -2.611773    4.509491
      3          1           0       -9.116498   -1.337610    5.383580
      4          1           0       -8.014565   -2.353693    4.523180
      5          6           0       -8.916866   -1.051039    3.282174
      6          1           0       -9.660392   -1.429228    2.576551
      7          6           0       -7.469715   -1.359239    2.792800
      8          6           0       -9.173091    0.441624    3.601757
      9          1           0       -8.285985    0.849535    4.097373
     10          1           0      -10.017064    0.493318    4.303859
     11          8           0       -6.801497   -2.143032    3.488618
     12          6           0       -9.510939    1.262018    2.368961
     13          6           0       -8.576596    2.154830    1.823081
     14          1           0       -7.596403    2.248475    2.285016
     15          6           0      -10.772170    1.139255    1.767039
     16          1           0      -11.515941    0.467567    2.193318
     17          6           0       -8.898855    2.904525    0.686996
     18          1           0       -8.167666    3.593433    0.272225
     19          6           0      -11.093167    1.888021    0.635804
     20          1           0      -12.075305    1.788035    0.182572
     21          6           0      -10.155019    2.770256    0.093628
     22          1           0      -10.405406    3.354282   -0.787398
     23          7           0       -7.045894   -0.772973    1.677220
     24          1           0       -7.634555   -0.039988    1.293021
     25          6           0       -5.605676   -0.639443    1.413871
     26          1           0       -5.146985   -1.628852    1.467699
     27          6           0       -5.000855    0.264209    2.529125
     28          6           0       -5.382615   -0.053774    0.017206
     29          1           0       -4.312273   -0.055593   -0.196044
     30          1           0       -5.759145    0.973899   -0.051186
     31          1           0       -5.885445   -0.667732   -0.737555
     32          8           0       -5.726225    0.964816    3.251049
     33          7           0       -3.665391    0.210041    2.595881
     34          1           0       -3.163840   -0.466357    1.970349
     35          6           0       -2.900490    1.014791    3.554108
     36          1           0       -3.426426    1.968863    3.671688
     37          6           0       -1.528279    1.217047    2.883233
     38          6           0       -2.774338    0.330570    4.916251
     39          1           0       -2.223619    0.967698    5.617699
     40          1           0       -2.236564   -0.614730    4.813327
     41          1           0       -3.771692    0.142590    5.323389
     42          8           0       -0.668068    0.345643    3.016065
     43          7           0       -1.408900    2.361665    2.152101
     44          1           0       -2.260585    2.913342    2.152493
     45          6           0       -0.664006    2.604606    0.888502
     46          1           0       -1.048473    1.879233    0.158038
     47          6           0        0.871750    2.385659    0.862455
     48          6           0       -0.971752    4.044922    0.429087
     49          1           0       -0.528052    4.745169    1.145689
     50          1           0       -0.435178    4.195474   -0.510858
     51          8           0        1.591924    3.160759    0.231358
     52          6           0       -2.445954    4.350192    0.258667
     53          6           0       -3.214078    3.720760   -0.736819
     54          1           0       -2.745851    2.990014   -1.391976
     55          6           0       -3.086468    5.289136    1.076470
     56          1           0       -2.517333    5.802512    1.848113
     57          6           0       -4.560963    4.019070   -0.913583
     58          1           0       -5.144150    3.543615   -1.696316
     59          6           0       -4.438495    5.600495    0.913104
     60          1           0       -4.910476    6.339357    1.558290
     61          8           0       -6.507310    5.227712   -0.302829
     62          1           0       -6.783279    5.954279    0.278114
     63          6           0       -5.175950    4.966170   -0.086425
     64          7           0        1.326618    1.243627    1.431482
     65          1           0        0.670994    0.702592    2.010200
     66          6           0        2.676940    0.767653    1.236995
     67          1           0        3.197698    1.547556    0.671368
     68          6           0        2.742604   -0.495607    0.360681
     69          6           0        3.402286    0.516555    2.578359
     70          1           0        2.839835   -0.243763    3.137863
     71          1           0        4.382822    0.073331    2.363960
     72          8           0        3.853869   -1.032221    0.128991
     73          6           0        3.576814    1.764965    3.463256
     74          1           0        2.576516    2.168500    3.671250
     75          6           0        4.214171    1.367858    4.803283
     76          1           0        5.223951    0.961690    4.656662
     77          1           0        4.298958    2.232934    5.470928
     78          1           0        3.620480    0.603606    5.318250
     79          6           0        4.391961    2.869390    2.772408
     80          1           0        5.385927    2.497118    2.479419
     81          1           0        3.887268    3.256860    1.881182
     82          1           0        4.553400    3.714144    3.451911
     83          7           0        1.606419   -0.991580   -0.130020
     84          1           0        0.683911   -0.531255    0.003309
     85          6           0        1.593302   -2.187302   -0.952611
     86          1           0        1.975415   -3.030571   -0.359270
     87          6           0        2.505428   -2.030839   -2.184727
     88          6           0        0.154197   -2.510706   -1.423811
     89          1           0       -0.188965   -1.695313   -2.069970
     90          1           0        0.219639   -3.412034   -2.044756
     91          8           0        2.770033   -0.935312   -2.692139
     92          6           0       -0.875875   -2.742260   -0.302760
     93          1           0       -0.412106   -3.246569    0.556798
     94          1           0       -1.656136   -3.425108   -0.655593
     95          6           0       -1.589068   -1.473798    0.223102
     96          8           0       -2.651767   -1.678164    0.870593
     97          8           0       -1.061150   -0.351723   -0.025923
     98          7           0        2.941685   -3.200679   -2.707464
     99          1           0        2.706054   -4.082553   -2.263514
    100          6           0        3.641164   -3.324600   -3.978485
    101          1           0        3.019106   -2.904086   -4.781388
    102          6           0        3.749350   -4.821476   -4.259643
    103          6           0        5.029804   -2.616225   -4.015832
    104          1           0        5.756508   -3.265723   -4.512418
    105          1           0        5.360220   -2.508310   -2.977834
    106          8           0        3.374645   -5.693835   -3.506644
    107          6           0        4.999898   -1.246748   -4.732460
    108          1           0        3.981779   -0.849748   -4.733052
    109          1           0        5.306164   -1.358882   -5.778475
    110          6           0        5.914232   -0.200934   -4.089217
    111          1           0        5.889970    0.717444   -4.693110
    112          1           0        6.952193   -0.555430   -4.056170
    113          7           0        5.475343    0.080866   -2.716352
    114          1           0        4.522765   -0.211218   -2.464531
    115          7           0        7.397267    1.257525   -2.167265
    116          1           0        8.010849    1.647756   -1.467520
    117          1           0        7.504278    1.606003   -3.108217
    118          7           0        5.902534    0.618102   -0.503535
    119          1           0        6.341510    1.243922    0.156218
    120          1           0        5.132796   -0.008424   -0.167705
    121          6           0        6.238796    0.661663   -1.791144
    122          8           0        4.301470   -5.060490   -5.462921
    123          1           0        4.329639   -6.029847   -5.576959
 ---------------------------------------------------------------------

 SCF Done:  E(RB3LYP) =  -2974.05025354     A.U. after    2 cycles

 Alpha  occ. eigenvalues --  -19.27805 -19.24117 -19.24069 -19.22388 -19.18592
 Alpha  occ. eigenvalues --  -19.17875 -19.17390 -19.16903 -19.15277 -19.12258
 Alpha  occ. eigenvalues --  -19.11902 -14.56765 -14.47623 -14.45925 -14.45780
 Alpha  occ. eigenvalues --  -14.44919 -14.43139 -14.41103 -14.40317 -14.39425
 Alpha  occ. eigenvalues --  -14.38472 -10.42763 -10.40380 -10.40352 -10.37998
 Alpha  occ. eigenvalues --  -10.35751 -10.34182 -10.34122 -10.33681 -10.32685
 Alpha  occ. eigenvalues --  -10.32095 -10.31889 -10.31114 -10.30582 -10.30225
 Alpha  occ. eigenvalues --  -10.29699 -10.29040 -10.28704 -10.28022 -10.27751
 Alpha  occ. eigenvalues --  -10.27713 -10.27434 -10.26977 -10.26905 -10.26764
 Alpha  occ. eigenvalues --  -10.26552 -10.26547 -10.26219 -10.24657 -10.24584
 Alpha  occ. eigenvalues --  -10.24474 -10.24394 -10.24162 -10.23982 -10.23911
 Alpha  occ. eigenvalues --  -10.23432 -10.23374 -10.23275 -10.21972 -10.21952
 Alpha  occ. eigenvalues --  -10.21831 -10.21607  -1.18897  -1.16568  -1.11781
 Alpha  occ. eigenvalues --   -1.11365  -1.10635  -1.10624  -1.09933  -1.09091
 Alpha  occ. eigenvalues --   -1.08775  -1.08147  -1.06988  -1.05107  -1.02591
 Alpha  occ. eigenvalues --   -1.00718  -0.99801  -0.99282  -0.97907  -0.97702
 Alpha  occ. eigenvalues --   -0.96608  -0.96080  -0.95515  -0.94190  -0.90717
 Alpha  occ. eigenvalues --   -0.89959  -0.88186  -0.85465  -0.84801  -0.84680
 Alpha  occ. eigenvalues --   -0.83611  -0.82716  -0.82574  -0.82207  -0.80485
 Alpha  occ. eigenvalues --   -0.80233  -0.79551  -0.77437  -0.77145  -0.77037
 Alpha  occ. eigenvalues --   -0.75547  -0.73583  -0.72715  -0.71885  -0.71407
 Alpha  occ. eigenvalues --   -0.71077  -0.70408  -0.70100  -0.69823  -0.69493
 Alpha  occ. eigenvalues --   -0.68875  -0.68320  -0.68101  -0.67954  -0.67218
 Alpha  occ. eigenvalues --   -0.65786  -0.65769  -0.65237  -0.65079  -0.64618
 Alpha  occ. eigenvalues --   -0.64207  -0.63713  -0.62239  -0.61739  -0.61464
 Alpha  occ. eigenvalues --   -0.60755  -0.60554  -0.60041  -0.59904  -0.59193
 Alpha  occ. eigenvalues --   -0.58799  -0.58747  -0.58452  -0.57160  -0.56975
 Alpha  occ. eigenvalues --   -0.56707  -0.55847  -0.55441  -0.55374  -0.55154
 Alpha  occ. eigenvalues --   -0.54658  -0.54586  -0.54017  -0.53776  -0.53432
 Alpha  occ. eigenvalues --   -0.53184  -0.53089  -0.52739  -0.52634  -0.51930
 Alpha  occ. eigenvalues --   -0.51537  -0.51442  -0.51237  -0.50702  -0.50218
 Alpha  occ. eigenvalues --   -0.50105  -0.49729  -0.49590  -0.49364  -0.49310
 Alpha  occ. eigenvalues --   -0.49133  -0.48672  -0.48434  -0.48330  -0.48055
 Alpha  occ. eigenvalues --   -0.47715  -0.47647  -0.47545  -0.47239  -0.47044
 Alpha  occ. eigenvalues --   -0.46935  -0.46808  -0.46601  -0.46349  -0.45531
 Alpha  occ. eigenvalues --   -0.45418  -0.44998  -0.44765  -0.44712  -0.44497
 Alpha  occ. eigenvalues --   -0.44074  -0.43834  -0.43726  -0.43592  -0.43525
 Alpha  occ. eigenvalues --   -0.43312  -0.43063  -0.42841  -0.42681  -0.42539
 Alpha  occ. eigenvalues --   -0.42338  -0.42182  -0.42020  -0.41763  -0.41501
 Alpha  occ. eigenvalues --   -0.41239  -0.40862  -0.40718  -0.40169  -0.39905
 Alpha  occ. eigenvalues --   -0.39877  -0.39738  -0.39408  -0.39229  -0.38784
 Alpha  occ. eigenvalues --   -0.38707  -0.38212  -0.37957  -0.37291  -0.37267
 Alpha  occ. eigenvalues --   -0.36809  -0.36610  -0.36094  -0.35964  -0.35280
 Alpha  occ. eigenvalues --   -0.33207  -0.33151  -0.32947  -0.32783  -0.32616
 Alpha  occ. eigenvalues --   -0.32004  -0.31351  -0.30892  -0.30842  -0.30667
 Alpha  occ. eigenvalues --   -0.29641  -0.28547  -0.28415  -0.27770  -0.27328
 Alpha  occ. eigenvalues --   -0.26748  -0.26158
 Alpha virt. eigenvalues --   -0.10112  -0.08816  -0.08327  -0.07799  -0.07349
 Alpha virt. eigenvalues --   -0.07162  -0.05996  -0.04761  -0.04539  -0.04214
 Alpha virt. eigenvalues --   -0.04048  -0.03606  -0.03103  -0.02073  -0.01540

 Mulliken charges:
               1
     1  N   -0.768624
     2  H    0.407175
     3  H    0.408981
     4  H    0.438586
     5  C   -0.108808
     6  H    0.216293
     7  C    0.661347
     8  C   -0.387203
     9  H    0.224324
    10  H    0.166331
    11  O   -0.542362
    12  C    0.122785
    13  C   -0.231517
    14  H    0.194095
    15  C   -0.178231
    16  H    0.121604
    17  C   -0.149777
    18  H    0.186779
    19  C   -0.125535
    20  H    0.151603
    21  C   -0.129622
    22  H    0.154392
    23  N   -0.577692
    24  H    0.361608
    25  C   -0.074818
    26  H    0.225201
    27  C    0.623905
    28  C   -0.487623
    29  H    0.218551
    30  H    0.151352
    31  H    0.159779
    32  O   -0.581251
    33  N   -0.647633
    34  H    0.431991
    35  C   -0.028457
    36  H    0.157354
    37  C    0.628205
    38  C   -0.440915
    39  H    0.147427
    40  H    0.180927
    41  H    0.153260
    42  O   -0.536292
    43  N   -0.632043
    44  H    0.342710
    45  C   -0.070750
    46  H    0.231728
    47  C    0.621499
    48  C   -0.363873
    49  H    0.157802
    50  H    0.191166
    51  O   -0.540136
    52  C    0.126755
    53  C   -0.180736
    54  H    0.149628
    55  C   -0.202516
    56  H    0.139515
    57  C   -0.161320
    58  H    0.144759
    59  C   -0.183984
    60  H    0.127809
    61  O   -0.647545
    62  H    0.413021
    63  C    0.347559
    64  N   -0.657569
    65  H    0.402573
    66  C   -0.072960
    67  H    0.184229
    68  C    0.657142
    69  C   -0.264238
    70  H    0.149838
    71  H    0.132795
    72  O   -0.615411
    73  C   -0.063425
    74  H    0.142817
    75  C   -0.444327
    76  H    0.134162
    77  H    0.146101
    78  H    0.148271
    79  C   -0.465574
    80  H    0.103048
    81  H    0.177032
    82  H    0.150541
    83  N   -0.634910
    84  H    0.426769
    85  C   -0.041838
    86  H    0.160872
    87  C    0.657195
    88  C   -0.293207
    89  H    0.174304
    90  H    0.134927
    91  O   -0.569398
    92  C   -0.363829
    93  H    0.158001
    94  H    0.157699
    95  C    0.620813
    96  O   -0.608090
    97  O   -0.600796
    98  N   -0.628447
    99  H    0.363736
   100  C   -0.000331
   101  H    0.197708
   102  C    0.565183
   103  C   -0.291930
   104  H    0.176227
   105  H    0.175461
   106  O   -0.455783
   107  C   -0.309397
   108  H    0.198108
   109  H    0.163142
   110  C   -0.154529
   111  H    0.166286
   112  H    0.171910
   113  N   -0.628213
   114  H    0.424401
   115  N   -0.759839
   116  H    0.366975
   117  H    0.373409
   118  N   -0.808777
   119  H    0.354067
   120  H    0.450187
   121  C    0.790435
   122  O   -0.560842
   123  H    0.428754
 Sum of Mulliken charges =   1.00000

 Dipole moment (field-independent basis, Debye):
    X=            -12.0660    Y=             -1.6963    Z=              2.5330  Tot=             12.4451
 Quadrupole moment (field-independent basis, Debye-Ang):
   XX=             67.9463   YY=           -315.0416   ZZ=           -264.0410
   XY=             24.5746   XZ=           -162.5135   YZ=              8.5669

 Normal termination of Gaussian 16 at Mon Aug  1 02:11:14 2022.
