 Gaussian 16, Revision C.01,
 Gaussian 16:  ES64L-G16RevC.01  3-Jul-2019

 -------------------------------------------------------------------
 # B3LYP/6-31G* guess=read geom=check nosymm integral(ultrafinegrid)
 -------------------------------------------------------------------

 ------------------------------------------------------
 Candidate Structure: Conf:586 Charge calc in gas phase
 ------------------------------------------------------
 Structure from the checkpoint file:  "conf-586.chk"
 Charge =  1 Multiplicity = 1

                          Input orientation:
 ---------------------------------------------------------------------
 Center     Atomic      Atomic             Coordinates (Angstroms)
 Number     Number       Type             X           Y           Z
 ---------------------------------------------------------------------
      1          7           0       -9.277710    5.279165    7.149435
      2          1           0      -10.034993    5.964533    7.108692
      3          1           0       -8.803514    5.341973    8.065560
      4          1           0       -9.633864    4.287938    7.019703
      5          6           0       -8.263465    5.406669    6.035512
      6          1           0       -8.756154    5.937243    5.214683
      7          6           0       -8.067841    3.924157    5.594479
      8          6           0       -7.014925    6.191738    6.500849
      9          1           0       -7.304484    7.242403    6.622442
     10          1           0       -6.285114    6.177929    5.684444
     11          8           0       -8.883987    3.091961    6.019123
     12          6           0       -6.408521    5.662535    7.785066
     13          6           0       -6.823691    6.184826    9.022719
     14          1           0       -7.502291    7.037524    9.052171
     15          6           0       -5.456622    4.631728    7.769005
     16          1           0       -5.096322    4.239408    6.821210
     17          6           0       -6.315848    5.672938   10.220710
     18          1           0       -6.636714    6.095593   11.168196
     19          6           0       -4.946132    4.128830    8.965613
     20          1           0       -4.199980    3.340141    8.940499
     21          6           0       -5.379886    4.639779   10.191946
     22          1           0       -4.976379    4.245061   11.119461
     23          7           0       -7.075368    3.672415    4.751371
     24          1           0       -6.330795    4.347266    4.563139
     25          6           0       -6.701817    2.331037    4.299157
     26          1           0       -6.862446    1.632312    5.128059
     27          6           0       -5.183519    2.441689    4.007277
     28          6           0       -7.527539    1.882715    3.084363
     29          1           0       -7.244946    0.873045    2.771288
     30          1           0       -7.376061    2.560276    2.238260
     31          1           0       -8.589874    1.869030    3.343618
     32          8           0       -4.613548    3.535450    4.135448
     33          7           0       -4.578035    1.313216    3.628895
     34          1           0       -5.084633    0.442674    3.466027
     35          6           0       -3.177942    1.226035    3.227334
     36          1           0       -2.950676    2.067631    2.562611
     37          6           0       -3.071848   -0.101424    2.442353
     38          6           0       -2.224043    1.261921    4.433099
     39          1           0       -1.180779    1.206022    4.106922
     40          1           0       -2.421212    0.419825    5.104439
     41          1           0       -2.361639    2.197679    4.981180
     42          8           0       -4.010465   -0.906756    2.453853
     43          7           0       -1.918634   -0.297417    1.787317
     44          1           0       -1.133675    0.348389    1.851492
     45          6           0       -1.595433   -1.532771    1.089732
     46          1           0       -1.895101   -2.379419    1.717252
     47          6           0       -0.063428   -1.511905    0.919560
     48          6           0       -2.336499   -1.646543   -0.281610
     49          1           0       -3.320075   -1.188976   -0.136527
     50          1           0       -1.802186   -1.049298   -1.028208
     51          8           0        0.584687   -0.499997    1.195494
     52          6           0       -2.518214   -3.070578   -0.766064
     53          6           0       -1.755441   -3.600295   -1.820127
     54          1           0       -0.994310   -2.985275   -2.294381
     55          6           0       -3.476533   -3.896939   -0.160921
     56          1           0       -4.083229   -3.502837    0.651945
     57          6           0       -1.942452   -4.911797   -2.254579
     58          1           0       -1.357164   -5.319717   -3.072707
     59          6           0       -3.671719   -5.208763   -0.587475
     60          1           0       -4.424016   -5.833115   -0.108269
     61          8           0       -3.046035   -6.996112   -2.107883
     62          1           0       -3.746442   -7.443530   -1.607924
     63          6           0       -2.903585   -5.720959   -1.640431
     64          7           0        0.498057   -2.650590    0.454255
     65          1           0       -0.121097   -3.350745    0.059806
     66          6           0        1.885136   -2.666003   -0.007224
     67          1           0        2.496256   -2.237848    0.791918
     68          6           0        2.011315   -1.803165   -1.284279
     69          6           0        2.292044   -4.127277   -0.283154
     70          1           0        2.037821   -4.717480    0.608406
     71          1           0        1.660992   -4.497398   -1.102781
     72          8           0        1.156290   -1.845177   -2.169286
     73          6           0        3.772792   -4.368060   -0.638437
     74          1           0        4.028823   -3.734748   -1.498846
     75          6           0        4.721699   -4.010462    0.516172
     76          1           0        4.485323   -4.597505    1.413372
     77          1           0        5.760695   -4.224490    0.242722
     78          1           0        4.674767   -2.950152    0.788861
     79          6           0        3.968256   -5.832126   -1.061858
     80          1           0        3.723925   -6.516434   -0.238968
     81          1           0        3.329251   -6.091837   -1.913876
     82          1           0        5.008042   -6.020260   -1.351743
     83          7           0        3.131848   -1.053832   -1.365073
     84          1           0        3.786178   -0.988134   -0.592108
     85          6           0        3.470896   -0.229616   -2.515254
     86          1           0        3.224851   -0.783804   -3.423764
     87          6           0        4.992330   -0.002128   -2.436072
     88          6           0        2.636998    1.091299   -2.511522
     89          1           0        1.628748    0.812445   -2.832462
     90          1           0        2.559733    1.418243   -1.468286
     91          8           0        5.594220   -0.004964   -1.364039
     92          6           0        3.148103    2.292165   -3.322910
     93          1           0        4.084878    2.675271   -2.900238
     94          1           0        2.431460    3.118508   -3.231138
     95          6           0        3.413236    2.072487   -4.802282
     96          8           0        3.837271    3.187944   -5.394576
     97          8           0        3.324656    0.991536   -5.372206
     98          7           0        5.566417    0.215013   -3.643074
     99          1           0        4.938803    0.210129   -4.441965
    100          6           0        6.915682    0.715408   -3.892413
    101          1           0        7.631101   -0.109932   -3.978996
    102          6           0        7.457269    1.607130   -2.776341
    103          6           0        6.820336    1.517111   -5.210738
    104          1           0        6.097691    2.319931   -5.043814
    105          1           0        6.381982    0.853679   -5.965986
    106          8           0        8.578935    1.528938   -2.334514
    107          6           0        8.096714    2.134622   -5.776406
    108          1           0        8.825734    1.358013   -6.047190
    109          1           0        8.589120    2.772544   -5.031364
    110          6           0        7.772935    3.005027   -7.005792
    111          1           0        8.683721    3.518295   -7.339403
    112          1           0        7.039355    3.772342   -6.744994
    113          7           0        7.228676    2.265395   -8.138024
    114          1           0        7.820025    1.552617   -8.543040
    115          7           0        4.953734    2.806394   -7.891624
    116          1           0        4.104935    2.812347   -8.456426
    117          1           0        4.237406    2.985862   -6.303450
    118          7           0        5.766412    1.559438   -9.754796
    119          1           0        4.827362    1.558055  -10.130701
    120          1           0        6.468490    1.737406  -10.463824
    121          6           0        5.923251    2.255464   -8.555296
    122          8           0        6.590917    2.588272   -2.423084
    123          1           0        7.033599    3.096983   -1.718143
 ---------------------------------------------------------------------

 SCF Done:  E(RB3LYP) =  -2974.03923705     A.U. after    1 cycles

 Alpha  occ. eigenvalues --  -19.26385 -19.23488 -19.22060 -19.21938 -19.20476
 Alpha  occ. eigenvalues --  -19.19310 -19.17734 -19.17591 -19.16690 -19.15925
 Alpha  occ. eigenvalues --  -19.15254 -14.58982 -14.48842 -14.45035 -14.42630
 Alpha  occ. eigenvalues --  -14.41128 -14.40605 -14.40411 -14.39953 -14.39724
 Alpha  occ. eigenvalues --  -14.34885 -10.43213 -10.40586 -10.38856 -10.36231
 Alpha  occ. eigenvalues --  -10.35866 -10.34979 -10.34638 -10.34505 -10.34487
 Alpha  occ. eigenvalues --  -10.34020 -10.32826 -10.32420 -10.31955 -10.31691
 Alpha  occ. eigenvalues --  -10.30811 -10.30049 -10.29991 -10.29745 -10.29597
 Alpha  occ. eigenvalues --  -10.29433 -10.29267 -10.28300 -10.28130 -10.27805
 Alpha  occ. eigenvalues --  -10.27031 -10.26955 -10.25848 -10.24381 -10.23614
 Alpha  occ. eigenvalues --  -10.23555 -10.23549 -10.23489 -10.23445 -10.23249
 Alpha  occ. eigenvalues --  -10.23242 -10.23069 -10.22919 -10.22876 -10.22624
 Alpha  occ. eigenvalues --  -10.21133 -10.20969  -1.18790  -1.14300  -1.13797
 Alpha  occ. eigenvalues --   -1.13045  -1.12172  -1.11108  -1.10118  -1.09527
 Alpha  occ. eigenvalues --   -1.07843  -1.06813  -1.05615  -1.05246  -1.03560
 Alpha  occ. eigenvalues --   -1.03373  -1.01691  -0.99330  -0.97785  -0.97280
 Alpha  occ. eigenvalues --   -0.97088  -0.96153  -0.94369  -0.92903  -0.89951
 Alpha  occ. eigenvalues --   -0.89742  -0.88696  -0.86315  -0.85709  -0.85490
 Alpha  occ. eigenvalues --   -0.84884  -0.84701  -0.83013  -0.82838  -0.79757
 Alpha  occ. eigenvalues --   -0.79735  -0.79304  -0.78963  -0.77540  -0.76734
 Alpha  occ. eigenvalues --   -0.75752  -0.74253  -0.73990  -0.72599  -0.72348
 Alpha  occ. eigenvalues --   -0.71961  -0.71632  -0.71000  -0.70342  -0.69709
 Alpha  occ. eigenvalues --   -0.69132  -0.68710  -0.67678  -0.66798  -0.66459
 Alpha  occ. eigenvalues --   -0.66233  -0.65327  -0.64968  -0.64246  -0.63740
 Alpha  occ. eigenvalues --   -0.63348  -0.62750  -0.62531  -0.61947  -0.61669
 Alpha  occ. eigenvalues --   -0.60802  -0.60237  -0.59855  -0.59819  -0.59037
 Alpha  occ. eigenvalues --   -0.58687  -0.58312  -0.57583  -0.57501  -0.57034
 Alpha  occ. eigenvalues --   -0.56720  -0.56480  -0.56020  -0.55297  -0.54947
 Alpha  occ. eigenvalues --   -0.54490  -0.53579  -0.53446  -0.53017  -0.52976
 Alpha  occ. eigenvalues --   -0.52896  -0.52549  -0.52465  -0.51989  -0.51815
 Alpha  occ. eigenvalues --   -0.51662  -0.51616  -0.51318  -0.51294  -0.51180
 Alpha  occ. eigenvalues --   -0.51086  -0.50730  -0.50587  -0.50134  -0.49895
 Alpha  occ. eigenvalues --   -0.49515  -0.49058  -0.48802  -0.48658  -0.48567
 Alpha  occ. eigenvalues --   -0.48190  -0.47960  -0.47870  -0.47193  -0.47137
 Alpha  occ. eigenvalues --   -0.47098  -0.46900  -0.46802  -0.46497  -0.46379
 Alpha  occ. eigenvalues --   -0.46105  -0.45575  -0.45432  -0.45251  -0.45077
 Alpha  occ. eigenvalues --   -0.44903  -0.44830  -0.44784  -0.44655  -0.44100
 Alpha  occ. eigenvalues --   -0.43818  -0.43381  -0.43020  -0.42867  -0.42448
 Alpha  occ. eigenvalues --   -0.42140  -0.42064  -0.41768  -0.41384  -0.41026
 Alpha  occ. eigenvalues --   -0.40953  -0.40783  -0.40480  -0.40016  -0.39790
 Alpha  occ. eigenvalues --   -0.39598  -0.39514  -0.38933  -0.38815  -0.38417
 Alpha  occ. eigenvalues --   -0.37939  -0.37759  -0.37068  -0.36957  -0.36451
 Alpha  occ. eigenvalues --   -0.36384  -0.36319  -0.36059  -0.35907  -0.35450
 Alpha  occ. eigenvalues --   -0.35074  -0.34136  -0.33410  -0.33397  -0.32837
 Alpha  occ. eigenvalues --   -0.31791  -0.31318  -0.31297  -0.31187  -0.30360
 Alpha  occ. eigenvalues --   -0.29896  -0.29767  -0.29560  -0.28691  -0.28505
 Alpha  occ. eigenvalues --   -0.28089  -0.26102
 Alpha virt. eigenvalues --   -0.12553  -0.12065  -0.11911  -0.08473  -0.07538
 Alpha virt. eigenvalues --   -0.05318  -0.04657  -0.04065  -0.03655  -0.03261
 Alpha virt. eigenvalues --   -0.02953  -0.02894  -0.02620  -0.01967  -0.01452

 Mulliken charges:
               1
     1  N   -0.757346
     2  H    0.409617
     3  H    0.403971
     4  H    0.433345
     5  C   -0.112451
     6  H    0.227812
     7  C    0.656527
     8  C   -0.393920
     9  H    0.188788
    10  H    0.209890
    11  O   -0.541432
    12  C    0.139217
    13  C   -0.235111
    14  H    0.141032
    15  C   -0.184355
    16  H    0.165781
    17  C   -0.118719
    18  H    0.164990
    19  C   -0.125276
    20  H    0.165647
    21  C   -0.121315
    22  H    0.167831
    23  N   -0.608869
    24  H    0.377533
    25  C   -0.062904
    26  H    0.201411
    27  C    0.635077
    28  C   -0.454297
    29  H    0.182187
    30  H    0.172456
    31  H    0.184576
    32  O   -0.557945
    33  N   -0.620495
    34  H    0.369082
    35  C   -0.043695
    36  H    0.186974
    37  C    0.625886
    38  C   -0.454085
    39  H    0.173142
    40  H    0.164299
    41  H    0.178459
    42  O   -0.553099
    43  N   -0.626908
    44  H    0.362697
    45  C   -0.045374
    46  H    0.185294
    47  C    0.623776
    48  C   -0.357106
    49  H    0.174322
    50  H    0.175541
    51  O   -0.548032
    52  C    0.116300
    53  C   -0.233674
    54  H    0.194920
    55  C   -0.190643
    56  H    0.146998
    57  C   -0.165972
    58  H    0.150709
    59  C   -0.193051
    60  H    0.123555
    61  O   -0.636629
    62  H    0.409922
    63  C    0.353564
    64  N   -0.612756
    65  H    0.354870
    66  C   -0.046571
    67  H    0.167002
    68  C    0.637587
    69  C   -0.290330
    70  H    0.146324
    71  H    0.154705
    72  O   -0.545964
    73  C   -0.082888
    74  H    0.141423
    75  C   -0.449203
    76  H    0.141623
    77  H    0.156129
    78  H    0.142670
    79  C   -0.444526
    80  H    0.141896
    81  H    0.146943
    82  H    0.149526
    83  N   -0.616075
    84  H    0.356953
    85  C   -0.046444
    86  H    0.194512
    87  C    0.613120
    88  C   -0.257233
    89  H    0.178121
    90  H    0.153078
    91  O   -0.543106
    92  C   -0.385739
    93  H    0.205176
    94  H    0.173916
    95  C    0.588285
    96  O   -0.607786
    97  O   -0.509278
    98  N   -0.662733
    99  H    0.378581
   100  C    0.030281
   101  H    0.176885
   102  C    0.597957
   103  C   -0.335319
   104  H    0.181878
   105  H    0.166246
   106  O   -0.464250
   107  C   -0.275569
   108  H    0.141082
   109  H    0.160569
   110  C   -0.138268
   111  H    0.155125
   112  H    0.189585
   113  N   -0.596674
   114  H    0.329662
   115  N   -0.713005
   116  H    0.292288
   117  H    0.465455
   118  N   -0.758865
   119  H    0.334689
   120  H    0.333134
   121  C    0.656630
   122  O   -0.567155
   123  H    0.415409
 Sum of Mulliken charges =   1.00000

 Dipole moment (field-independent basis, Debye):
    X=            -28.0620    Y=             20.2392    Z=             19.1709  Tot=             39.5553
 Quadrupole moment (field-independent basis, Debye-Ang):
   XX=            -45.3544   YY=           -218.0008   ZZ=            -46.3757
   XY=           -158.6141   XZ=           -298.1973   YZ=            124.1796

 Normal termination of Gaussian 16 at Mon Aug  1 02:10:10 2022.
