 Gaussian 16, Revision C.01,
 Gaussian 16:  ES64L-G16RevC.01  3-Jul-2019

 -------------------------------------------------------------------
 # B3LYP/6-31G* guess=read geom=check nosymm integral(ultrafinegrid)
 -------------------------------------------------------------------

 -----------------------------------------------------
 Candidate Structure: Conf:34 Charge calc in gas phase
 -----------------------------------------------------
 Structure from the checkpoint file:  "conf-34.chk"
 Charge =  1 Multiplicity = 1

                          Input orientation:
 ---------------------------------------------------------------------
 Center     Atomic      Atomic             Coordinates (Angstroms)
 Number     Number       Type             X           Y           Z
 ---------------------------------------------------------------------
      1          7           0       -9.198910    2.778444    5.776439
      2          1           0      -10.076698    3.177825    5.441044
      3          1           0       -9.298804    2.500437    6.750003
      4          1           0       -8.996550    1.959447    5.195267
      5          6           0       -8.071310    3.706448    5.574311
      6          1           0       -8.399645    4.739464    5.727670
      7          6           0       -7.602329    3.526735    4.130623
      8          6           0       -6.926645    3.422286    6.556819
      9          1           0       -6.541083    2.414870    6.367569
     10          1           0       -7.354695    3.430179    7.563692
     11          8           0       -7.860548    2.499168    3.510779
     12          6           0       -5.819345    4.435386    6.447424
     13          6           0       -4.618439    4.117425    5.814651
     14          1           0       -4.464933    3.104404    5.437482
     15          6           0       -6.008035    5.736910    6.899774
     16          1           0       -6.948638    5.987662    7.383282
     17          6           0       -3.639925    5.087624    5.609112
     18          1           0       -2.729976    4.816883    5.085729
     19          6           0       -5.029092    6.704727    6.711760
     20          1           0       -5.200720    7.713217    7.069720
     21          6           0       -3.840941    6.386570    6.059878
     22          1           0       -3.079615    7.141738    5.909321
     23          7           0       -6.896515    4.548413    3.597765
     24          1           0       -6.530838    5.249476    4.225573
     25          6           0       -6.208419    4.404880    2.319991
     26          1           0       -6.866201    3.796355    1.693719
     27          6           0       -4.888941    3.652408    2.540476
     28          6           0       -5.978871    5.773815    1.708868
     29          1           0       -5.468786    5.684651    0.747930
     30          1           0       -5.358603    6.381746    2.371408
     31          1           0       -6.939204    6.271137    1.560772
     32          8           0       -3.792797    4.203692    2.504892
     33          7           0       -5.027791    2.342997    2.874892
     34          1           0       -5.928089    1.892267    2.770060
     35          6           0       -3.874948    1.482746    3.026248
     36          1           0       -3.025940    2.129489    3.255337
     37          6           0       -3.631188    0.754974    1.700173
     38          6           0       -4.109293    0.456720    4.126226
     39          1           0       -3.207375   -0.134712    4.293837
     40          1           0       -4.919432   -0.214723    3.838450
     41          1           0       -4.384553    0.947578    5.065250
     42          8           0       -4.545230    0.213704    1.090556
     43          7           0       -2.349142    0.699893    1.275708
     44          1           0       -1.576631    1.063206    1.812610
     45          6           0       -2.028356   -0.053974    0.087464
     46          1           0       -2.607577   -0.982908    0.104799
     47          6           0       -0.540576   -0.374116    0.137983
     48          6           0       -2.422584    0.709763   -1.190408
     49          1           0       -3.438741    1.073292   -1.026456
     50          1           0       -1.784806    1.584386   -1.317958
     51          8           0        0.232707    0.306475    0.802131
     52          6           0       -2.374519   -0.183425   -2.394622
     53          6           0       -1.378560   -0.065974   -3.364160
     54          1           0       -0.642987    0.733624   -3.285577
     55          6           0       -3.298789   -1.217815   -2.518525
     56          1           0       -4.069366   -1.308322   -1.756953
     57          6           0       -1.279450   -0.981362   -4.406995
     58          1           0       -0.490079   -0.905386   -5.143096
     59          6           0       -3.225609   -2.126324   -3.567456
     60          1           0       -3.953060   -2.926683   -3.640968
     61          8           0       -2.065046   -2.872427   -5.562875
     62          1           0       -2.763076   -3.531038   -5.520720
     63          6           0       -2.206220   -2.009071   -4.512827
     64          7           0       -0.143116   -1.429723   -0.607826
     65          1           0       -0.777221   -1.769282   -1.319394
     66          6           0        1.267859   -1.779506   -0.765309
     67          1           0        1.733319   -1.539272    0.191936
     68          6           0        1.893967   -0.887315   -1.840995
     69          6           0        1.426981   -3.252195   -1.107217
     70          1           0        0.788689   -3.462608   -1.970063
     71          1           0        2.452125   -3.434499   -1.430596
     72          8           0        2.247004   -1.308176   -2.945124
     73          6           0        1.093078   -4.204380    0.040585
     74          1           0        0.115593   -3.927904    0.445508
     75          6           0        1.002154   -5.633180   -0.490198
     76          1           0        1.958463   -5.939468   -0.923313
     77          1           0        0.754117   -6.336240    0.308685
     78          1           0        0.236283   -5.721897   -1.263983
     79          6           0        2.130078   -4.121361    1.157354
     80          1           0        3.107465   -4.442054    0.785537
     81          1           0        2.237559   -3.106492    1.547370
     82          1           0        1.855403   -4.772746    1.990620
     83          7           0        2.018178    0.421765   -1.517669
     84          1           0        1.634917    0.727177   -0.628147
     85          6           0        2.102889    1.411182   -2.585089
     86          1           0        1.746448    0.903081   -3.494300
     87          6           0        3.563874    1.796955   -2.805449
     88          6           0        1.203038    2.598372   -2.272212
     89          1           0        0.311559    2.196857   -1.780564
     90          1           0        1.706960    3.246056   -1.551274
     91          8           0        3.994833    2.927875   -2.633409
     92          6           0        0.744039    3.373018   -3.494718
     93          1           0        0.500192    2.689282   -4.317126
     94          1           0        1.493585    4.069055   -3.862740
     95          6           0       -0.589421    4.146879   -3.224686
     96          8           0       -0.801437    5.084016   -4.004175
     97          8           0       -1.312543    3.697393   -2.315972
     98          7           0        4.356655    0.756802   -3.177190
     99          1           0        3.924385   -0.134028   -3.385990
    100          6           0        5.717121    1.002927   -3.578436
    101          1           0        5.964311    1.996731   -3.186316
    102          6           0        5.881259    1.134713   -5.085969
    103          6           0        6.699929   -0.022750   -3.012650
    104          1           0        7.664309    0.137959   -3.492732
    105          1           0        6.368581   -1.026327   -3.294049
    106          8           0        6.933491    1.016056   -5.659841
    107          6           0        6.827493    0.099894   -1.502976
    108          1           0        5.850189    0.002441   -1.025530
    109          1           0        7.202820    1.095099   -1.262346
    110          6           0        7.754355   -0.939255   -0.887546
    111          1           0        7.355223   -1.941198   -1.060446
    112          1           0        7.803114   -0.814137    0.198365
    113          7           0        9.126227   -0.956168   -1.432530
    114          1           0        9.229715   -1.466971   -2.297605
    115          7           0        9.695287    1.070832   -0.430390
    116          1           0       10.433777    1.686765   -0.130792
    117          1           0        8.959038    0.918245    0.238986
    118          7           0       11.101532    0.106054   -2.041799
    119          1           0       11.835875    0.735363   -1.753221
    120          1           0       11.424817   -0.767786   -2.435085
    121          6           0        9.978217    0.067006   -1.283093
    122          8           0        4.737309    1.458470   -5.718871
    123          1           0        4.968219    1.562003   -6.651015
 ---------------------------------------------------------------------

 SCF Done:  E(RB3LYP) =  -2973.88848535     A.U. after    3 cycles

 Alpha  occ. eigenvalues --  -19.26103 -19.23839 -19.19997 -19.18631 -19.18287
 Alpha  occ. eigenvalues --  -19.17009 -19.15778 -19.15424 -19.13887 -19.00534
 Alpha  occ. eigenvalues --  -19.00170 -14.62801 -14.52040 -14.51761 -14.51616
 Alpha  occ. eigenvalues --  -14.48359 -14.42423 -14.40821 -14.40026 -14.38604
 Alpha  occ. eigenvalues --  -14.38248 -10.47433 -10.42827 -10.41046 -10.36525
 Alpha  occ. eigenvalues --  -10.35487 -10.34857 -10.34330 -10.33494 -10.32901
 Alpha  occ. eigenvalues --  -10.31886 -10.31816 -10.30580 -10.30528 -10.29259
 Alpha  occ. eigenvalues --  -10.29245 -10.28709 -10.28623 -10.28576 -10.28119
 Alpha  occ. eigenvalues --  -10.28075 -10.27956 -10.27411 -10.26936 -10.26606
 Alpha  occ. eigenvalues --  -10.26560 -10.25539 -10.24837 -10.23571 -10.23020
 Alpha  occ. eigenvalues --  -10.22421 -10.21940 -10.21338 -10.21295 -10.21110
 Alpha  occ. eigenvalues --  -10.20598 -10.20469 -10.20189 -10.19653 -10.18697
 Alpha  occ. eigenvalues --  -10.15985 -10.12803  -1.19936  -1.16598  -1.16571
 Alpha  occ. eigenvalues --   -1.15455  -1.10437  -1.09530  -1.08333  -1.08075
 Alpha  occ. eigenvalues --   -1.07318  -1.06481  -1.06013  -1.05827  -1.05227
 Alpha  occ. eigenvalues --   -1.05104  -0.99158  -0.97791  -0.97318  -0.96723
 Alpha  occ. eigenvalues --   -0.96461  -0.94984  -0.94293  -0.93571  -0.89743
 Alpha  occ. eigenvalues --   -0.87884  -0.87311  -0.86032  -0.85601  -0.85363
 Alpha  occ. eigenvalues --   -0.84289  -0.83846  -0.83716  -0.81744  -0.80424
 Alpha  occ. eigenvalues --   -0.79969  -0.79212  -0.77662  -0.76933  -0.76591
 Alpha  occ. eigenvalues --   -0.76056  -0.75789  -0.75497  -0.74136  -0.74093
 Alpha  occ. eigenvalues --   -0.72879  -0.72392  -0.71418  -0.70686  -0.70636
 Alpha  occ. eigenvalues --   -0.70464  -0.68919  -0.68532  -0.68280  -0.67948
 Alpha  occ. eigenvalues --   -0.66939  -0.65285  -0.65106  -0.64703  -0.64449
 Alpha  occ. eigenvalues --   -0.64349  -0.64099  -0.63495  -0.63050  -0.62643
 Alpha  occ. eigenvalues --   -0.61749  -0.61248  -0.61092  -0.60670  -0.60197
 Alpha  occ. eigenvalues --   -0.60101  -0.58985  -0.58585  -0.58130  -0.57748
 Alpha  occ. eigenvalues --   -0.57672  -0.57254  -0.56523  -0.55689  -0.55585
 Alpha  occ. eigenvalues --   -0.55242  -0.54818  -0.54407  -0.53710  -0.53544
 Alpha  occ. eigenvalues --   -0.53320  -0.53028  -0.52491  -0.52272  -0.51832
 Alpha  occ. eigenvalues --   -0.51742  -0.51567  -0.51177  -0.50940  -0.50525
 Alpha  occ. eigenvalues --   -0.50430  -0.50210  -0.49816  -0.49509  -0.49246
 Alpha  occ. eigenvalues --   -0.48533  -0.48382  -0.47677  -0.47435  -0.47268
 Alpha  occ. eigenvalues --   -0.46883  -0.46698  -0.46304  -0.46047  -0.45659
 Alpha  occ. eigenvalues --   -0.45542  -0.45282  -0.45142  -0.44748  -0.44661
 Alpha  occ. eigenvalues --   -0.44484  -0.44325  -0.44144  -0.44090  -0.44029
 Alpha  occ. eigenvalues --   -0.43653  -0.43446  -0.43424  -0.42953  -0.42940
 Alpha  occ. eigenvalues --   -0.42891  -0.42616  -0.42455  -0.42160  -0.41992
 Alpha  occ. eigenvalues --   -0.41792  -0.41334  -0.41149  -0.40750  -0.40570
 Alpha  occ. eigenvalues --   -0.40463  -0.40144  -0.40045  -0.38691  -0.38655
 Alpha  occ. eigenvalues --   -0.38131  -0.37760  -0.37281  -0.36971  -0.36806
 Alpha  occ. eigenvalues --   -0.36634  -0.36328  -0.35716  -0.34962  -0.34880
 Alpha  occ. eigenvalues --   -0.34691  -0.34607  -0.33596  -0.33316  -0.32875
 Alpha  occ. eigenvalues --   -0.32463  -0.31881  -0.31756  -0.30877  -0.30564
 Alpha  occ. eigenvalues --   -0.29690  -0.29497  -0.29344  -0.28472  -0.28071
 Alpha  occ. eigenvalues --   -0.27915  -0.27272  -0.26280  -0.23894  -0.16363
 Alpha  occ. eigenvalues --   -0.15309  -0.14110
 Alpha virt. eigenvalues --   -0.13203  -0.12922  -0.11972  -0.10998  -0.09996
 Alpha virt. eigenvalues --   -0.08541  -0.07122  -0.05285  -0.04785  -0.04589
 Alpha virt. eigenvalues --   -0.03828  -0.03597  -0.03533  -0.02905  -0.02895

 Mulliken charges:
               1
     1  N   -0.719917
     2  H    0.432440
     3  H    0.421621
     4  H    0.426687
     5  C   -0.145925
     6  H    0.222305
     7  C    0.644996
     8  C   -0.379671
     9  H    0.191437
    10  H    0.176355
    11  O   -0.534479
    12  C    0.131883
    13  C   -0.190581
    14  H    0.166140
    15  C   -0.198436
    16  H    0.125805
    17  C   -0.116603
    18  H    0.183377
    19  C   -0.128037
    20  H    0.160846
    21  C   -0.127280
    22  H    0.171230
    23  N   -0.572823
    24  H    0.362229
    25  C   -0.093092
    26  H    0.203791
    27  C    0.638993
    28  C   -0.457024
    29  H    0.218877
    30  H    0.169683
    31  H    0.154656
    32  O   -0.504375
    33  N   -0.611926
    34  H    0.359850
    35  C   -0.062208
    36  H    0.177828
    37  C    0.642408
    38  C   -0.471649
    39  H    0.173112
    40  H    0.170956
    41  H    0.137605
    42  O   -0.545365
    43  N   -0.608347
    44  H    0.349821
    45  C   -0.035490
    46  H    0.166671
    47  C    0.614857
    48  C   -0.394916
    49  H    0.181804
    50  H    0.255510
    51  O   -0.559331
    52  C    0.125476
    53  C   -0.200110
    54  H    0.181194
    55  C   -0.206024
    56  H    0.143727
    57  C   -0.164348
    58  H    0.149255
    59  C   -0.198330
    60  H    0.114978
    61  O   -0.640493
    62  H    0.405082
    63  C    0.344077
    64  N   -0.595596
    65  H    0.357057
    66  C   -0.082288
    67  H    0.172959
    68  C    0.614063
    69  C   -0.260839
    70  H    0.155937
    71  H    0.142636
    72  O   -0.553803
    73  C   -0.074638
    74  H    0.131644
    75  C   -0.441982
    76  H    0.138778
    77  H    0.142265
    78  H    0.147053
    79  C   -0.449594
    80  H    0.131593
    81  H    0.143153
    82  H    0.147033
    83  N   -0.618109
    84  H    0.372758
    85  C   -0.088080
    86  H    0.176668
    87  C    0.635661
    88  C   -0.277929
    89  H    0.155515
    90  H    0.142771
    91  O   -0.516966
    92  C   -0.372994
    93  H    0.114086
    94  H    0.143245
    95  C    0.553364
    96  O   -0.578221
    97  O   -0.606105
    98  N   -0.619385
    99  H    0.361249
   100  C   -0.061871
   101  H    0.212025
   102  C    0.595027
   103  C   -0.282228
   104  H    0.154805
   105  H    0.148794
   106  O   -0.475623
   107  C   -0.277320
   108  H    0.194752
   109  H    0.157058
   110  C   -0.208363
   111  H    0.199246
   112  H    0.175932
   113  N   -0.563810
   114  H    0.370074
   115  N   -0.720227
   116  H    0.376152
   117  H    0.387622
   118  N   -0.728634
   119  H    0.372891
   120  H    0.378878
   121  C    0.743153
   122  O   -0.542496
   123  H    0.420421
 Sum of Mulliken charges =   1.00000

 Dipole moment (field-independent basis, Debye):
    X=              2.5429    Y=             -2.3945    Z=             33.9433  Tot=             34.1225
 Quadrupole moment (field-independent basis, Debye-Ang):
   XX=            344.9424   YY=           -351.7208   ZZ=           -232.6881
   XY=           -114.0805   XZ=           -257.6388   YZ=            158.1796

 Normal termination of Gaussian 16 at Mon Aug  1 02:11:40 2022.
