 Gaussian 16, Revision C.01,
 Gaussian 16:  ES64L-G16RevC.01  3-Jul-2019

 -------------------------------------------------------------------
 # B3LYP/6-31G* guess=read geom=check nosymm integral(ultrafinegrid)
 -------------------------------------------------------------------

 ------------------------------------------------------
 Candidate Structure: Conf:549 Charge calc in gas phase
 ------------------------------------------------------
 Structure from the checkpoint file:  "conf-549.chk"
 Charge =  1 Multiplicity = 1

                          Input orientation:
 ---------------------------------------------------------------------
 Center     Atomic      Atomic             Coordinates (Angstroms)
 Number     Number       Type             X           Y           Z
 ---------------------------------------------------------------------
      1          7           0       -9.350197    4.076065    6.965278
      2          1           0      -10.362475    3.976227    6.872192
      3          1           0       -9.138855    4.681974    7.754991
      4          1           0       -8.965317    3.141713    7.130956
      5          6           0       -8.735698    4.562477    5.716858
      6          1           0       -9.371968    5.321094    5.250878
      7          6           0       -8.601031    3.363258    4.782470
      8          6           0       -7.360841    5.189068    5.978068
      9          1           0       -6.720122    4.434100    6.441228
     10          1           0       -7.503275    5.995415    6.703400
     11          8           0       -8.532138    2.222426    5.230183
     12          6           0       -6.725291    5.709914    4.717415
     13          6           0       -5.686992    5.008479    4.106101
     14          1           0       -5.317296    4.098479    4.565666
     15          6           0       -7.212321    6.859894    4.102151
     16          1           0       -8.032455    7.394902    4.574560
     17          6           0       -5.147021    5.455409    2.902870
     18          1           0       -4.332973    4.900569    2.447376
     19          6           0       -6.687052    7.296460    2.889118
     20          1           0       -7.093716    8.184201    2.420177
     21          6           0       -5.647959    6.594751    2.284161
     22          1           0       -5.231110    6.932974    1.343790
     23          7           0       -8.556562    3.642421    3.460865
     24          1           0       -8.364695    4.593852    3.185111
     25          6           0       -8.272763    2.607151    2.474707
     26          1           0       -8.814748    1.717292    2.803911
     27          6           0       -6.773040    2.300446    2.462983
     28          6           0       -8.748052    3.064184    1.110083
     29          1           0       -8.543679    2.297460    0.360887
     30          1           0       -8.225434    3.977407    0.819403
     31          1           0       -9.822086    3.257906    1.142362
     32          8           0       -6.026988    2.763887    1.605845
     33          7           0       -6.314575    1.527855    3.470816
     34          1           0       -6.949765    1.262021    4.212756
     35          6           0       -4.908074    1.217777    3.600569
     36          1           0       -4.346945    2.159919    3.545627
     37          6           0       -4.438079    0.334527    2.434801
     38          6           0       -4.653370    0.518820    4.927179
     39          1           0       -3.592480    0.295627    5.058703
     40          1           0       -5.212001   -0.417704    4.954524
     41          1           0       -4.980045    1.151190    5.754520
     42          8           0       -5.120219   -0.547874    1.949819
     43          7           0       -3.174969    0.599212    2.010748
     44          1           0       -2.521401    1.137649    2.558974
     45          6           0       -2.571696   -0.133667    0.923523
     46          1           0       -2.786836   -1.199460    1.051978
     47          6           0       -1.060583    0.099661    1.044050
     48          6           0       -3.135529    0.283844   -0.449698
     49          1           0       -2.818985   -0.467518   -1.177630
     50          1           0       -4.222242    0.222503   -0.359261
     51          8           0       -0.576303    0.796662    1.921424
     52          6           0       -2.716561    1.651734   -0.912837
     53          6           0       -3.292642    2.810211   -0.382194
     54          1           0       -4.078376    2.719175    0.359566
     55          6           0       -1.722146    1.810009   -1.882590
     56          1           0       -1.264625    0.933365   -2.335426
     57          6           0       -2.887691    4.088883   -0.777228
     58          1           0       -3.344751    4.968236   -0.339602
     59          6           0       -1.312385    3.077316   -2.282154
     60          1           0       -0.538624    3.198873   -3.020946
     61          8           0       -1.475639    5.458786   -2.110217
     62          1           0       -0.748290    5.354799   -2.738545
     63          6           0       -1.883288    4.222225   -1.729542
     64          7           0       -0.300342   -0.494737    0.098630
     65          1           0       -0.693325   -1.133461   -0.573938
     66          6           0        1.137528   -0.307071    0.080957
     67          1           0        1.334064    0.709685    0.433010
     68          6           0        1.591705   -0.477772   -1.352247
     69          6           0        1.846789   -1.304767    1.001076
     70          1           0        1.418966   -1.188934    1.997409
     71          1           0        1.597750   -2.313337    0.660799
     72          8           0        1.283610   -1.485952   -1.992815
     73          6           0        3.368197   -1.162895    1.092039
     74          1           0        3.790272   -1.276121    0.086030
     75          6           0        3.777642    0.197881    1.644694
     76          1           0        3.305317    0.361603    2.617338
     77          1           0        4.859949    0.250875    1.782620
     78          1           0        3.489328    1.019723    0.984666
     79          6           0        3.921962   -2.283821    1.963352
     80          1           0        3.583031   -2.161853    2.993479
     81          1           0        3.584475   -3.261959    1.616486
     82          1           0        5.014847   -2.278938    1.961204
     83          7           0        2.367314    0.498715   -1.860195
     84          1           0        2.644084    1.262810   -1.262852
     85          6           0        2.999402    0.415516   -3.173001
     86          1           0        2.296613   -0.122729   -3.817568
     87          6           0        4.289304   -0.412902   -3.079703
     88          6           0        3.267751    1.818619   -3.706859
     89          1           0        3.791091    2.388182   -2.936783
     90          1           0        3.959208    1.759487   -4.548474
     91          8           0        5.397550    0.036430   -3.334695
     92          6           0        1.966756    2.514692   -4.103185
     93          1           0        1.131874    2.124399   -3.517478
     94          1           0        1.720874    2.323070   -5.151955
     95          6           0        2.018440    4.053981   -3.924247
     96          8           0        0.878633    4.597157   -3.923511
     97          8           0        3.103266    4.631593   -3.858428
     98          7           0        4.106873   -1.689509   -2.645026
     99          1           0        3.157875   -2.031039   -2.534407
    100          6           0        5.200843   -2.628196   -2.674486
    101          1           0        6.111029   -2.021438   -2.653042
    102          6           0        5.287719   -3.419795   -3.972323
    103          6           0        5.190806   -3.561615   -1.463561
    104          1           0        5.240385   -2.944453   -0.556778
    105          1           0        6.111456   -4.148453   -1.505171
    106          8           0        5.872145   -4.469113   -4.073018
    107          6           0        3.987720   -4.489442   -1.391419
    108          1           0        3.861683   -4.997253   -2.351488
    109          1           0        3.078656   -3.914791   -1.206526
    110          6           0        4.149394   -5.545328   -0.311387
    111          1           0        4.241106   -5.081009    0.674418
    112          1           0        5.073367   -6.101246   -0.495269
    113          7           0        3.009220   -6.480146   -0.347046
    114          1           0        2.128669   -6.067391   -0.614930
    115          7           0        3.902965   -7.813086    1.356301
    116          1           0        3.929947   -8.730671    1.769811
    117          1           0        4.794065   -7.369430    1.213242
    118          7           0        1.732601   -8.192388    0.546225
    119          1           0        1.734221   -9.079972    1.024010
    120          1           0        1.166896   -8.169928   -0.291079
    121          6           0        2.899748   -7.506270    0.512205
    122          8           0        4.683758   -2.815243   -5.010814
    123          1           0        4.837214   -3.380865   -5.778589
 ---------------------------------------------------------------------

 SCF Done:  E(RB3LYP) =  -2973.89825554     A.U. after    3 cycles

 Alpha  occ. eigenvalues --  -19.27373 -19.25173 -19.19769 -19.19369 -19.17354
 Alpha  occ. eigenvalues --  -19.16878 -19.16345 -19.14957 -19.14699 -19.01626
 Alpha  occ. eigenvalues --  -19.01518 -14.63892 -14.53622 -14.53069 -14.52737
 Alpha  occ. eigenvalues --  -14.49552 -14.43759 -14.41292 -14.41017 -14.39975
 Alpha  occ. eigenvalues --  -14.39775 -10.48991 -10.43995 -10.41876 -10.37648
 Alpha  occ. eigenvalues --  -10.36443 -10.35636 -10.34863 -10.33963 -10.33660
 Alpha  occ. eigenvalues --  -10.33518 -10.33138 -10.31745 -10.30815 -10.30483
 Alpha  occ. eigenvalues --  -10.29515 -10.29405 -10.29182 -10.28843 -10.28619
 Alpha  occ. eigenvalues --  -10.28276 -10.27970 -10.27910 -10.27493 -10.27114
 Alpha  occ. eigenvalues --  -10.26520 -10.26384 -10.25428 -10.24814 -10.24338
 Alpha  occ. eigenvalues --  -10.24124 -10.23542 -10.22570 -10.21886 -10.20067
 Alpha  occ. eigenvalues --  -10.18982 -10.18762 -10.18641 -10.18165 -10.17242
 Alpha  occ. eigenvalues --  -10.16429 -10.14374  -1.21000  -1.17934  -1.17783
 Alpha  occ. eigenvalues --   -1.16735  -1.11721  -1.09922  -1.09300  -1.08595
 Alpha  occ. eigenvalues --   -1.07699  -1.07124  -1.07079  -1.06665  -1.06280
 Alpha  occ. eigenvalues --   -1.03396  -1.00449  -0.98040  -0.97834  -0.97765
 Alpha  occ. eigenvalues --   -0.97158  -0.97064  -0.95493  -0.94043  -0.90904
 Alpha  occ. eigenvalues --   -0.88301  -0.87791  -0.86336  -0.86150  -0.85563
 Alpha  occ. eigenvalues --   -0.84617  -0.84576  -0.84383  -0.82456  -0.80994
 Alpha  occ. eigenvalues --   -0.80729  -0.79887  -0.78632  -0.77640  -0.77376
 Alpha  occ. eigenvalues --   -0.76263  -0.75444  -0.75169  -0.75000  -0.74630
 Alpha  occ. eigenvalues --   -0.73984  -0.73442  -0.72273  -0.71842  -0.71427
 Alpha  occ. eigenvalues --   -0.70857  -0.70444  -0.70141  -0.69086  -0.68431
 Alpha  occ. eigenvalues --   -0.67636  -0.66429  -0.66279  -0.65909  -0.65431
 Alpha  occ. eigenvalues --   -0.64697  -0.64380  -0.64137  -0.63235  -0.62635
 Alpha  occ. eigenvalues --   -0.62354  -0.62072  -0.61741  -0.61398  -0.61267
 Alpha  occ. eigenvalues --   -0.60627  -0.59706  -0.59655  -0.59182  -0.58998
 Alpha  occ. eigenvalues --   -0.58585  -0.58305  -0.57276  -0.56711  -0.56298
 Alpha  occ. eigenvalues --   -0.55736  -0.55541  -0.54620  -0.54326  -0.54047
 Alpha  occ. eigenvalues --   -0.53855  -0.53413  -0.53232  -0.52617  -0.52277
 Alpha  occ. eigenvalues --   -0.51961  -0.51827  -0.51698  -0.51578  -0.51095
 Alpha  occ. eigenvalues --   -0.50995  -0.50581  -0.50296  -0.50211  -0.49958
 Alpha  occ. eigenvalues --   -0.49582  -0.48940  -0.48656  -0.48417  -0.48010
 Alpha  occ. eigenvalues --   -0.47693  -0.47464  -0.47422  -0.46863  -0.46495
 Alpha  occ. eigenvalues --   -0.46319  -0.45928  -0.45801  -0.45535  -0.45501
 Alpha  occ. eigenvalues --   -0.45205  -0.45159  -0.44990  -0.44815  -0.44474
 Alpha  occ. eigenvalues --   -0.44470  -0.44201  -0.43761  -0.43580  -0.43433
 Alpha  occ. eigenvalues --   -0.43324  -0.43115  -0.42726  -0.42570  -0.42325
 Alpha  occ. eigenvalues --   -0.42189  -0.41868  -0.41821  -0.41738  -0.41422
 Alpha  occ. eigenvalues --   -0.41217  -0.40630  -0.40426  -0.39828  -0.39167
 Alpha  occ. eigenvalues --   -0.38956  -0.38680  -0.38629  -0.38438  -0.37575
 Alpha  occ. eigenvalues --   -0.36973  -0.35855  -0.35138  -0.35035  -0.34864
 Alpha  occ. eigenvalues --   -0.34738  -0.34526  -0.33773  -0.33669  -0.32976
 Alpha  occ. eigenvalues --   -0.32524  -0.32411  -0.32349  -0.31685  -0.30946
 Alpha  occ. eigenvalues --   -0.30616  -0.30447  -0.29974  -0.29522  -0.29310
 Alpha  occ. eigenvalues --   -0.29107  -0.27545  -0.24624  -0.20878  -0.17510
 Alpha  occ. eigenvalues --   -0.16653  -0.15489
 Alpha virt. eigenvalues --   -0.14656  -0.14063  -0.12820  -0.11175  -0.10174
 Alpha virt. eigenvalues --   -0.09338  -0.07834  -0.06229  -0.05843  -0.05306
 Alpha virt. eigenvalues --   -0.05002  -0.04462  -0.04261  -0.04004  -0.03697

 Mulliken charges:
               1
     1  N   -0.717891
     2  H    0.432845
     3  H    0.424704
     4  H    0.425573
     5  C   -0.146562
     6  H    0.223349
     7  C    0.640172
     8  C   -0.374496
     9  H    0.185039
    10  H    0.181550
    11  O   -0.540554
    12  C    0.138137
    13  C   -0.185946
    14  H    0.143564
    15  C   -0.206078
    16  H    0.125802
    17  C   -0.110425
    18  H    0.193736
    19  C   -0.130299
    20  H    0.165228
    21  C   -0.128256
    22  H    0.187443
    23  N   -0.572700
    24  H    0.364881
    25  C   -0.089637
    26  H    0.193035
    27  C    0.645565
    28  C   -0.458856
    29  H    0.201726
    30  H    0.181988
    31  H    0.155160
    32  O   -0.501401
    33  N   -0.611874
    34  H    0.357413
    35  C   -0.035601
    36  H    0.159759
    37  C    0.638076
    38  C   -0.484194
    39  H    0.179740
    40  H    0.179296
    41  H    0.138113
    42  O   -0.530978
    43  N   -0.612183
    44  H    0.349380
    45  C   -0.030722
    46  H    0.158050
    47  C    0.635641
    48  C   -0.370616
    49  H    0.127454
    50  H    0.182339
    51  O   -0.542945
    52  C    0.165174
    53  C   -0.223108
    54  H    0.150679
    55  C   -0.216556
    56  H    0.103793
    57  C   -0.176522
    58  H    0.095251
    59  C   -0.208875
    60  H    0.204885
    61  O   -0.676090
    62  H    0.448830
    63  C    0.343924
    64  N   -0.622927
    65  H    0.341767
    66  C   -0.028678
    67  H    0.189056
    68  C    0.631696
    69  C   -0.253152
    70  H    0.157442
    71  H    0.111112
    72  O   -0.594387
    73  C   -0.107370
    74  H    0.149324
    75  C   -0.446675
    76  H    0.154115
    77  H    0.154387
    78  H    0.151437
    79  C   -0.451946
    80  H    0.152806
    81  H    0.111694
    82  H    0.149514
    83  N   -0.581276
    84  H    0.355388
    85  C   -0.100404
    86  H    0.185387
    87  C    0.625216
    88  C   -0.255207
    89  H    0.157143
    90  H    0.167967
    91  O   -0.500990
    92  C   -0.382806
    93  H    0.121089
    94  H    0.140301
    95  C    0.556057
    96  O   -0.613339
    97  O   -0.559091
    98  N   -0.638663
    99  H    0.368637
   100  C   -0.062854
   101  H    0.227803
   102  C    0.592222
   103  C   -0.286590
   104  H    0.172927
   105  H    0.167888
   106  O   -0.476115
   107  C   -0.329422
   108  H    0.182443
   109  H    0.174080
   110  C   -0.174080
   111  H    0.194975
   112  H    0.186624
   113  N   -0.585245
   114  H    0.371934
   115  N   -0.728540
   116  H    0.378718
   117  H    0.394798
   118  N   -0.731352
   119  H    0.373569
   120  H    0.383710
   121  C    0.758151
   122  O   -0.543430
   123  H    0.419234
 Sum of Mulliken charges =   1.00000

 Dipole moment (field-independent basis, Debye):
    X=            -31.5110    Y=            -25.0215    Z=             41.5802  Tot=             57.8613
 Quadrupole moment (field-independent basis, Debye-Ang):
   XX=              8.3449   YY=           -101.6289   ZZ=           -207.2916
   XY=           -304.8010   XZ=           -214.4646   YZ=            167.4311

 Normal termination of Gaussian 16 at Mon Aug  1 02:11:42 2022.
