 Gaussian 16, Revision C.01,
 Gaussian 16:  ES64L-G16RevC.01  3-Jul-2019

 -------------------------------------------------------------------
 # B3LYP/6-31G* guess=read geom=check nosymm integral(ultrafinegrid)
 -------------------------------------------------------------------

 ------------------------------------------------------
 Candidate Structure: Conf:608 Charge calc in gas phase
 ------------------------------------------------------
 Structure from the checkpoint file:  "conf-608.chk"
 Charge =  1 Multiplicity = 1

                          Input orientation:
 ---------------------------------------------------------------------
 Center     Atomic      Atomic             Coordinates (Angstroms)
 Number     Number       Type             X           Y           Z
 ---------------------------------------------------------------------
      1          7           0      -11.629946    2.886026    5.560827
      2          1           0      -11.652228    1.868800    5.632390
      3          1           0      -12.578181    3.233994    5.436053
      4          1           0      -11.268993    3.232312    6.448260
      5          6           0      -10.746264    3.307291    4.457743
      6          1           0      -11.092059    2.847875    3.523520
      7          6           0       -9.342124    2.774191    4.745363
      8          6           0      -10.758688    4.831197    4.264269
      9          1           0      -11.795694    5.127610    4.079551
     10          1           0      -10.193731    5.067650    3.358251
     11          8           0       -9.082679    2.175159    5.776697
     12          6           0      -10.206180    5.597227    5.437260
     13          6           0      -11.029554    5.961793    6.500509
     14          1           0      -12.086581    5.714732    6.463787
     15          6           0       -8.854991    5.947855    5.496046
     16          1           0       -8.201057    5.692898    4.666371
     17          6           0      -10.517334    6.628624    7.611690
     18          1           0      -11.178105    6.891022    8.429586
     19          6           0       -8.336698    6.616488    6.602915
     20          1           0       -7.283960    6.870511    6.626101
     21          6           0       -9.166772    6.955603    7.666618
     22          1           0       -8.764681    7.474203    8.529718
     23          7           0       -8.412415    3.013136    3.796379
     24          1           0       -8.619752    3.474622    2.921870
     25          6           0       -7.045414    2.566504    3.945043
     26          1           0       -6.703382    2.819680    4.952385
     27          6           0       -6.238677    3.325062    2.895338
     28          6           0       -6.893612    1.054419    3.741488
     29          1           0       -5.833056    0.786337    3.743093
     30          1           0       -7.319817    0.770362    2.776104
     31          1           0       -7.414285    0.516762    4.531179
     32          8           0       -6.761491    3.788429    1.898461
     33          7           0       -4.895553    3.413003    3.145099
     34          1           0       -4.543209    2.786225    3.849155
     35          6           0       -3.979493    3.595192    2.030509
     36          1           0       -4.503266    4.205282    1.294997
     37          6           0       -3.656145    2.223926    1.418869
     38          6           0       -2.695181    4.283267    2.480575
     39          1           0       -2.009360    4.389931    1.634001
     40          1           0       -2.197933    3.683281    3.247512
     41          1           0       -2.916908    5.267885    2.891810
     42          8           0       -3.695787    1.192297    2.067098
     43          7           0       -3.291755    2.252410    0.106611
     44          1           0       -3.035862    3.146319   -0.273633
     45          6           0       -2.555908    1.130900   -0.441498
     46          1           0       -2.974122    0.226767   -0.000784
     47          6           0       -1.082946    1.225077   -0.025161
     48          6           0       -2.724840    1.067253   -1.972840
     49          1           0       -1.987858    0.360903   -2.366469
     50          1           0       -3.720883    0.667562   -2.179555
     51          8           0       -0.548531    2.260790    0.328373
     52          6           0       -2.566297    2.409499   -2.628691
     53          6           0       -3.669588    3.210096   -2.919696
     54          1           0       -4.662208    2.849449   -2.677708
     55          6           0       -1.298418    2.908256   -2.929534
     56          1           0       -0.437242    2.279018   -2.724039
     57          6           0       -3.515545    4.480301   -3.465303
     58          1           0       -4.372622    5.105119   -3.678051
     59          6           0       -1.123084    4.177738   -3.477551
     60          1           0       -0.126696    4.540228   -3.696927
     61          8           0       -2.147105    6.214389   -4.283743
     62          1           0       -1.221105    6.425328   -4.426465
     63          6           0       -2.240071    4.962699   -3.745352
     64          7           0       -0.410716    0.035402   -0.064702
     65          1           0       -0.829402   -0.694661   -0.611581
     66          6           0        1.037715    0.042796   -0.028217
     67          1           0        1.337246    0.729313    0.766508
     68          6           0        1.592587    0.579948   -1.345074
     69          6           0        1.592008   -1.352175    0.249277
     70          1           0        1.293643   -2.009069   -0.572841
     71          1           0        2.680316   -1.297239    0.213085
     72          8           0        0.978395    0.520991   -2.398613
     73          6           0        1.173346   -1.971232    1.583731
     74          1           0        0.083444   -2.054040    1.597352
     75          6           0        1.759727   -3.375148    1.692141
     76          1           0        2.851458   -3.329690    1.665304
     77          1           0        1.464666   -3.857498    2.627187
     78          1           0        1.425947   -4.009298    0.867569
     79          6           0        1.603225   -1.115779    2.769255
     80          1           0        2.693156   -1.016554    2.791495
     81          1           0        1.169722   -0.112876    2.732515
     82          1           0        1.293143   -1.577681    3.710050
     83          7           0        2.842366    1.129332   -1.260250
     84          1           0        3.376253    0.862657   -0.451381
     85          6           0        3.621511    1.269350   -2.478724
     86          1           0        2.982699    1.774071   -3.207843
     87          6           0        3.983828   -0.116599   -3.033543
     88          6           0        4.875031    2.108519   -2.249323
     89          1           0        5.459935    1.682311   -1.433508
     90          1           0        5.496993    2.065764   -3.146720
     91          8           0        3.958222   -1.139026   -2.362822
     92          6           0        4.574014    3.575405   -1.947341
     93          1           0        4.044096    3.685448   -1.000402
     94          1           0        3.990977    4.023814   -2.753130
     95          6           0        5.956664    4.251452   -1.862704
     96          8           0        6.499773    4.226052   -0.744058
     97          8           0        6.392668    4.722417   -2.928800
     98          7           0        4.327399   -0.098592   -4.349957
     99          1           0        4.426369    0.788873   -4.809121
    100          6           0        4.844474   -1.280486   -4.990950
    101          1           0        4.972993   -2.029488   -4.203258
    102          6           0        6.228928   -1.067356   -5.569093
    103          6           0        3.897202   -1.855254   -6.048242
    104          1           0        4.425076   -2.656470   -6.563645
    105          1           0        3.676233   -1.085865   -6.792506
    106          8           0        6.774891   -1.841655   -6.310950
    107          6           0        2.614497   -2.374458   -5.419794
    108          1           0        2.137798   -1.594620   -4.820987
    109          1           0        2.864589   -3.183615   -4.733007
    110          6           0        1.601013   -2.882849   -6.434490
    111          1           0        1.282716   -2.063394   -7.082789
    112          1           0        0.698578   -3.238996   -5.928707
    113          7           0        2.097540   -3.939747   -7.337684
    114          1           0        2.631145   -3.602264   -8.125922
    115          7           0        2.164472   -5.541785   -5.644119
    116          1           0        2.199444   -6.520662   -5.409262
    117          1           0        1.485821   -4.998510   -5.136436
    118          7           0        3.165023   -5.967533   -7.723273
    119          1           0        3.214230   -6.945950   -7.480559
    120          1           0        3.111529   -5.781011   -8.715841
    121          6           0        2.456313   -5.154669   -6.901073
    122          8           0        6.820931    0.062705   -5.127318
    123          1           0        7.702793    0.079767   -5.522189
 ---------------------------------------------------------------------

 SCF Done:  E(RB3LYP) =  -2973.88285069     A.U. after    3 cycles

 Alpha  occ. eigenvalues --  -19.25054 -19.24745 -19.21231 -19.21228 -19.19457
 Alpha  occ. eigenvalues --  -19.17985 -19.16444 -19.16016 -19.15874 -18.99964
 Alpha  occ. eigenvalues --  -18.99928 -14.63135 -14.51479 -14.51183 -14.51017
 Alpha  occ. eigenvalues --  -14.47871 -14.43681 -14.41089 -14.40839 -14.40317
 Alpha  occ. eigenvalues --  -14.38635 -10.46495 -10.42490 -10.41236 -10.37733
 Alpha  occ. eigenvalues --  -10.37546 -10.34485 -10.34472 -10.34447 -10.33231
 Alpha  occ. eigenvalues --  -10.33023 -10.32459 -10.32105 -10.31452 -10.30503
 Alpha  occ. eigenvalues --  -10.29879 -10.29693 -10.29630 -10.29626 -10.29278
 Alpha  occ. eigenvalues --  -10.29180 -10.28500 -10.28235 -10.27746 -10.26958
 Alpha  occ. eigenvalues --  -10.26923 -10.26644 -10.25001 -10.24461 -10.23983
 Alpha  occ. eigenvalues --  -10.22994 -10.22986 -10.22971 -10.22732 -10.22322
 Alpha  occ. eigenvalues --  -10.22217 -10.22154 -10.21487 -10.21015 -10.18287
 Alpha  occ. eigenvalues --  -10.18248 -10.13315  -1.19671  -1.16440  -1.16290
 Alpha  occ. eigenvalues --   -1.15962  -1.13623  -1.10370  -1.09605  -1.08943
 Alpha  occ. eigenvalues --   -1.08370  -1.07453  -1.07311  -1.05288  -1.04751
 Alpha  occ. eigenvalues --   -1.04671  -1.00732  -0.98405  -0.98299  -0.97776
 Alpha  occ. eigenvalues --   -0.97372  -0.95691  -0.94163  -0.93874  -0.89686
 Alpha  occ. eigenvalues --   -0.89538  -0.88208  -0.86426  -0.86064  -0.85348
 Alpha  occ. eigenvalues --   -0.84964  -0.84460  -0.84335  -0.82319  -0.80947
 Alpha  occ. eigenvalues --   -0.80549  -0.79410  -0.78498  -0.78306  -0.76907
 Alpha  occ. eigenvalues --   -0.76807  -0.76276  -0.76044  -0.75688  -0.73573
 Alpha  occ. eigenvalues --   -0.72499  -0.72184  -0.71597  -0.71341  -0.70982
 Alpha  occ. eigenvalues --   -0.70763  -0.70183  -0.69843  -0.68864  -0.68080
 Alpha  occ. eigenvalues --   -0.67817  -0.66210  -0.65998  -0.65908  -0.64862
 Alpha  occ. eigenvalues --   -0.64334  -0.64104  -0.63931  -0.63851  -0.63272
 Alpha  occ. eigenvalues --   -0.62272  -0.61493  -0.61315  -0.61202  -0.60249
 Alpha  occ. eigenvalues --   -0.60167  -0.59898  -0.59315  -0.58731  -0.58115
 Alpha  occ. eigenvalues --   -0.57819  -0.57752  -0.57487  -0.57071  -0.56542
 Alpha  occ. eigenvalues --   -0.55419  -0.54929  -0.54711  -0.54605  -0.54229
 Alpha  occ. eigenvalues --   -0.53943  -0.53501  -0.53475  -0.53029  -0.52823
 Alpha  occ. eigenvalues --   -0.52690  -0.52034  -0.52003  -0.51756  -0.51634
 Alpha  occ. eigenvalues --   -0.51429  -0.51231  -0.50637  -0.50007  -0.49950
 Alpha  occ. eigenvalues --   -0.49693  -0.49310  -0.48572  -0.48322  -0.48070
 Alpha  occ. eigenvalues --   -0.47534  -0.47318  -0.47237  -0.47007  -0.46789
 Alpha  occ. eigenvalues --   -0.46651  -0.46292  -0.45959  -0.45715  -0.45671
 Alpha  occ. eigenvalues --   -0.45490  -0.45245  -0.45237  -0.44906  -0.44629
 Alpha  occ. eigenvalues --   -0.44535  -0.44384  -0.44214  -0.43716  -0.43575
 Alpha  occ. eigenvalues --   -0.43495  -0.43345  -0.43051  -0.42995  -0.42561
 Alpha  occ. eigenvalues --   -0.42465  -0.42136  -0.41956  -0.41833  -0.41276
 Alpha  occ. eigenvalues --   -0.40862  -0.40543  -0.39924  -0.39555  -0.39440
 Alpha  occ. eigenvalues --   -0.38700  -0.37913  -0.37617  -0.37260  -0.37137
 Alpha  occ. eigenvalues --   -0.37077  -0.36807  -0.36645  -0.36527  -0.36001
 Alpha  occ. eigenvalues --   -0.35685  -0.35553  -0.35224  -0.34427  -0.34384
 Alpha  occ. eigenvalues --   -0.33730  -0.33253  -0.32477  -0.31608  -0.31161
 Alpha  occ. eigenvalues --   -0.30670  -0.30166  -0.29827  -0.29676  -0.29224
 Alpha  occ. eigenvalues --   -0.28857  -0.28715  -0.27494  -0.25692  -0.15796
 Alpha  occ. eigenvalues --   -0.14643  -0.13659
 Alpha virt. eigenvalues --   -0.13021  -0.12735  -0.11855  -0.11347  -0.10144
 Alpha virt. eigenvalues --   -0.08221  -0.07152  -0.06951  -0.05818  -0.04696
 Alpha virt. eigenvalues --   -0.04459  -0.04392  -0.03881  -0.03302  -0.02913

 Mulliken charges:
               1
     1  N   -0.703971
     2  H    0.431140
     3  H    0.418437
     4  H    0.428339
     5  C   -0.150083
     6  H    0.224361
     7  C    0.652489
     8  C   -0.391095
     9  H    0.179772
    10  H    0.212094
    11  O   -0.520386
    12  C    0.168645
    13  C   -0.222762
    14  H    0.108889
    15  C   -0.176985
    16  H    0.154681
    17  C   -0.118822
    18  H    0.160881
    19  C   -0.121687
    20  H    0.167294
    21  C   -0.120556
    22  H    0.168328
    23  N   -0.621462
    24  H    0.357117
    25  C   -0.044150
    26  H    0.187663
    27  C    0.605863
    28  C   -0.461348
    29  H    0.198738
    30  H    0.162920
    31  H    0.180179
    32  O   -0.521396
    33  N   -0.575281
    34  H    0.339813
    35  C   -0.105571
    36  H    0.192637
    37  C    0.626362
    38  C   -0.452660
    39  H    0.197149
    40  H    0.164355
    41  H    0.166532
    42  O   -0.533728
    43  N   -0.582596
    44  H    0.353581
    45  C   -0.085079
    46  H    0.178945
    47  C    0.642155
    48  C   -0.365450
    49  H    0.163378
    50  H    0.149171
    51  O   -0.524281
    52  C    0.122278
    53  C   -0.198616
    54  H    0.121303
    55  C   -0.196377
    56  H    0.191908
    57  C   -0.160898
    58  H    0.136890
    59  C   -0.203794
    60  H    0.142316
    61  O   -0.641212
    62  H    0.414698
    63  C    0.349490
    64  N   -0.584015
    65  H    0.320820
    66  C   -0.091563
    67  H    0.194589
    68  C    0.649988
    69  C   -0.274522
    70  H    0.124548
    71  H    0.165673
    72  O   -0.561455
    73  C   -0.066140
    74  H    0.126437
    75  C   -0.439403
    76  H    0.150543
    77  H    0.145133
    78  H    0.126373
    79  C   -0.455796
    80  H    0.147288
    81  H    0.159759
    82  H    0.145359
    83  N   -0.562618
    84  H    0.337618
    85  C   -0.077876
    86  H    0.164295
    87  C    0.632254
    88  C   -0.298156
    89  H    0.154697
    90  H    0.156542
    91  O   -0.548910
    92  C   -0.302549
    93  H    0.121547
    94  H    0.098400
    95  C    0.530596
    96  O   -0.584841
    97  O   -0.590178
    98  N   -0.602814
    99  H    0.350856
   100  C   -0.060306
   101  H    0.217098
   102  C    0.586048
   103  C   -0.271762
   104  H    0.156083
   105  H    0.145177
   106  O   -0.466941
   107  C   -0.284893
   108  H    0.208834
   109  H    0.158344
   110  C   -0.207162
   111  H    0.198927
   112  H    0.175148
   113  N   -0.565241
   114  H    0.366470
   115  N   -0.723089
   116  H    0.371918
   117  H    0.384332
   118  N   -0.731520
   119  H    0.369219
   120  H    0.375648
   121  C    0.733163
   122  O   -0.546772
   123  H    0.428249
 Sum of Mulliken charges =   1.00000

 Dipole moment (field-independent basis, Debye):
    X=            -55.7070    Y=            -18.0593    Z=              0.9337  Tot=             58.5686
 Quadrupole moment (field-independent basis, Debye-Ang):
   XX=             49.5950   YY=           -254.2697   ZZ=            -54.7621
   XY=           -285.7356   XZ=           -281.3053   YZ=            239.7470

 Normal termination of Gaussian 16 at Mon Aug  1 02:11:19 2022.
