 Gaussian 16, Revision C.01,
 Gaussian 16:  ES64L-G16RevC.01  3-Jul-2019

 -------------------------------------------------------------------
 # B3LYP/6-31G* guess=read geom=check nosymm integral(ultrafinegrid)
 -------------------------------------------------------------------

 ------------------------------------------------------
 Candidate Structure: Conf:727 Charge calc in gas phase
 ------------------------------------------------------
 Structure from the checkpoint file:  "conf-727.chk"
 Charge =  1 Multiplicity = 1

                          Input orientation:
 ---------------------------------------------------------------------
 Center     Atomic      Atomic             Coordinates (Angstroms)
 Number     Number       Type             X           Y           Z
 ---------------------------------------------------------------------
      1          7           0       -6.649616    4.295289    7.484608
      2          1           0       -6.681253    5.316177    7.537478
      3          1           0       -6.225431    3.937978    8.346819
      4          1           0       -7.621374    3.871928    7.378348
      5          6           0       -5.945517    3.768151    6.242651
      6          1           0       -6.020817    4.564495    5.496243
      7          6           0       -6.899516    2.613896    5.806428
      8          6           0       -4.461226    3.447216    6.513451
      9          1           0       -4.381231    2.495689    7.052398
     10          1           0       -4.067918    4.228564    7.178880
     11          8           0       -8.039698    2.615350    6.304202
     12          6           0       -3.629571    3.415514    5.240924
     13          6           0       -3.103291    2.214624    4.749366
     14          1           0       -3.276729    1.282591    5.280111
     15          6           0       -3.381852    4.607232    4.542245
     16          1           0       -3.758840    5.555109    4.924517
     17          6           0       -2.362569    2.194519    3.562455
     18          1           0       -1.988332    1.251207    3.174562
     19          6           0       -2.632049    4.593180    3.368009
     20          1           0       -2.438439    5.522747    2.840446
     21          6           0       -2.127318    3.385851    2.875741
     22          1           0       -1.545749    3.375679    1.958360
     23          7           0       -6.454739    1.732485    4.921443
     24          1           0       -5.472015    1.703946    4.647941
     25          6           0       -7.260177    0.600935    4.451550
     26          1           0       -7.908549    0.289917    5.278030
     27          6           0       -6.249891   -0.527912    4.144417
     28          6           0       -8.126816    0.995486    3.244471
     29          1           0       -8.770925    0.167815    2.931097
     30          1           0       -7.504471    1.287235    2.392952
     31          1           0       -8.776630    1.832586    3.514407
     32          8           0       -5.043476   -0.343229    4.323507
     33          7           0       -6.764607   -1.691090    3.700495
     34          1           0       -7.747664   -1.752189    3.469146
     35          6           0       -5.910388   -2.830140    3.314551
     36          1           0       -5.078472   -2.839455    4.023772
     37          6           0       -5.373136   -2.593440    1.879166
     38          6           0       -6.704780   -4.128498    3.394930
     39          1           0       -6.047825   -4.978849    3.192163
     40          1           0       -7.493709   -4.140883    2.636972
     41          1           0       -7.140890   -4.256655    4.390640
     42          8           0       -5.992122   -2.986194    0.894082
     43          7           0       -4.201886   -1.917087    1.824914
     44          1           0       -3.804680   -1.499739    2.661990
     45          6           0       -3.578730   -1.518925    0.572150
     46          1           0       -3.629937   -2.364791   -0.119986
     47          6           0       -2.119768   -1.169559    0.903191
     48          6           0       -4.318459   -0.305739   -0.069378
     49          1           0       -5.362278   -0.615347   -0.191969
     50          1           0       -4.294286    0.518177    0.654031
     51          8           0       -1.838550   -0.638269    1.986331
     52          6           0       -3.728634    0.134476   -1.389091
     53          6           0       -2.947580    1.294801   -1.484375
     54          1           0       -2.806285    1.915096   -0.601518
     55          6           0       -3.898531   -0.637360   -2.546296
     56          1           0       -4.514174   -1.533841   -2.510665
     57          6           0       -2.339491    1.668331   -2.678823
     58          1           0       -1.731284    2.564607   -2.748403
     59          6           0       -3.289370   -0.282459   -3.748741
     60          1           0       -3.425877   -0.901539   -4.633151
     61          8           0       -1.857221    1.265361   -4.955055
     62          1           0       -1.983639    0.595051   -5.644859
     63          6           0       -2.497084    0.868212   -3.814985
     64          7           0       -1.217337   -1.460748   -0.045775
     65          1           0       -1.494136   -1.836087   -0.949963
     66          6           0        0.190880   -1.086968    0.026890
     67          1           0        0.261060   -0.113662    0.522187
     68          6           0        0.658837   -0.988639   -1.440016
     69          6           0        0.990635   -2.144909    0.830080
     70          1           0        0.443958   -2.302459    1.768676
     71          1           0        0.943507   -3.087980    0.270035
     72          8           0        0.084023   -1.637514   -2.317302
     73          6           0        2.459561   -1.811131    1.161734
     74          1           0        2.997685   -1.601681    0.227801
     75          6           0        2.591700   -0.579187    2.071743
     76          1           0        2.050202   -0.730044    3.014679
     77          1           0        3.643227   -0.387940    2.312316
     78          1           0        2.198286    0.333172    1.608030
     79          6           0        3.126603   -3.031817    1.815078
     80          1           0        2.631806   -3.292511    2.759882
     81          1           0        3.081133   -3.910473    1.161028
     82          1           0        4.181190   -2.831253    2.035820
     83          7           0        1.708392   -0.176446   -1.669676
     84          1           0        2.202131    0.279527   -0.907967
     85          6           0        2.383501   -0.071550   -2.958870
     86          1           0        2.349694   -1.041737   -3.458443
     87          6           0        3.847866    0.275268   -2.630400
     88          6           0        1.655326    0.962144   -3.863996
     89          1           0        0.667031    0.538682   -4.069101
     90          1           0        1.489461    1.864919   -3.262385
     91          8           0        4.186929    0.686779   -1.516420
     92          6           0        2.313579    1.399406   -5.185151
     93          1           0        3.206794    2.001655   -4.964134
     94          1           0        1.626130    2.070328   -5.710076
     95          6           0        2.760726    0.312776   -6.176045
     96          8           0        2.807764    0.657629   -7.407309
     97          8           0        3.149485   -0.806850   -5.747653
     98          7           0        4.710756    0.078127   -3.649553
     99          1           0        4.319555   -0.344128   -4.503299
    100          6           0        6.129534    0.330736   -3.525996
    101          1           0        6.578960   -0.361425   -2.803964
    102          6           0        6.391073    1.751172   -3.013330
    103          6           0        6.811309    0.125372   -4.904549
    104          1           0        6.413949   -0.811524   -5.315741
    105          1           0        7.883230   -0.032459   -4.740041
    106          8           0        5.751798    2.736407   -3.302176
    107          6           0        6.608458    1.280293   -5.906972
    108          1           0        7.350594    2.065087   -5.720993
    109          1           0        5.634124    1.755910   -5.753937
    110          6           0        6.719566    0.864482   -7.383117
    111          1           0        7.592868    0.221701   -7.538229
    112          1           0        6.870580    1.753344   -8.006353
    113          7           0        5.506685    0.192731   -7.846435
    114          1           0        4.601016    0.674882   -7.691818
    115          7           0        6.376629   -1.931463   -8.376233
    116          1           0        6.239990   -2.746993   -8.956545
    117          1           0        7.323207   -1.584116   -8.350012
    118          7           0        4.105986   -1.440198   -8.624309
    119          1           0        3.902303   -2.430658   -8.589085
    120          1           0        3.364596   -0.803806   -8.243685
    121          6           0        5.342666   -1.055043   -8.274587
    122          8           0        7.509703    1.788555   -2.253891
    123          1           0        7.632549    2.721297   -1.993893
 ---------------------------------------------------------------------

 SCF Done:  E(RB3LYP) =  -2974.04015724     A.U. after    1 cycles

 Alpha  occ. eigenvalues --  -19.26602 -19.23960 -19.22068 -19.21952 -19.18053
 Alpha  occ. eigenvalues --  -19.17168 -19.16953 -19.15449 -19.15405 -19.13028
 Alpha  occ. eigenvalues --  -19.12669 -14.59848 -14.49172 -14.45988 -14.45538
 Alpha  occ. eigenvalues --  -14.43745 -14.41730 -14.41376 -14.40699 -14.39429
 Alpha  occ. eigenvalues --  -14.38624 -10.43451 -10.40633 -10.40322 -10.39091
 Alpha  occ. eigenvalues --  -10.36191 -10.34847 -10.34453 -10.33969 -10.33607
 Alpha  occ. eigenvalues --  -10.32580 -10.32037 -10.30920 -10.30787 -10.30532
 Alpha  occ. eigenvalues --  -10.30011 -10.29210 -10.28767 -10.28639 -10.28603
 Alpha  occ. eigenvalues --  -10.28465 -10.27768 -10.27696 -10.27637 -10.27194
 Alpha  occ. eigenvalues --  -10.26616 -10.26002 -10.25567 -10.25191 -10.24974
 Alpha  occ. eigenvalues --  -10.24471 -10.23675 -10.23604 -10.23569 -10.23336
 Alpha  occ. eigenvalues --  -10.22882 -10.22833 -10.22612 -10.21563 -10.21243
 Alpha  occ. eigenvalues --  -10.21023 -10.20845  -1.19086  -1.14759  -1.14083
 Alpha  occ. eigenvalues --   -1.13477  -1.10042  -1.09288  -1.09095  -1.08493
 Alpha  occ. eigenvalues --   -1.07533  -1.06820  -1.05956  -1.05773  -1.05626
 Alpha  occ. eigenvalues --   -1.01999  -0.98961  -0.97896  -0.97232  -0.97166
 Alpha  occ. eigenvalues --   -0.96445  -0.96123  -0.95746  -0.95721  -0.92065
 Alpha  occ. eigenvalues --   -0.89853  -0.88529  -0.86102  -0.85357  -0.84904
 Alpha  occ. eigenvalues --   -0.84151  -0.83112  -0.82932  -0.82270  -0.80423
 Alpha  occ. eigenvalues --   -0.79266  -0.79175  -0.79157  -0.77221  -0.76896
 Alpha  occ. eigenvalues --   -0.75053  -0.74484  -0.73747  -0.72916  -0.72254
 Alpha  occ. eigenvalues --   -0.71996  -0.71246  -0.70708  -0.70533  -0.69519
 Alpha  occ. eigenvalues --   -0.69089  -0.68434  -0.68043  -0.67211  -0.66598
 Alpha  occ. eigenvalues --   -0.66423  -0.65897  -0.65678  -0.64857  -0.64176
 Alpha  occ. eigenvalues --   -0.63120  -0.62970  -0.62582  -0.62557  -0.61595
 Alpha  occ. eigenvalues --   -0.61135  -0.60598  -0.60293  -0.60084  -0.59786
 Alpha  occ. eigenvalues --   -0.58716  -0.58364  -0.57640  -0.57075  -0.56767
 Alpha  occ. eigenvalues --   -0.56062  -0.55578  -0.55494  -0.55168  -0.54783
 Alpha  occ. eigenvalues --   -0.54703  -0.54495  -0.53998  -0.53636  -0.53280
 Alpha  occ. eigenvalues --   -0.53187  -0.52797  -0.52369  -0.52122  -0.51921
 Alpha  occ. eigenvalues --   -0.51652  -0.51285  -0.51081  -0.50959  -0.50744
 Alpha  occ. eigenvalues --   -0.50388  -0.50028  -0.49936  -0.49851  -0.49470
 Alpha  occ. eigenvalues --   -0.49422  -0.49085  -0.48922  -0.48665  -0.48391
 Alpha  occ. eigenvalues --   -0.48100  -0.47895  -0.47714  -0.47273  -0.46975
 Alpha  occ. eigenvalues --   -0.46873  -0.46633  -0.46547  -0.45955  -0.45942
 Alpha  occ. eigenvalues --   -0.45825  -0.45526  -0.45272  -0.44978  -0.44779
 Alpha  occ. eigenvalues --   -0.44757  -0.44651  -0.44258  -0.43682  -0.43626
 Alpha  occ. eigenvalues --   -0.43306  -0.43180  -0.42955  -0.42568  -0.42407
 Alpha  occ. eigenvalues --   -0.42242  -0.42097  -0.41605  -0.41293  -0.41222
 Alpha  occ. eigenvalues --   -0.40964  -0.40719  -0.40575  -0.40448  -0.40109
 Alpha  occ. eigenvalues --   -0.39925  -0.39611  -0.39079  -0.38833  -0.38030
 Alpha  occ. eigenvalues --   -0.37739  -0.37184  -0.36989  -0.36703  -0.36502
 Alpha  occ. eigenvalues --   -0.36416  -0.36251  -0.35991  -0.35777  -0.35664
 Alpha  occ. eigenvalues --   -0.33824  -0.33577  -0.32846  -0.31936  -0.31863
 Alpha  occ. eigenvalues --   -0.30896  -0.30447  -0.30227  -0.29933  -0.29596
 Alpha  occ. eigenvalues --   -0.29275  -0.29102  -0.28736  -0.28359  -0.27525
 Alpha  occ. eigenvalues --   -0.26408  -0.25947
 Alpha virt. eigenvalues --   -0.12949  -0.10541  -0.09470  -0.09093  -0.07817
 Alpha virt. eigenvalues --   -0.05854  -0.04992  -0.04850  -0.04508  -0.03474
 Alpha virt. eigenvalues --   -0.03397  -0.03040  -0.02781  -0.02005  -0.01710

 Mulliken charges:
               1
     1  N   -0.758809
     2  H    0.414931
     3  H    0.413931
     4  H    0.436054
     5  C   -0.107406
     6  H    0.234756
     7  C    0.643414
     8  C   -0.393303
     9  H    0.189947
    10  H    0.179304
    11  O   -0.547835
    12  C    0.145299
    13  C   -0.219514
    14  H    0.169221
    15  C   -0.182279
    16  H    0.117390
    17  C   -0.144780
    18  H    0.224590
    19  C   -0.123224
    20  H    0.154580
    21  C   -0.139069
    22  H    0.159650
    23  N   -0.603473
    24  H    0.398597
    25  C   -0.071555
    26  H    0.204875
    27  C    0.631462
    28  C   -0.454192
    29  H    0.169156
    30  H    0.182495
    31  H    0.185080
    32  O   -0.538641
    33  N   -0.600504
    34  H    0.345426
    35  C   -0.055897
    36  H    0.179735
    37  C    0.624735
    38  C   -0.471834
    39  H    0.182410
    40  H    0.181649
    41  H    0.154842
    42  O   -0.529413
    43  N   -0.618073
    44  H    0.365890
    45  C   -0.029982
    46  H    0.176173
    47  C    0.625587
    48  C   -0.360179
    49  H    0.174522
    50  H    0.138772
    51  O   -0.568775
    52  C    0.159701
    53  C   -0.191524
    54  H    0.117465
    55  C   -0.206447
    56  H    0.142454
    57  C   -0.155869
    58  H    0.142069
    59  C   -0.174688
    60  H    0.130452
    61  O   -0.642967
    62  H    0.414945
    63  C    0.363839
    64  N   -0.607234
    65  H    0.364907
    66  C   -0.052796
    67  H    0.161832
    68  C    0.620552
    69  C   -0.252341
    70  H    0.154087
    71  H    0.145686
    72  O   -0.547753
    73  C   -0.090899
    74  H    0.143131
    75  C   -0.445590
    76  H    0.141412
    77  H    0.153731
    78  H    0.135738
    79  C   -0.444257
    80  H    0.138727
    81  H    0.144642
    82  H    0.146998
    83  N   -0.621315
    84  H    0.358270
    85  C   -0.061213
    86  H    0.204406
    87  C    0.609764
    88  C   -0.255990
    89  H    0.177919
    90  H    0.134647
    91  O   -0.560073
    92  C   -0.380197
    93  H    0.175018
    94  H    0.164629
    95  C    0.585188
    96  O   -0.619682
    97  O   -0.586503
    98  N   -0.655140
    99  H    0.396559
   100  C    0.004097
   101  H    0.177455
   102  C    0.615439
   103  C   -0.322318
   104  H    0.166090
   105  H    0.161879
   106  O   -0.472208
   107  C   -0.286552
   108  H    0.162462
   109  H    0.197180
   110  C   -0.162030
   111  H    0.141975
   112  H    0.185136
   113  N   -0.604310
   114  H    0.403740
   115  N   -0.754897
   116  H    0.363214
   117  H    0.362108
   118  N   -0.757334
   119  H    0.344303
   120  H    0.409524
   121  C    0.762262
   122  O   -0.572108
   123  H    0.412868
 Sum of Mulliken charges =   1.00000

 Dipole moment (field-independent basis, Debye):
    X=            -13.5802    Y=             10.5897    Z=             15.0844  Tot=             22.8933
 Quadrupole moment (field-independent basis, Debye-Ang):
   XX=            -94.2163   YY=           -276.2657   ZZ=            -65.0451
   XY=            -99.2526   XZ=           -271.0599   YZ=            135.5679

 Normal termination of Gaussian 16 at Mon Aug  1 02:10:28 2022.
