 Gaussian 16, Revision C.01,
 Gaussian 16:  ES64L-G16RevC.01  3-Jul-2019

 -------------------------------------------------------------------
 # B3LYP/6-31G* guess=read geom=check nosymm integral(ultrafinegrid)
 -------------------------------------------------------------------

 ------------------------------------------------------
 Candidate Structure: Conf:304 Charge calc in gas phase
 ------------------------------------------------------
 Structure from the checkpoint file:  "conf-304.chk"
 Charge =  1 Multiplicity = 1

                          Input orientation:
 ---------------------------------------------------------------------
 Center     Atomic      Atomic             Coordinates (Angstroms)
 Number     Number       Type             X           Y           Z
 ---------------------------------------------------------------------
      1          7           0       -7.181027    2.278205    6.637119
      2          1           0       -6.780009    3.130722    6.236378
      3          1           0       -7.541053    2.493359    7.579441
      4          1           0       -7.929312    1.924432    5.980928
      5          6           0       -6.201543    1.127960    6.674499
      6          1           0       -5.191249    1.540773    6.642754
      7          6           0       -6.554290    0.324975    5.395425
      8          6           0       -6.416874    0.296726    7.964515
      9          1           0       -5.631144   -0.465899    7.988981
     10          1           0       -7.371918   -0.235720    7.881326
     11          8           0       -7.651263    0.554763    4.863800
     12          6           0       -6.393641    1.152837    9.213851
     13          6           0       -5.181042    1.609897    9.751695
     14          1           0       -4.238641    1.298552    9.305786
     15          6           0       -7.597151    1.548937    9.820208
     16          1           0       -8.544605    1.161089    9.448092
     17          6           0       -5.172987    2.441796   10.870223
     18          1           0       -4.227129    2.777279   11.285190
     19          6           0       -7.588040    2.388082   10.939566
     20          1           0       -8.525713    2.674046   11.406745
     21          6           0       -6.376280    2.836582   11.463205
     22          1           0       -6.365895    3.481476   12.336624
     23          7           0       -5.661317   -0.570979    4.997246
     24          1           0       -4.791229   -0.758301    5.503208
     25          6           0       -5.845438   -1.490773    3.874123
     26          1           0       -6.828405   -1.967080    3.972404
     27          6           0       -4.725108   -2.543736    4.064137
     28          6           0       -5.750733   -0.773855    2.515065
     29          1           0       -5.988346   -1.464451    1.699319
     30          1           0       -4.746625   -0.373515    2.340019
     31          1           0       -6.480329    0.039134    2.476788
     32          8           0       -3.876811   -2.385667    4.944730
     33          7           0       -4.738727   -3.574944    3.194851
     34          1           0       -5.477754   -3.616306    2.503738
     35          6           0       -3.686072   -4.594916    3.101657
     36          1           0       -3.062356   -4.454899    3.989969
     37          6           0       -2.767648   -4.382788    1.865612
     38          6           0       -4.280307   -6.003841    3.099252
     39          1           0       -3.476787   -6.729940    2.965242
     40          1           0       -4.985050   -6.134904    2.269229
     41          1           0       -4.803138   -6.204238    4.038975
     42          8           0       -2.093181   -5.306959    1.428207
     43          7           0       -2.772505   -3.128573    1.355022
     44          1           0       -3.260537   -2.380894    1.829542
     45          6           0       -1.938335   -2.671515    0.253494
     46          1           0       -1.082840   -3.348274    0.177913
     47          6           0       -1.479170   -1.254294    0.632784
     48          6           0       -2.747767   -2.691429   -1.079848
     49          1           0       -2.897295   -3.750635   -1.327590
     50          1           0       -3.737876   -2.279047   -0.853057
     51          8           0       -2.236340   -0.476020    1.225288
     52          6           0       -2.159330   -1.922589   -2.243103
     53          6           0       -2.844540   -0.812165   -2.757860
     54          1           0       -3.791794   -0.517804   -2.309147
     55          6           0       -0.944603   -2.272044   -2.853659
     56          1           0       -0.392983   -3.143053   -2.500385
     57          6           0       -2.351598   -0.082322   -3.832666
     58          1           0       -2.895900    0.768873   -4.231000
     59          6           0       -0.422223   -1.539247   -3.919103
     60          1           0        0.523640   -1.814567   -4.376310
     61          8           0       -0.701220    0.310213   -5.464514
     62          1           0        0.274968    0.133453   -5.683054
     63          6           0       -1.128148   -0.431398   -4.430017
     64          7           0       -0.212579   -0.963005    0.284040
     65          1           0        0.342496   -1.639547   -0.229447
     66          6           0        0.413398    0.349200    0.395591
     67          1           0       -0.338892    1.111084    0.167967
     68          6           0        1.531830    0.336360   -0.660526
     69          6           0        0.984723    0.566621    1.818097
     70          1           0        0.148195    0.446563    2.518435
     71          1           0        1.685609   -0.256115    2.009817
     72          8           0        2.148446   -0.710050   -0.883826
     73          6           0        1.692552    1.911658    2.076313
     74          1           0        2.495649    2.026033    1.335320
     75          6           0        0.740621    3.112498    1.953291
     76          1           0       -0.087535    3.029715    2.669345
     77          1           0        1.267794    4.051284    2.157894
     78          1           0        0.296038    3.201529    0.954800
     79          6           0        2.344063    1.894910    3.468066
     80          1           0        1.589327    1.777680    4.256950
     81          1           0        3.055446    1.065731    3.566383
     82          1           0        2.886766    2.827318    3.661679
     83          7           0        1.782886    1.489467   -1.316141
     84          1           0        1.249675    2.320351   -1.102643
     85          6           0        2.762513    1.527275   -2.387498
     86          1           0        2.655526    0.569737   -2.907403
     87          6           0        4.206090    1.465407   -1.852872
     88          6           0        2.511854    2.664487   -3.412587
     89          1           0        1.867828    3.431756   -2.960477
     90          1           0        3.460205    3.160880   -3.632024
     91          8           0        4.470072    1.348794   -0.638352
     92          6           0        1.878934    2.147799   -4.715838
     93          1           0        1.940360    2.934483   -5.479256
     94          1           0        0.816500    1.931785   -4.578294
     95          6           0        2.582400    0.882176   -5.273005
     96          8           0        1.869094    0.019308   -5.845890
     97          8           0        3.837274    0.792345   -5.101289
     98          7           0        5.114945    1.426013   -2.837917
     99          1           0        4.730305    1.372135   -3.814325
    100          6           0        6.497353    1.085167   -2.606991
    101          1           0        6.614656    0.887297   -1.537320
    102          6           0        7.411870    2.270100   -2.923056
    103          6           0        6.927764   -0.165538   -3.422087
    104          1           0        7.874782   -0.524538   -3.003986
    105          1           0        7.141571    0.136574   -4.453867
    106          8           0        7.074665    3.323869   -3.401820
    107          6           0        5.881870   -1.293532   -3.501981
    108          1           0        6.349685   -2.139865   -4.024430
    109          1           0        5.048842   -0.966601   -4.137766
    110          6           0        5.272418   -1.798671   -2.188138
    111          1           0        4.659221   -2.683671   -2.392768
    112          1           0        4.604055   -1.075583   -1.724381
    113          7           0        6.292335   -2.188696   -1.189771
    114          1           0        6.980262   -2.862438   -1.502749
    115          7           0        5.702615   -0.779547    0.586876
    116          1           0        5.633618   -0.687042    1.590249
    117          1           0        5.228572   -0.042256    0.024055
    118          7           0        7.162300   -2.535469    0.928099
    119          1           0        7.574548   -2.089910    1.734945
    120          1           0        7.589235   -3.396321    0.619390
    121          6           0        6.371884   -1.815474    0.089209
    122          8           0        8.697100    1.978108   -2.591740
    123          1           0        9.226042    2.760650   -2.838557
 ---------------------------------------------------------------------

 SCF Done:  E(RB3LYP) =  -2974.01966312     A.U. after    1 cycles

 Alpha  occ. eigenvalues --  -19.26454 -19.24914 -19.22342 -19.19110 -19.17968
 Alpha  occ. eigenvalues --  -19.17683 -19.17451 -19.17070 -19.15401 -19.10636
 Alpha  occ. eigenvalues --  -19.10410 -14.59592 -14.49186 -14.48620 -14.48409
 Alpha  occ. eigenvalues --  -14.46453 -14.46306 -14.42223 -14.41738 -14.41448
 Alpha  occ. eigenvalues --  -14.39852 -10.44410 -10.43344 -10.40737 -10.39409
 Alpha  occ. eigenvalues --  -10.37073 -10.34903 -10.34744 -10.34667 -10.34379
 Alpha  occ. eigenvalues --  -10.34266 -10.34256 -10.32466 -10.31190 -10.31038
 Alpha  occ. eigenvalues --  -10.30847 -10.30513 -10.30467 -10.30419 -10.30149
 Alpha  occ. eigenvalues --  -10.29516 -10.29243 -10.28652 -10.28616 -10.27915
 Alpha  occ. eigenvalues --  -10.27882 -10.25756 -10.25384 -10.24843 -10.24818
 Alpha  occ. eigenvalues --  -10.24815 -10.24378 -10.23588 -10.23584 -10.23495
 Alpha  occ. eigenvalues --  -10.23000 -10.21293 -10.21222 -10.21064 -10.19882
 Alpha  occ. eigenvalues --  -10.19810 -10.19751  -1.18889  -1.15647  -1.14381
 Alpha  occ. eigenvalues --   -1.13563  -1.12687  -1.10034  -1.09412  -1.08831
 Alpha  occ. eigenvalues --   -1.08458  -1.06745  -1.05844  -1.04414  -1.03236
 Alpha  occ. eigenvalues --   -1.02636  -1.02116  -1.00431  -0.98434  -0.98137
 Alpha  occ. eigenvalues --   -0.98029  -0.97874  -0.97854  -0.94673  -0.93356
 Alpha  occ. eigenvalues --   -0.89041  -0.87364  -0.86929  -0.86613  -0.86372
 Alpha  occ. eigenvalues --   -0.86031  -0.84134  -0.83845  -0.82410  -0.81457
 Alpha  occ. eigenvalues --   -0.79855  -0.79804  -0.76917  -0.76882  -0.76236
 Alpha  occ. eigenvalues --   -0.75942  -0.74692  -0.74286  -0.73831  -0.73762
 Alpha  occ. eigenvalues --   -0.73293  -0.72670  -0.71866  -0.71452  -0.70728
 Alpha  occ. eigenvalues --   -0.70376  -0.70108  -0.68914  -0.68532  -0.68197
 Alpha  occ. eigenvalues --   -0.67672  -0.66180  -0.65999  -0.65135  -0.64718
 Alpha  occ. eigenvalues --   -0.64194  -0.63915  -0.63230  -0.63085  -0.62946
 Alpha  occ. eigenvalues --   -0.62781  -0.61809  -0.61544  -0.61384  -0.60504
 Alpha  occ. eigenvalues --   -0.60321  -0.59654  -0.58621  -0.57639  -0.57567
 Alpha  occ. eigenvalues --   -0.57079  -0.56753  -0.56229  -0.55926  -0.55401
 Alpha  occ. eigenvalues --   -0.55217  -0.55006  -0.54746  -0.54600  -0.54148
 Alpha  occ. eigenvalues --   -0.53764  -0.53667  -0.53567  -0.53391  -0.53209
 Alpha  occ. eigenvalues --   -0.52721  -0.52241  -0.51962  -0.51656  -0.51567
 Alpha  occ. eigenvalues --   -0.51330  -0.51047  -0.50469  -0.50334  -0.50283
 Alpha  occ. eigenvalues --   -0.49911  -0.49618  -0.48855  -0.48748  -0.48653
 Alpha  occ. eigenvalues --   -0.48503  -0.47874  -0.47799  -0.47656  -0.47532
 Alpha  occ. eigenvalues --   -0.47467  -0.46799  -0.46677  -0.46655  -0.46426
 Alpha  occ. eigenvalues --   -0.46067  -0.45939  -0.45675  -0.45666  -0.45541
 Alpha  occ. eigenvalues --   -0.45272  -0.45092  -0.44864  -0.44586  -0.44294
 Alpha  occ. eigenvalues --   -0.43894  -0.43618  -0.43044  -0.42901  -0.42590
 Alpha  occ. eigenvalues --   -0.42301  -0.42081  -0.41785  -0.41366  -0.41189
 Alpha  occ. eigenvalues --   -0.41048  -0.40751  -0.40475  -0.40391  -0.40084
 Alpha  occ. eigenvalues --   -0.39509  -0.39065  -0.39058  -0.38947  -0.38566
 Alpha  occ. eigenvalues --   -0.38361  -0.38227  -0.37582  -0.37167  -0.36986
 Alpha  occ. eigenvalues --   -0.36899  -0.36622  -0.36437  -0.36403  -0.36321
 Alpha  occ. eigenvalues --   -0.35960  -0.34170  -0.33265  -0.33119  -0.32541
 Alpha  occ. eigenvalues --   -0.32357  -0.31902  -0.31134  -0.30799  -0.30423
 Alpha  occ. eigenvalues --   -0.30256  -0.30081  -0.26909  -0.26118  -0.25187
 Alpha  occ. eigenvalues --   -0.24651  -0.22411
 Alpha virt. eigenvalues --   -0.13235  -0.12564  -0.11083  -0.09911  -0.08592
 Alpha virt. eigenvalues --   -0.07778  -0.05445  -0.04775  -0.04426  -0.04043
 Alpha virt. eigenvalues --   -0.03781  -0.03572  -0.02753  -0.02525  -0.02044

 Mulliken charges:
               1
     1  N   -0.750758
     2  H    0.416113
     3  H    0.404765
     4  H    0.427575
     5  C   -0.111970
     6  H    0.213935
     7  C    0.659138
     8  C   -0.384788
     9  H    0.209968
    10  H    0.194599
    11  O   -0.542294
    12  C    0.137811
    13  C   -0.181158
    14  H    0.146980
    15  C   -0.229755
    16  H    0.151890
    17  C   -0.122224
    18  H    0.167531
    19  C   -0.119947
    20  H    0.168474
    21  C   -0.123549
    22  H    0.169908
    23  N   -0.611610
    24  H    0.374828
    25  C   -0.053864
    26  H    0.194331
    27  C    0.614191
    28  C   -0.482169
    29  H    0.166179
    30  H    0.211247
    31  H    0.188982
    32  O   -0.531389
    33  N   -0.614905
    34  H    0.343625
    35  C   -0.069608
    36  H    0.211643
    37  C    0.614499
    38  C   -0.451610
    39  H    0.203586
    40  H    0.151821
    41  H    0.155599
    42  O   -0.517764
    43  N   -0.623346
    44  H    0.352917
    45  C   -0.048381
    46  H    0.174316
    47  C    0.635049
    48  C   -0.343404
    49  H    0.169161
    50  H    0.132460
    51  O   -0.575275
    52  C    0.162686
    53  C   -0.195167
    54  H    0.106124
    55  C   -0.210553
    56  H    0.111889
    57  C   -0.168685
    58  H    0.126845
    59  C   -0.198544
    60  H    0.154616
    61  O   -0.690533
    62  H    0.458950
    63  C    0.359930
    64  N   -0.611661
    65  H    0.361508
    66  C   -0.037728
    67  H    0.169175
    68  C    0.634176
    69  C   -0.248931
    70  H    0.152924
    71  H    0.135959
    72  O   -0.560949
    73  C   -0.099485
    74  H    0.160129
    75  C   -0.447344
    76  H    0.138900
    77  H    0.152300
    78  H    0.132540
    79  C   -0.437765
    80  H    0.135967
    81  H    0.127448
    82  H    0.148596
    83  N   -0.609549
    84  H    0.340198
    85  C   -0.048227
    86  H    0.222157
    87  C    0.599838
    88  C   -0.314983
    89  H    0.131470
    90  H    0.184394
    91  O   -0.600111
    92  C   -0.375771
    93  H    0.161849
    94  H    0.165268
    95  C    0.600343
    96  O   -0.582466
    97  O   -0.598437
    98  N   -0.578105
    99  H    0.416545
   100  C   -0.056627
   101  H    0.162338
   102  C    0.586836
   103  C   -0.283227
   104  H    0.145288
   105  H    0.183230
   106  O   -0.438171
   107  C   -0.317245
   108  H    0.142373
   109  H    0.237028
   110  C   -0.186441
   111  H    0.193007
   112  H    0.224123
   113  N   -0.595425
   114  H    0.348945
   115  N   -0.789333
   116  H    0.359287
   117  H    0.460060
   118  N   -0.767316
   119  H    0.370115
   120  H    0.367784
   121  C    0.800649
   122  O   -0.575946
   123  H    0.417587
 Sum of Mulliken charges =   1.00000

 Dipole moment (field-independent basis, Debye):
    X=            -10.1829    Y=              2.1973    Z=             40.0641  Tot=             41.3963
 Quadrupole moment (field-independent basis, Debye-Ang):
   XX=            -26.2736   YY=           -320.6198   ZZ=           -191.9424
   XY=            -90.1637   XZ=           -180.0907   YZ=             63.9053

 Normal termination of Gaussian 16 at Mon Aug  1 02:10:23 2022.
