 Gaussian 16, Revision C.01,
 Gaussian 16:  ES64L-G16RevC.01  3-Jul-2019

 -------------------------------------------------------------------
 # B3LYP/6-31G* guess=read geom=check nosymm integral(ultrafinegrid)
 -------------------------------------------------------------------

 ------------------------------------------------------
 Candidate Structure: Conf:607 Charge calc in gas phase
 ------------------------------------------------------
 Structure from the checkpoint file:  "conf-607.chk"
 Charge =  1 Multiplicity = 1

                          Input orientation:
 ---------------------------------------------------------------------
 Center     Atomic      Atomic             Coordinates (Angstroms)
 Number     Number       Type             X           Y           Z
 ---------------------------------------------------------------------
      1          7           0       -9.268662    7.642012    4.789136
      2          1           0       -9.853979    8.405762    4.444178
      3          1           0       -9.055909    7.793532    5.788866
      4          1           0       -9.745302    6.699639    4.683429
      5          6           0       -7.985941    7.443681    4.013846
      6          1           0       -8.137739    7.890099    3.026097
      7          6           0       -7.943393    5.895666    3.834621
      8          6           0       -6.790410    8.120518    4.723650
      9          1           0       -6.913717    9.206008    4.628946
     10          1           0       -5.882856    7.875621    4.161766
     11          8           0       -8.976680    5.262899    4.101240
     12          6           0       -6.652145    7.733089    6.182299
     13          6           0       -7.282665    8.504321    7.174437
     14          1           0       -7.782314    9.434456    6.903168
     15          6           0       -5.929273    6.593486    6.566796
     16          1           0       -5.405405    6.003923    5.818442
     17          6           0       -7.211967    8.133055    8.520634
     18          1           0       -7.693707    8.746263    9.276442
     19          6           0       -5.854175    6.230330    7.911320
     20          1           0       -5.280967    5.353690    8.198337
     21          6           0       -6.501166    6.991368    8.888726
     22          1           0       -6.436516    6.703943    9.933785
     23          7           0       -6.821058    5.377541    3.355064
     24          1           0       -5.948754    5.908036    3.307281
     25          6           0       -6.584752    3.944100    3.173523
     26          1           0       -7.040928    3.410489    4.015734
     27          6           0       -5.043072    3.806705    3.256336
     28          6           0       -7.181420    3.427038    1.856179
     29          1           0       -7.019999    2.350312    1.747337
     30          1           0       -6.728060    3.930936    0.996986
     31          1           0       -8.260244    3.605048    1.845236
     32          8           0       -4.347957    4.812629    3.456328
     33          7           0       -4.552347    2.572376    3.099399
     34          1           0       -5.140800    1.778946    2.850320
     35          6           0       -3.126917    2.276464    2.983904
     36          1           0       -2.642896    3.123718    2.487087
     37          6           0       -3.054106    1.021823    2.087386
     38          6           0       -2.468392    2.041490    4.352747
     39          1           0       -1.401360    1.826013    4.235559
     40          1           0       -2.938814    1.196501    4.865833
     41          1           0       -2.573071    2.937704    4.970856
     42          8           0       -4.038567    0.285468    1.972194
     43          7           0       -1.875892    0.816131    1.477700
     44          1           0       -1.097985    1.460019    1.588242
     45          6           0       -1.619420   -0.274277    0.549018
     46          1           0       -1.924735   -1.215217    1.024998
     47          6           0       -0.091743   -0.293130    0.352238
     48          6           0       -2.423252   -0.127229   -0.782128
     49          1           0       -2.260185   -1.034556   -1.379050
     50          1           0       -3.479104   -0.138712   -0.492133
     51          8           0        0.625375    0.586231    0.844801
     52          6           0       -2.078756    1.099089   -1.591901
     53          6           0       -2.566133    2.370488   -1.245714
     54          1           0       -3.278757    2.466331   -0.428831
     55          6           0       -1.228183    1.016236   -2.702735
     56          1           0       -0.868665    0.042214   -3.031037
     57          6           0       -2.162641    3.514371   -1.925037
     58          1           0       -2.528114    4.496544   -1.639024
     59          6           0       -0.832616    2.146186   -3.412437
     60          1           0       -0.193270    2.062125   -4.284629
     61          8           0       -0.841543    4.559384   -3.580819
     62          1           0       -0.079286    4.364236   -4.221221
     63          6           0       -1.256388    3.426060   -2.999069
     64          7           0        0.417937   -1.330961   -0.347444
     65          1           0       -0.212212   -1.981959   -0.797578
     66          6           0        1.862062   -1.578712   -0.468472
     67          1           0        2.301027   -1.189428    0.456358
     68          6           0        2.500577   -0.788247   -1.645896
     69          6           0        2.136634   -3.079499   -0.607763
     70          1           0        1.659477   -3.434590   -1.530606
     71          1           0        3.212425   -3.199658   -0.782111
     72          8           0        2.984528   -1.354933   -2.621931
     73          6           0        1.703632   -3.955375    0.584419
     74          1           0        0.633410   -3.783962    0.773603
     75          6           0        1.881235   -5.440226    0.232729
     76          1           0        2.935779   -5.673899    0.035813
     77          1           0        1.546181   -6.084308    1.053482
     78          1           0        1.310409   -5.711643   -0.662689
     79          6           0        2.463855   -3.609763    1.874191
     80          1           0        3.546221   -3.739926    1.733978
     81          1           0        2.287875   -2.578328    2.199856
     82          1           0        2.158944   -4.267827    2.695500
     83          7           0        2.511384    0.557494   -1.480336
     84          1           0        2.049014    0.949225   -0.664535
     85          6           0        2.969470    1.445772   -2.540508
     86          1           0        2.514127    1.126209   -3.482641
     87          6           0        4.490485    1.324678   -2.735165
     88          6           0        2.511064    2.890250   -2.232404
     89          1           0        1.437975    2.831395   -2.020212
     90          1           0        3.005310    3.232482   -1.312423
     91          8           0        5.248989    0.890388   -1.827328
     92          6           0        2.741875    3.928407   -3.354158
     93          1           0        3.808251    4.165137   -3.431115
     94          1           0        2.215078    4.844293   -3.069607
     95          6           0        2.239770    3.463220   -4.745483
     96          8           0        2.986525    2.658765   -5.382672
     97          8           0        1.124744    3.874236   -5.155395
     98          7           0        4.937587    1.721952   -3.924111
     99          1           0        4.211982    2.127776   -4.615829
    100          6           0        6.349275    1.630760   -4.246319
    101          1           0        6.900315    1.785812   -3.307291
    102          6           0        6.801090    2.779441   -5.150710
    103          6           0        6.747245    0.260460   -4.860093
    104          1           0        6.742947    0.358173   -5.947797
    105          1           0        5.965124   -0.462983   -4.604929
    106          8           0        7.613672    2.663388   -6.040593
    107          6           0        8.130297   -0.252725   -4.394004
    108          1           0        8.744184    0.581147   -4.033309
    109          1           0        8.679359   -0.683254   -5.237634
    110          6           0        8.063597   -1.345862   -3.317232
    111          1           0        9.081846   -1.578584   -2.977936
    112          1           0        7.629925   -2.259698   -3.746946
    113          7           0        7.247486   -0.925100   -2.170419
    114          1           0        6.640989   -0.087949   -2.248714
    115          7           0        7.664536   -2.791546   -0.827674
    116          1           0        7.256710   -3.498113   -0.233389
    117          1           0        8.393148   -3.098428   -1.454254
    118          7           0        5.936758   -1.318536   -0.316348
    119          1           0        5.925404   -1.621412    0.646511
    120          1           0        5.403644   -0.481576   -0.587312
    121          6           0        6.953935   -1.677694   -1.118977
    122          8           0        6.242419    3.953701   -4.800637
    123          1           0        6.575168    4.621708   -5.430022
 ---------------------------------------------------------------------

 SCF Done:  E(RB3LYP) =  -2974.03709864     A.U. after    1 cycles

 Alpha  occ. eigenvalues --  -19.26142 -19.24353 -19.21806 -19.19734 -19.19244
 Alpha  occ. eigenvalues --  -19.18792 -19.18171 -19.16407 -19.15738 -19.10322
 Alpha  occ. eigenvalues --  -19.10085 -14.58753 -14.48610 -14.47767 -14.45586
 Alpha  occ. eigenvalues --  -14.45560 -14.45018 -14.43944 -14.43025 -14.40178
 Alpha  occ. eigenvalues --  -14.39072 -10.42957 -10.42812 -10.40324 -10.38761
 Alpha  occ. eigenvalues --  -10.36943 -10.36580 -10.36264 -10.34347 -10.33780
 Alpha  occ. eigenvalues --  -10.33762 -10.33433 -10.31780 -10.31560 -10.31553
 Alpha  occ. eigenvalues --  -10.30643 -10.30512 -10.29902 -10.29839 -10.29755
 Alpha  occ. eigenvalues --  -10.29610 -10.29462 -10.29126 -10.28357 -10.27805
 Alpha  occ. eigenvalues --  -10.27142 -10.26237 -10.26178 -10.25932 -10.25466
 Alpha  occ. eigenvalues --  -10.24722 -10.24704 -10.24512 -10.23997 -10.23288
 Alpha  occ. eigenvalues --  -10.22802 -10.21896 -10.21781 -10.21539 -10.20482
 Alpha  occ. eigenvalues --  -10.19958 -10.19831  -1.18543  -1.15366  -1.13695
 Alpha  occ. eigenvalues --   -1.12830  -1.11733  -1.11553  -1.10850  -1.08968
 Alpha  occ. eigenvalues --   -1.07864  -1.06362  -1.05401  -1.04747  -1.03214
 Alpha  occ. eigenvalues --   -1.01628  -1.00780  -1.00115  -0.99651  -0.99581
 Alpha  occ. eigenvalues --   -0.97109  -0.97031  -0.96668  -0.94431  -0.92693
 Alpha  occ. eigenvalues --   -0.88609  -0.87961  -0.87336  -0.86779  -0.86070
 Alpha  occ. eigenvalues --   -0.85352  -0.84812  -0.83617  -0.82725  -0.81098
 Alpha  occ. eigenvalues --   -0.80190  -0.79523  -0.76901  -0.76649  -0.76564
 Alpha  occ. eigenvalues --   -0.76020  -0.74610  -0.74152  -0.73980  -0.73753
 Alpha  occ. eigenvalues --   -0.73328  -0.72393  -0.71100  -0.70922  -0.70597
 Alpha  occ. eigenvalues --   -0.69944  -0.68990  -0.68911  -0.68230  -0.67848
 Alpha  occ. eigenvalues --   -0.66681  -0.66571  -0.65832  -0.64989  -0.64776
 Alpha  occ. eigenvalues --   -0.63726  -0.63657  -0.63264  -0.62991  -0.62700
 Alpha  occ. eigenvalues --   -0.62102  -0.61357  -0.60706  -0.60495  -0.60247
 Alpha  occ. eigenvalues --   -0.59649  -0.59255  -0.58560  -0.58078  -0.57230
 Alpha  occ. eigenvalues --   -0.56828  -0.56446  -0.56383  -0.55859  -0.55767
 Alpha  occ. eigenvalues --   -0.55641  -0.55321  -0.55220  -0.54739  -0.54443
 Alpha  occ. eigenvalues --   -0.53960  -0.53421  -0.52998  -0.52856  -0.52652
 Alpha  occ. eigenvalues --   -0.52639  -0.52418  -0.51891  -0.51652  -0.51381
 Alpha  occ. eigenvalues --   -0.51255  -0.51034  -0.51004  -0.50967  -0.50710
 Alpha  occ. eigenvalues --   -0.49867  -0.49680  -0.49402  -0.48910  -0.48779
 Alpha  occ. eigenvalues --   -0.48372  -0.48358  -0.48319  -0.47959  -0.47543
 Alpha  occ. eigenvalues --   -0.47317  -0.47052  -0.46973  -0.46809  -0.46441
 Alpha  occ. eigenvalues --   -0.45805  -0.45741  -0.45489  -0.45338  -0.45104
 Alpha  occ. eigenvalues --   -0.44948  -0.44791  -0.44614  -0.44315  -0.44179
 Alpha  occ. eigenvalues --   -0.44128  -0.43952  -0.43741  -0.43518  -0.43351
 Alpha  occ. eigenvalues --   -0.42921  -0.42615  -0.42337  -0.41775  -0.41663
 Alpha  occ. eigenvalues --   -0.41187  -0.41051  -0.40694  -0.40569  -0.40084
 Alpha  occ. eigenvalues --   -0.39320  -0.39061  -0.38869  -0.38726  -0.38681
 Alpha  occ. eigenvalues --   -0.38464  -0.38276  -0.37645  -0.36752  -0.36412
 Alpha  occ. eigenvalues --   -0.36170  -0.36065  -0.35977  -0.35757  -0.35445
 Alpha  occ. eigenvalues --   -0.35173  -0.34678  -0.34639  -0.33668  -0.33339
 Alpha  occ. eigenvalues --   -0.33106  -0.32839  -0.32519  -0.32309  -0.30337
 Alpha  occ. eigenvalues --   -0.29981  -0.29376  -0.27371  -0.25790  -0.24812
 Alpha  occ. eigenvalues --   -0.24318  -0.22838
 Alpha virt. eigenvalues --   -0.12328  -0.11895  -0.11708  -0.08254  -0.07602
 Alpha virt. eigenvalues --   -0.07418  -0.05862  -0.04799  -0.04331  -0.03814
 Alpha virt. eigenvalues --   -0.03792  -0.03351  -0.02740  -0.02650  -0.02305

 Mulliken charges:
               1
     1  N   -0.757411
     2  H    0.409956
     3  H    0.403676
     4  H    0.433227
     5  C   -0.112886
     6  H    0.229668
     7  C    0.657970
     8  C   -0.394507
     9  H    0.189335
    10  H    0.211079
    11  O   -0.542277
    12  C    0.139498
    13  C   -0.234673
    14  H    0.141324
    15  C   -0.183830
    16  H    0.165803
    17  C   -0.118862
    18  H    0.164506
    19  C   -0.125084
    20  H    0.164212
    21  C   -0.121445
    22  H    0.166638
    23  N   -0.610364
    24  H    0.378924
    25  C   -0.060125
    26  H    0.201396
    27  C    0.631149
    28  C   -0.458402
    29  H    0.181533
    30  H    0.177796
    31  H    0.186156
    32  O   -0.553842
    33  N   -0.614507
    34  H    0.367690
    35  C   -0.052848
    36  H    0.190380
    37  C    0.627542
    38  C   -0.445611
    39  H    0.167267
    40  H    0.166575
    41  H    0.174554
    42  O   -0.548877
    43  N   -0.615165
    44  H    0.364425
    45  C   -0.033219
    46  H    0.177040
    47  C    0.643039
    48  C   -0.384263
    49  H    0.137782
    50  H    0.187441
    51  O   -0.559678
    52  C    0.166359
    53  C   -0.194056
    54  H    0.094504
    55  C   -0.197089
    56  H    0.113216
    57  C   -0.168735
    58  H    0.116986
    59  C   -0.223080
    60  H    0.180023
    61  O   -0.688974
    62  H    0.459474
    63  C    0.361168
    64  N   -0.606043
    65  H    0.342917
    66  C   -0.075945
    67  H    0.169764
    68  C    0.629341
    69  C   -0.277594
    70  H    0.156997
    71  H    0.146012
    72  O   -0.533182
    73  C   -0.072545
    74  H    0.120796
    75  C   -0.441076
    76  H    0.135848
    77  H    0.150607
    78  H    0.150665
    79  C   -0.448420
    80  H    0.118906
    81  H    0.149402
    82  H    0.156011
    83  N   -0.637162
    84  H    0.369839
    85  C   -0.041505
    86  H    0.208446
    87  C    0.647139
    88  C   -0.317761
    89  H    0.179958
    90  H    0.139650
    91  O   -0.632049
    92  C   -0.374844
    93  H    0.156912
    94  H    0.153595
    95  C    0.606157
    96  O   -0.592413
    97  O   -0.580391
    98  N   -0.613593
    99  H    0.434660
   100  C   -0.047913
   101  H    0.176549
   102  C    0.579190
   103  C   -0.293266
   104  H    0.194124
   105  H    0.175402
   106  O   -0.458749
   107  C   -0.295582
   108  H    0.168415
   109  H    0.174732
   110  C   -0.161370
   111  H    0.161961
   112  H    0.177037
   113  N   -0.634896
   114  H    0.438056
   115  N   -0.761804
   116  H    0.367995
   117  H    0.376572
   118  N   -0.793248
   119  H    0.354356
   120  H    0.425905
   121  C    0.791025
   122  O   -0.546061
   123  H    0.422970
 Sum of Mulliken charges =   1.00000

 Dipole moment (field-independent basis, Debye):
    X=            -15.2807    Y=             15.3452    Z=             28.2569  Tot=             35.6010
 Quadrupole moment (field-independent basis, Debye-Ang):
   XX=             38.6904   YY=           -125.8916   ZZ=           -302.3804
   XY=           -295.1010   XZ=           -169.3004   YZ=            183.1696

 Normal termination of Gaussian 16 at Mon Aug  1 02:10:20 2022.
