 Gaussian 16, Revision C.01,
 Gaussian 16:  ES64L-G16RevC.01  3-Jul-2019

 -------------------------------------------------------------------
 # B3LYP/6-31G* guess=read geom=check nosymm integral(ultrafinegrid)
 -------------------------------------------------------------------

 ------------------------------------------------------
 Candidate Structure: Conf:315 Charge calc in gas phase
 ------------------------------------------------------
 Structure from the checkpoint file:  "conf-315.chk"
 Charge =  1 Multiplicity = 1

                          Input orientation:
 ---------------------------------------------------------------------
 Center     Atomic      Atomic             Coordinates (Angstroms)
 Number     Number       Type             X           Y           Z
 ---------------------------------------------------------------------
      1          7           0      -10.527271   -2.066534    6.647810
      2          1           0      -10.980919   -2.532340    5.859996
      3          1           0      -11.239185   -1.620079    7.223259
      4          1           0      -10.054543   -2.787037    7.200089
      5          6           0       -9.509135   -1.100356    6.192078
      6          1           0       -9.933544   -0.451759    5.420937
      7          6           0       -8.321147   -1.875731    5.622480
      8          6           0       -9.031760   -0.224664    7.356198
      9          1           0       -8.583127   -0.883512    8.102687
     10          1           0       -9.917371    0.236443    7.802675
     11          8           0       -7.996541   -2.970331    6.058426
     12          6           0       -8.046760    0.828408    6.923275
     13          6           0       -6.681382    0.666763    7.144170
     14          1           0       -6.319397   -0.236625    7.626314
     15          6           0       -8.491969    1.966612    6.254804
     16          1           0       -9.555776    2.075231    6.063373
     17          6           0       -5.781233    1.646557    6.725359
     18          1           0       -4.718694    1.509664    6.902538
     19          6           0       -7.595557    2.947092    5.837292
     20          1           0       -7.963409    3.830003    5.329132
     21          6           0       -6.234306    2.789500    6.075303
     22          1           0       -5.531927    3.548178    5.752918
     23          7           0       -7.641162   -1.245568    4.636056
     24          1           0       -7.850159   -0.285403    4.402247
     25          6           0       -6.351277   -1.736676    4.187678
     26          1           0       -5.874480   -2.262525    5.019257
     27          6           0       -5.530495   -0.510099    3.816205
     28          6           0       -6.484998   -2.689496    3.002825
     29          1           0       -5.497339   -3.020734    2.670235
     30          1           0       -6.977148   -2.180785    2.171852
     31          1           0       -7.077767   -3.560396    3.285531
     32          8           0       -6.027953    0.459098    3.266123
     33          7           0       -4.205981   -0.572837    4.142436
     34          1           0       -3.814159   -1.492972    4.248512
     35          6           0       -3.295688    0.416029    3.594536
     36          1           0       -3.830148    1.366573    3.598910
     37          6           0       -2.947048    0.040482    2.156184
     38          6           0       -2.039785    0.505421    4.447992
     39          1           0       -1.352508    1.255195    4.046522
     40          1           0       -1.518764   -0.457950    4.462029
     41          1           0       -2.302354    0.773047    5.470802
     42          8           0       -2.907194   -1.118004    1.767918
     43          7           0       -2.667752    1.101316    1.343089
     44          1           0       -2.412538    1.963086    1.790614
     45          6           0       -2.052052    0.854946    0.042741
     46          1           0       -2.456838   -0.091830   -0.310518
     47          6           0       -0.542692    0.731445    0.273447
     48          6           0       -2.384537    1.975163   -0.942703
     49          1           0       -3.464867    2.116266   -0.914004
     50          1           0       -1.925500    2.902779   -0.596667
     51          8           0        0.167545    1.724400    0.496969
     52          6           0       -1.963749    1.644430   -2.352149
     53          6           0       -0.638007    1.747291   -2.780095
     54          1           0        0.132942    2.073388   -2.091218
     55          6           0       -2.914330    1.202288   -3.273771
     56          1           0       -3.949325    1.115862   -2.971805
     57          6           0       -0.283856    1.434979   -4.095369
     58          1           0        0.743163    1.551309   -4.417477
     59          6           0       -2.570849    0.875565   -4.580937
     60          1           0       -3.314503    0.535229   -5.291314
     61          8           0       -0.976163    0.689238   -6.299053
     62          1           0       -0.061078    0.364910   -6.449652
     63          6           0       -1.245655    0.977639   -5.005807
     64          7           0       -0.092899   -0.543345    0.303082
     65          1           0       -0.712954   -1.307246    0.090422
     66          6           0        1.307671   -0.858304    0.487078
     67          1           0        1.815528    0.084759    0.688391
     68          6           0        1.830580   -1.432152   -0.826653
     69          6           0        1.521148   -1.838891    1.629489
     70          1           0        1.135432   -2.814995    1.331865
     71          1           0        2.596140   -1.953138    1.793125
     72          8           0        1.238487   -2.324183   -1.419034
     73          6           0        0.854441   -1.402914    2.936802
     74          1           0       -0.225877   -1.408229    2.769342
     75          6           0        1.173337   -2.397922    4.045989
     76          1           0        2.246173   -2.406695    4.251737
     77          1           0        0.654064   -2.128519    4.969751
     78          1           0        0.872018   -3.411906    3.772994
     79          6           0        1.273253    0.003624    3.345336
     80          1           0        2.350887    0.036515    3.531002
     81          1           0        1.039462    0.748600    2.585644
     82          1           0        0.767837    0.300664    4.269932
     83          7           0        2.999588   -0.915777   -1.269710
     84          1           0        3.423223   -0.121207   -0.815048
     85          6           0        3.501117   -1.246597   -2.593926
     86          1           0        3.367390   -2.320060   -2.741938
     87          6           0        4.970261   -0.849395   -2.601409
     88          6           0        2.710780   -0.483231   -3.667677
     89          1           0        1.652068   -0.644033   -3.440260
     90          1           0        2.913876    0.583827   -3.552663
     91          8           0        5.334183    0.212878   -2.129159
     92          6           0        2.995824   -0.903720   -5.106825
     93          1           0        2.820014   -1.966728   -5.265303
     94          1           0        4.015320   -0.647882   -5.394281
     95          6           0        2.049380   -0.117412   -6.015050
     96          8           0        2.134786    1.120244   -5.975920
     97          8           0        1.255874   -0.775195   -6.710683
     98          7           0        5.833192   -1.741875   -3.155752
     99          1           0        5.463289   -2.502365   -3.698857
    100          6           0        7.212762   -1.362032   -3.405968
    101          1           0        7.582013   -0.837456   -2.522368
    102          6           0        7.347941   -0.403270   -4.566733
    103          6           0        8.051367   -2.622211   -3.651453
    104          1           0        7.662257   -3.136473   -4.528233
    105          1           0        7.889501   -3.276981   -2.791445
    106          8           0        8.174950    0.469992   -4.651281
    107          6           0        9.534388   -2.328770   -3.801935
    108          1           0        9.891971   -1.766427   -2.933307
    109          1           0        9.705808   -1.700525   -4.671530
    110          6           0       10.376456   -3.590388   -3.935056
    111          1           0       10.288734   -4.196999   -3.031474
    112          1           0       11.436295   -3.337843   -4.033491
    113          7           0        9.986521   -4.475448   -5.049510
    114          1           0        9.220505   -5.101227   -4.846397
    115          7           0       10.770896   -2.999055   -6.674034
    116          1           0       11.052996   -2.862370   -7.631064
    117          1           0       11.370193   -2.586252   -5.978279
    118          7           0        9.454064   -4.842684   -7.282947
    119          1           0        9.739667   -4.708401   -8.241599
    120          1           0        9.210209   -5.794901   -7.045232
    121          6           0       10.088762   -4.109637   -6.334002
    122          8           0        6.464373   -0.655652   -5.558441
    123          1           0        6.670010   -0.032895   -6.266107
 ---------------------------------------------------------------------

 SCF Done:  E(RB3LYP) =  -2973.89880899     A.U. after    1 cycles

 Alpha  occ. eigenvalues --  -19.25251 -19.24951 -19.19996 -19.19930 -19.16904
 Alpha  occ. eigenvalues --  -19.15692 -19.13562 -19.12594 -19.09454 -19.02213
 Alpha  occ. eigenvalues --  -19.01601 -14.63337 -14.53816 -14.53629 -14.53500
 Alpha  occ. eigenvalues --  -14.47514 -14.43382 -14.41372 -14.40262 -14.38402
 Alpha  occ. eigenvalues --  -14.37491 -10.49815 -10.42093 -10.40773 -10.37826
 Alpha  occ. eigenvalues --  -10.36773 -10.36607 -10.33991 -10.33539 -10.32441
 Alpha  occ. eigenvalues --  -10.32417 -10.30792 -10.30745 -10.30393 -10.30105
 Alpha  occ. eigenvalues --  -10.29766 -10.29448 -10.29373 -10.28959 -10.28788
 Alpha  occ. eigenvalues --  -10.28266 -10.28220 -10.27999 -10.25978 -10.24994
 Alpha  occ. eigenvalues --  -10.24935 -10.24893 -10.24390 -10.21806 -10.21284
 Alpha  occ. eigenvalues --  -10.20827 -10.20185 -10.20180 -10.19880 -10.19296
 Alpha  occ. eigenvalues --  -10.16956 -10.16331 -10.16145 -10.15612 -10.14726
 Alpha  occ. eigenvalues --  -10.14322 -10.13662  -1.19515  -1.18479  -1.16761
 Alpha  occ. eigenvalues --   -1.16275  -1.12411  -1.09041  -1.08408  -1.07732
 Alpha  occ. eigenvalues --   -1.07597  -1.06947  -1.05537  -1.04673  -1.04252
 Alpha  occ. eigenvalues --   -1.00229  -0.98679  -0.98424  -0.97076  -0.96917
 Alpha  occ. eigenvalues --   -0.96460  -0.95054  -0.94135  -0.93424  -0.91969
 Alpha  occ. eigenvalues --   -0.87621  -0.87164  -0.86025  -0.85592  -0.84745
 Alpha  occ. eigenvalues --   -0.84141  -0.83624  -0.82514  -0.81391  -0.80206
 Alpha  occ. eigenvalues --   -0.79961  -0.78865  -0.77604  -0.76919  -0.76509
 Alpha  occ. eigenvalues --   -0.75913  -0.75576  -0.75128  -0.73318  -0.72692
 Alpha  occ. eigenvalues --   -0.71701  -0.71337  -0.71296  -0.71046  -0.70660
 Alpha  occ. eigenvalues --   -0.70403  -0.69301  -0.68590  -0.68136  -0.67748
 Alpha  occ. eigenvalues --   -0.67056  -0.66562  -0.66077  -0.65646  -0.65088
 Alpha  occ. eigenvalues --   -0.64111  -0.63684  -0.63194  -0.62287  -0.61743
 Alpha  occ. eigenvalues --   -0.61259  -0.61150  -0.60381  -0.60160  -0.59512
 Alpha  occ. eigenvalues --   -0.59279  -0.58409  -0.58220  -0.58135  -0.57431
 Alpha  occ. eigenvalues --   -0.57247  -0.56456  -0.56336  -0.55936  -0.55579
 Alpha  occ. eigenvalues --   -0.55542  -0.54670  -0.54192  -0.53957  -0.53486
 Alpha  occ. eigenvalues --   -0.52881  -0.52581  -0.52047  -0.51626  -0.51499
 Alpha  occ. eigenvalues --   -0.50950  -0.50918  -0.50688  -0.50511  -0.50287
 Alpha  occ. eigenvalues --   -0.50260  -0.50064  -0.49669  -0.49141  -0.48850
 Alpha  occ. eigenvalues --   -0.48403  -0.48165  -0.47259  -0.47193  -0.46817
 Alpha  occ. eigenvalues --   -0.46710  -0.46146  -0.46000  -0.45684  -0.45481
 Alpha  occ. eigenvalues --   -0.45367  -0.45216  -0.44915  -0.44774  -0.44575
 Alpha  occ. eigenvalues --   -0.44421  -0.44382  -0.44164  -0.44076  -0.43766
 Alpha  occ. eigenvalues --   -0.43640  -0.43450  -0.42981  -0.42896  -0.42667
 Alpha  occ. eigenvalues --   -0.42146  -0.41771  -0.41561  -0.41345  -0.41089
 Alpha  occ. eigenvalues --   -0.40583  -0.40396  -0.39810  -0.39332  -0.39321
 Alpha  occ. eigenvalues --   -0.39184  -0.38351  -0.37895  -0.37654  -0.37520
 Alpha  occ. eigenvalues --   -0.37160  -0.36266  -0.35754  -0.35685  -0.35555
 Alpha  occ. eigenvalues --   -0.35270  -0.35206  -0.34833  -0.34665  -0.34168
 Alpha  occ. eigenvalues --   -0.34092  -0.33984  -0.33566  -0.33356  -0.31831
 Alpha  occ. eigenvalues --   -0.31401  -0.31313  -0.30604  -0.30453  -0.30089
 Alpha  occ. eigenvalues --   -0.29415  -0.28989  -0.28477  -0.26847  -0.26613
 Alpha  occ. eigenvalues --   -0.26478  -0.25690  -0.21682  -0.18558  -0.17437
 Alpha  occ. eigenvalues --   -0.17149  -0.16008
 Alpha virt. eigenvalues --   -0.14880  -0.13074  -0.11131  -0.10677  -0.09973
 Alpha virt. eigenvalues --   -0.09904  -0.06985  -0.06242  -0.06078  -0.05884
 Alpha virt. eigenvalues --   -0.05784  -0.04844  -0.04260  -0.03356  -0.02147

 Mulliken charges:
               1
     1  N   -0.712640
     2  H    0.433857
     3  H    0.423080
     4  H    0.427014
     5  C   -0.150444
     6  H    0.218914
     7  C    0.628223
     8  C   -0.374766
     9  H    0.188867
    10  H    0.174729
    11  O   -0.520342
    12  C    0.157175
    13  C   -0.182384
    14  H    0.144912
    15  C   -0.195024
    16  H    0.126873
    17  C   -0.125295
    18  H    0.158590
    19  C   -0.115825
    20  H    0.163935
    21  C   -0.108979
    22  H    0.163538
    23  N   -0.588167
    24  H    0.364856
    25  C   -0.049451
    26  H    0.179145
    27  C    0.617256
    28  C   -0.448071
    29  H    0.189901
    30  H    0.180600
    31  H    0.169658
    32  O   -0.519933
    33  N   -0.586892
    34  H    0.339389
    35  C   -0.086957
    36  H    0.183138
    37  C    0.636651
    38  C   -0.468824
    39  H    0.182357
    40  H    0.175296
    41  H    0.158656
    42  O   -0.541958
    43  N   -0.585629
    44  H    0.333968
    45  C   -0.052574
    46  H    0.179712
    47  C    0.643940
    48  C   -0.363708
    49  H    0.139667
    50  H    0.154244
    51  O   -0.561254
    52  C    0.148726
    53  C   -0.215290
    54  H    0.130552
    55  C   -0.198237
    56  H    0.089056
    57  C   -0.208502
    58  H    0.199242
    59  C   -0.163483
    60  H    0.113717
    61  O   -0.689113
    62  H    0.455461
    63  C    0.338938
    64  N   -0.574271
    65  H    0.354992
    66  C   -0.086308
    67  H    0.179086
    68  C    0.645604
    69  C   -0.266141
    70  H    0.150863
    71  H    0.133061
    72  O   -0.542873
    73  C   -0.078782
    74  H    0.136698
    75  C   -0.443752
    76  H    0.141303
    77  H    0.128544
    78  H    0.140854
    79  C   -0.479742
    80  H    0.135300
    81  H    0.190403
    82  H    0.126449
    83  N   -0.621905
    84  H    0.344689
    85  C   -0.035724
    86  H    0.151064
    87  C    0.626575
    88  C   -0.276135
    89  H    0.186063
    90  H    0.169199
    91  O   -0.525955
    92  C   -0.353875
    93  H    0.109256
    94  H    0.124565
    95  C    0.553152
    96  O   -0.587488
    97  O   -0.605235
    98  N   -0.617207
    99  H    0.337382
   100  C   -0.021937
   101  H    0.207834
   102  C    0.599972
   103  C   -0.314517
   104  H    0.140104
   105  H    0.169734
   106  O   -0.461842
   107  C   -0.285990
   108  H    0.193733
   109  H    0.176038
   110  C   -0.209946
   111  H    0.204594
   112  H    0.186316
   113  N   -0.561964
   114  H    0.372688
   115  N   -0.716843
   116  H    0.385053
   117  H    0.393640
   118  N   -0.724724
   119  H    0.381234
   120  H    0.384928
   121  C    0.756480
   122  O   -0.551357
   123  H    0.426978
 Sum of Mulliken charges =   1.00000

 Dipole moment (field-independent basis, Debye):
    X=              1.3554    Y=            -26.7436    Z=             23.0880  Tot=             35.3570
 Quadrupole moment (field-independent basis, Debye-Ang):
   XX=            530.2365   YY=           -273.6873   ZZ=           -126.1800
   XY=           -149.0978   XZ=           -548.3753   YZ=            102.3508

 Normal termination of Gaussian 16 at Mon Aug  1 02:10:19 2022.
