 Gaussian 16, Revision C.01,
 Gaussian 16:  ES64L-G16RevC.01  3-Jul-2019

 -------------------------------------------------------------------
 # B3LYP/6-31G* guess=read geom=check nosymm integral(ultrafinegrid)
 -------------------------------------------------------------------

 ------------------------------------------------------
 Candidate Structure: Conf:365 Charge calc in gas phase
 ------------------------------------------------------
 Structure from the checkpoint file:  "conf-365.chk"
 Charge =  1 Multiplicity = 1

                          Input orientation:
 ---------------------------------------------------------------------
 Center     Atomic      Atomic             Coordinates (Angstroms)
 Number     Number       Type             X           Y           Z
 ---------------------------------------------------------------------
      1          7           0       -4.539406    5.328143    2.840988
      2          1           0       -3.633034    4.941422    1.361501
      3          1           0       -3.951302    5.963188    3.383338
      4          1           0       -5.336754    5.873724    2.503770
      5          6           0       -5.085404    4.290113    3.739610
      6          1           0       -4.320718    3.515241    3.869631
      7          6           0       -6.336784    3.717405    3.047315
      8          6           0       -5.493046    4.827110    5.140016
      9          1           0       -5.899461    3.988254    5.719669
     10          1           0       -6.310094    5.543134    4.996949
     11          8           0       -7.207920    4.487944    2.645033
     12          6           0       -4.345047    5.467376    5.888899
     13          6           0       -3.402244    4.678874    6.565929
     14          1           0       -3.522104    3.597388    6.582468
     15          6           0       -4.176490    6.859577    5.896009
     16          1           0       -4.910497    7.489384    5.397563
     17          6           0       -2.323713    5.263147    7.228496
     18          1           0       -1.609063    4.635572    7.754330
     19          6           0       -3.095605    7.448677    6.557230
     20          1           0       -2.987790    8.529968    6.557134
     21          6           0       -2.165741    6.651485    7.224215
     22          1           0       -1.327852    7.107506    7.744177
     23          7           0       -6.385528    2.370196    2.953248
     24          1           0       -5.612179    1.801839    3.285510
     25          6           0       -7.423077    1.588430    2.291183
     26          1           0       -8.347357    1.629563    2.886033
     27          6           0       -6.900499    0.130823    2.308076
     28          6           0       -7.730255    2.081674    0.864449
     29          1           0       -8.582972    1.542457    0.436662
     30          1           0       -6.863189    1.949432    0.211124
     31          1           0       -7.989314    3.140293    0.902457
     32          8           0       -5.854659   -0.163910    2.892545
     33          7           0       -7.651298   -0.788165    1.651957
     34          1           0       -8.413701   -0.468589    1.068675
     35          6           0       -7.177384   -2.161572    1.418519
     36          1           0       -6.557121   -2.416594    2.280904
     37          6           0       -6.321432   -2.152748    0.126987
     38          6           0       -8.355455   -3.121486    1.294978
     39          1           0       -7.993898   -4.149290    1.193326
     40          1           0       -8.944265   -2.893228    0.401502
     41          1           0       -8.993109   -3.061112    2.181902
     42          8           0       -6.828142   -2.319350   -0.980090
     43          7           0       -5.008377   -1.872722    0.320167
     44          1           0       -4.633542   -1.753812    1.256671
     45          6           0       -4.074517   -1.633558   -0.769620
     46          1           0       -4.095340   -2.501351   -1.442769
     47          6           0       -2.674868   -1.513128   -0.134479
     48          6           0       -4.433760   -0.388544   -1.628510
     49          1           0       -3.905516   -0.477895   -2.587427
     50          1           0       -5.496128   -0.489905   -1.878153
     51          8           0       -2.514491   -1.569387    1.084500
     52          6           0       -4.136915    0.980707   -1.035523
     53          6           0       -3.972034    1.205022    0.337548
     54          1           0       -4.052467    0.395315    1.048340
     55          6           0       -4.016085    2.088628   -1.890624
     56          1           0       -4.139420    1.950628   -2.963201
     57          6           0       -3.669846    2.470777    0.833622
     58          1           0       -3.486083    2.606992    1.894244
     59          6           0       -3.748905    3.366700   -1.402694
     60          1           0       -3.668878    4.218008   -2.071717
     61          8           0       -3.249328    4.813142    0.435032
     62          1           0       -1.583505    4.993166   -0.097087
     63          6           0       -3.572562    3.561166   -0.028429
     64          7           0       -1.649380   -1.275552   -0.989142
     65          1           0       -1.785047   -1.269589   -1.992035
     66          6           0       -0.358941   -0.797409   -0.500249
     67          1           0       -0.554525   -0.077114    0.300037
     68          6           0        0.350904   -0.126850   -1.679739
     69          6           0        0.500394   -1.966619    0.046228
     70          1           0       -0.136089   -2.512669    0.751106
     71          1           0        0.709053   -2.638940   -0.796144
     72          8           0        0.325827   -0.663384   -2.798665
     73          6           0        1.816046   -1.578370    0.749680
     74          1           0        2.421197   -0.976642    0.055954
     75          6           0        1.581678   -0.745804    2.020490
     76          1           0        0.937202   -1.283906    2.726350
     77          1           0        2.530545   -0.531515    2.526637
     78          1           0        1.105013    0.216606    1.807297
     79          6           0        2.614109   -2.849603    1.082148
     80          1           0        2.057410   -3.493258    1.774614
     81          1           0        2.823619   -3.439301    0.180008
     82          1           0        3.569704   -2.598943    1.561150
     83          7           0        1.045752    0.998703   -1.404569
     84          1           0        0.800507    1.543654   -0.574204
     85          6           0        1.806428    1.732865   -2.429040
     86          1           0        1.216787    1.732474   -3.355999
     87          6           0        3.144370    1.002629   -2.721917
     88          6           0        2.094351    3.173357   -1.983871
     89          1           0        2.571001    3.157510   -0.997951
     90          1           0        2.850862    3.565746   -2.668841
     91          8           0        4.237223    1.440757   -2.372824
     92          6           0        0.898832    4.133357   -1.986819
     93          1           0        0.273601    3.988710   -2.878691
     94          1           0        1.255452    5.167521   -2.053747
     95          6           0       -0.022133    4.065884   -0.779797
     96          8           0       -0.864581    5.092955   -0.780042
     97          8           0        0.000112    3.189506    0.075000
     98          7           0        3.012488   -0.162856   -3.414903
     99          1           0        2.071141   -0.520210   -3.582022
    100          6           0        4.187291   -0.950773   -3.728369
    101          1           0        4.975795   -0.235520   -4.005153
    102          6           0        3.957057   -1.842861   -4.945810
    103          6           0        4.688645   -1.758420   -2.508639
    104          1           0        4.013298   -2.604930   -2.333783
    105          1           0        4.615191   -1.086613   -1.647537
    106          8           0        4.536178   -2.892096   -5.140670
    107          6           0        6.134381   -2.254369   -2.641999
    108          1           0        6.795183   -1.394356   -2.823154
    109          1           0        6.211257   -2.932181   -3.496672
    110          6           0        6.587977   -2.971366   -1.370072
    111          1           0        5.946239   -3.838175   -1.173517
    112          1           0        6.534008   -2.291687   -0.509299
    113          7           0        7.976191   -3.453120   -1.527689
    114          1           0        8.507856   -3.063558   -2.296632
    115          7           0        8.032715   -4.672515    0.443516
    116          1           0        8.371551   -5.469949    0.962687
    117          1           0        7.208473   -4.205971    0.793538
    118          7           0        9.790934   -4.822474   -1.054331
    119          1           0       10.381203   -5.272734   -0.369331
    120          1           0       10.167576   -4.709575   -1.984799
    121          6           0        8.595837   -4.306522   -0.716801
    122          8           0        3.060864   -1.329224   -5.806160
    123          1           0        2.997129   -1.954860   -6.553806
 ---------------------------------------------------------------------

 SCF Done:  E(RB3LYP) =  -2974.05842383     A.U. after    1 cycles

 Alpha  occ. eigenvalues --  -19.28296 -19.22872 -19.22790 -19.20373 -19.19448
 Alpha  occ. eigenvalues --  -19.19269 -19.18756 -19.18105 -19.17564 -19.16097
 Alpha  occ. eigenvalues --  -19.15875 -14.54516 -14.54342 -14.54289 -14.43031
 Alpha  occ. eigenvalues --  -14.42723 -14.42263 -14.41915 -14.40681 -14.40281
 Alpha  occ. eigenvalues --  -14.39136 -10.50763 -10.41025 -10.37306 -10.37206
 Alpha  occ. eigenvalues --  -10.36106 -10.35663 -10.35018 -10.34712 -10.33406
 Alpha  occ. eigenvalues --  -10.33049 -10.32731 -10.30600 -10.30459 -10.29713
 Alpha  occ. eigenvalues --  -10.29190 -10.29012 -10.28908 -10.28484 -10.28358
 Alpha  occ. eigenvalues --  -10.28161 -10.25786 -10.25751 -10.25561 -10.24911
 Alpha  occ. eigenvalues --  -10.24571 -10.24461 -10.24249 -10.24111 -10.23667
 Alpha  occ. eigenvalues --  -10.23602 -10.23588 -10.23535 -10.23523 -10.23404
 Alpha  occ. eigenvalues --  -10.23352 -10.23165 -10.22759 -10.22658 -10.22640
 Alpha  occ. eigenvalues --  -10.22616 -10.22560  -1.19406  -1.19181  -1.14615
 Alpha  occ. eigenvalues --   -1.11312  -1.10422  -1.10279  -1.10051  -1.09562
 Alpha  occ. eigenvalues --   -1.08281  -1.08141  -1.07932  -1.07605  -1.07384
 Alpha  occ. eigenvalues --   -1.05951  -1.00020  -0.99359  -0.98466  -0.98375
 Alpha  occ. eigenvalues --   -0.97196  -0.96832  -0.95400  -0.92207  -0.89980
 Alpha  occ. eigenvalues --   -0.89312  -0.87817  -0.86752  -0.85849  -0.84390
 Alpha  occ. eigenvalues --   -0.83220  -0.82458  -0.82152  -0.81110  -0.80335
 Alpha  occ. eigenvalues --   -0.79716  -0.78928  -0.78679  -0.78418  -0.77002
 Alpha  occ. eigenvalues --   -0.76840  -0.76568  -0.74845  -0.73614  -0.72410
 Alpha  occ. eigenvalues --   -0.72036  -0.71927  -0.71411  -0.70880  -0.69583
 Alpha  occ. eigenvalues --   -0.68346  -0.67854  -0.67751  -0.66909  -0.66442
 Alpha  occ. eigenvalues --   -0.65868  -0.65259  -0.65041  -0.64882  -0.64696
 Alpha  occ. eigenvalues --   -0.63800  -0.63435  -0.63182  -0.62566  -0.62296
 Alpha  occ. eigenvalues --   -0.61855  -0.61474  -0.61257  -0.61079  -0.60468
 Alpha  occ. eigenvalues --   -0.58870  -0.58371  -0.57705  -0.57529  -0.56934
 Alpha  occ. eigenvalues --   -0.56797  -0.55912  -0.55586  -0.55476  -0.55151
 Alpha  occ. eigenvalues --   -0.54887  -0.54466  -0.54169  -0.53296  -0.53128
 Alpha  occ. eigenvalues --   -0.53027  -0.52485  -0.52408  -0.51904  -0.51691
 Alpha  occ. eigenvalues --   -0.51660  -0.51285  -0.51087  -0.50788  -0.50663
 Alpha  occ. eigenvalues --   -0.50253  -0.50162  -0.49798  -0.49680  -0.49310
 Alpha  occ. eigenvalues --   -0.49008  -0.48612  -0.48419  -0.48198  -0.48115
 Alpha  occ. eigenvalues --   -0.47338  -0.47175  -0.47140  -0.47084  -0.46503
 Alpha  occ. eigenvalues --   -0.46346  -0.46219  -0.45996  -0.45848  -0.45841
 Alpha  occ. eigenvalues --   -0.45764  -0.45552  -0.45482  -0.45452  -0.45300
 Alpha  occ. eigenvalues --   -0.45143  -0.44900  -0.44344  -0.44077  -0.43833
 Alpha  occ. eigenvalues --   -0.43726  -0.43602  -0.43315  -0.43078  -0.42850
 Alpha  occ. eigenvalues --   -0.42799  -0.42509  -0.42315  -0.41959  -0.41908
 Alpha  occ. eigenvalues --   -0.41595  -0.41325  -0.41023  -0.40925  -0.40866
 Alpha  occ. eigenvalues --   -0.40615  -0.40395  -0.40273  -0.39929  -0.39578
 Alpha  occ. eigenvalues --   -0.39099  -0.38971  -0.38820  -0.38376  -0.38285
 Alpha  occ. eigenvalues --   -0.37823  -0.36464  -0.36403  -0.35543  -0.34670
 Alpha  occ. eigenvalues --   -0.33841  -0.33193  -0.32769  -0.32712  -0.32309
 Alpha  occ. eigenvalues --   -0.31932  -0.31374  -0.31316  -0.30997  -0.30463
 Alpha  occ. eigenvalues --   -0.30119  -0.29824  -0.29598  -0.28912  -0.28717
 Alpha  occ. eigenvalues --   -0.28560  -0.26029
 Alpha virt. eigenvalues --   -0.14403  -0.10453  -0.08094  -0.06805  -0.06184
 Alpha virt. eigenvalues --   -0.05787  -0.05255  -0.05153  -0.04983  -0.04783
 Alpha virt. eigenvalues --   -0.04685  -0.04344  -0.04084  -0.03265  -0.02698

 Mulliken charges:
               1
     1  N   -0.780817
     2  H    0.466956
     3  H    0.330550
     4  H    0.343511
     5  C   -0.050416
     6  H    0.144505
     7  C    0.642926
     8  C   -0.369961
     9  H    0.159521
    10  H    0.173877
    11  O   -0.541070
    12  C    0.160226
    13  C   -0.178457
    14  H    0.128176
    15  C   -0.202318
    16  H    0.134446
    17  C   -0.126476
    18  H    0.136159
    19  C   -0.125844
    20  H    0.140456
    21  C   -0.129177
    22  H    0.138154
    23  N   -0.634155
    24  H    0.359593
    25  C   -0.016426
    26  H    0.183074
    27  C    0.622935
    28  C   -0.485012
    29  H    0.137563
    30  H    0.181160
    31  H    0.214164
    32  O   -0.545631
    33  N   -0.600771
    34  H    0.343198
    35  C   -0.056521
    36  H    0.179142
    37  C    0.624325
    38  C   -0.460907
    39  H    0.167460
    40  H    0.175642
    41  H    0.159107
    42  O   -0.532496
    43  N   -0.619259
    44  H    0.373753
    45  C   -0.049501
    46  H    0.179487
    47  C    0.629006
    48  C   -0.360705
    49  H    0.137544
    50  H    0.205951
    51  O   -0.541093
    52  C    0.153920
    53  C   -0.210216
    54  H    0.157539
    55  C   -0.201762
    56  H    0.125800
    57  C   -0.177910
    58  H    0.129869
    59  C   -0.158711
    60  H    0.141995
    61  O   -0.735387
    62  H    0.457343
    63  C    0.332273
    64  N   -0.625358
    65  H    0.349516
    66  C   -0.015148
    67  H    0.186324
    68  C    0.597877
    69  C   -0.261916
    70  H    0.176888
    71  H    0.137013
    72  O   -0.571256
    73  C   -0.085705
    74  H    0.126619
    75  C   -0.451312
    76  H    0.160208
    77  H    0.137139
    78  H    0.158888
    79  C   -0.446283
    80  H    0.158154
    81  H    0.125557
    82  H    0.117512
    83  N   -0.630415
    84  H    0.394974
    85  C   -0.056175
    86  H    0.176805
    87  C    0.625368
    88  C   -0.294511
    89  H    0.173389
    90  H    0.173964
    91  O   -0.535208
    92  C   -0.367061
    93  H    0.183652
    94  H    0.190885
    95  C    0.602701
    96  O   -0.585579
    97  O   -0.505473
    98  N   -0.635797
    99  H    0.385821
   100  C   -0.029078
   101  H    0.201588
   102  C    0.580311
   103  C   -0.274386
   104  H    0.158666
   105  H    0.181701
   106  O   -0.470158
   107  C   -0.329740
   108  H    0.162657
   109  H    0.203581
   110  C   -0.147244
   111  H    0.190497
   112  H    0.188651
   113  N   -0.608311
   114  H    0.370645
   115  N   -0.756690
   116  H    0.388855
   117  H    0.398372
   118  N   -0.763636
   119  H    0.388172
   120  H    0.388817
   121  C    0.842450
   122  O   -0.543410
   123  H    0.425327
 Sum of Mulliken charges =   1.00000

 Dipole moment (field-independent basis, Debye):
    X=             31.8622    Y=            -15.4177    Z=             -1.3815  Tot=             35.4233
 Quadrupole moment (field-independent basis, Debye-Ang):
   XX=            -23.4888   YY=           -262.9763   ZZ=           -317.2011
   XY=           -162.3588   XZ=            -42.4938   YZ=             19.6047

 Normal termination of Gaussian 16 at Mon Aug  1 02:10:25 2022.
