 Gaussian 16, Revision C.01,
 Gaussian 16:  ES64L-G16RevC.01  3-Jul-2019

 ----------------------------------------------------------------------
 # B3LYP/6-31G* empiricaldispersion=gd3bj guess=read geom=check nosymm
 integral(ultrafinegrid)
 ----------------------------------------------------------------------

 ------------------------------------------------------
 Candidate Structure: Conf:961 Charge calc in gas phase
 ------------------------------------------------------
 Structure from the checkpoint file:  "conf-961.chk"
 Charge =  1 Multiplicity = 1

                          Input orientation:
 ---------------------------------------------------------------------
 Center     Atomic      Atomic             Coordinates (Angstroms)
 Number     Number       Type             X           Y           Z
 ---------------------------------------------------------------------
      1          7           0       -6.017141    2.346807   -1.139391
      2          1           0       -7.000871    2.278661   -1.407204
      3          1           0       -5.623824    3.213258   -1.524110
      4          1           0       -5.895130    2.361531   -0.091551
      5          6           0       -5.180590    1.157365   -1.578000
      6          1           0       -5.880168    0.345289   -1.798855
      7          6           0       -4.405833    0.802844   -0.286115
      8          6           0       -4.360156    1.521951   -2.833557
      9          1           0       -5.100448    1.884429   -3.561621
     10          8           0       -4.696985    1.398358    0.762021
     11          6           0       -3.349090    2.641296   -2.554295
     12          1           0       -2.658439    2.350962   -1.753470
     13          1           0       -2.760517    2.806376   -3.463961
     14          1           0       -3.820732    3.595447   -2.270401
     15          6           0       -3.698048    0.285211   -3.463719
     16          1           0       -2.733172    0.058113   -2.997218
     17          1           0       -4.343939   -0.600181   -3.404148
     18          1           0       -3.477302    0.474905   -4.517779
     19          7           0       -3.501504   -0.174792   -0.353167
     20          1           0       -3.142352   -0.490312   -1.249734
     21          6           0       -2.665258   -0.504766    0.786623
     22          1           0       -3.302581   -0.755163    1.641317
     23          6           0       -1.741699    0.671522    1.134962
     24          6           0       -1.832663   -1.748988    0.376772
     25          1           0       -2.497411   -2.618420    0.374272
     26          1           0       -1.042987   -1.922094    1.119112
     27          8           0       -1.231600    1.362828    0.260782
     28          8           0       -1.311812   -1.616009   -0.925433
     29          1           0       -0.467687   -1.111565   -0.870957
     30          7           0       -1.438008    0.811504    2.455807
     31          1           0       -2.039595    0.376462    3.143550
     32          6           0       -0.536032    1.879522    2.903223
     33          1           0       -0.799773    2.805775    2.384704
     34          6           0        0.915780    1.605517    2.480619
     35          6           0       -0.637223    2.070176    4.416341
     36          1           0        0.049092    2.862617    4.723701
     37          1           0       -0.365191    1.153418    4.951484
     38          1           0       -1.651942    2.364303    4.703858
     39          8           0        1.698601    2.524289    2.291051
     40          7           0        1.272969    0.285121    2.364872
     41          1           0        0.507523   -0.377705    2.353982
     42          6           0        2.419488   -0.063066    1.520782
     43          1           0        3.183219    0.692452    1.709656
     44          6           0        1.880820    0.052621    0.087284
     45          6           0        2.940873   -1.463900    1.813936
     46          1           0        3.160799   -1.547109    2.884392
     47          1           0        2.140209   -2.178316    1.585889
     48          8           0        1.227146   -0.897508   -0.398687
     49          6           0        4.195982   -1.812380    0.990395
     50          1           0        4.030758   -1.458727   -0.041046
     51          6           0        5.445935   -1.095077    1.515970
     52          1           0        5.668912   -1.413195    2.541309
     53          1           0        6.319160   -1.324170    0.896355
     54          1           0        5.322948   -0.007128    1.521379
     55          6           0        4.414831   -3.330708    0.957674
     56          1           0        4.584572   -3.719201    1.968441
     57          1           0        5.288142   -3.597552    0.352305
     58          1           0        3.539580   -3.865207    0.559962
     59          7           0        2.057581    1.232021   -0.508922
     60          1           0        2.439055    1.980928    0.064140
     61          6           0        1.299150    1.659000   -1.679323
     62          1           0        0.245453    1.676139   -1.390837
     63          6           0        1.442110    0.674063   -2.849996
     64          6           0        1.719181    3.090352   -2.075861
     65          1           0        1.114208    3.378297   -2.943060
     66          1           0        2.766171    3.082351   -2.398840
     67          8           0        2.440151   -0.068093   -2.960012
     68          6           0        1.517920    4.049634   -0.925469
     69          6           0        0.227133    4.315126   -0.442378
     70          1           0       -0.631954    3.875665   -0.941360
     71          6           0        2.601368    4.632331   -0.263215
     72          1           0        3.611108    4.454035   -0.625875
     73          6           0        0.025396    5.121698    0.668306
     74          1           0       -0.972337    5.335755    1.038692
     75          6           0        2.414665    5.446882    0.853909
     76          1           0        3.272112    5.886929    1.357995
     77          8           0        0.865740    6.443922    2.432155
     78          1           0        1.702156    6.780670    2.789613
     79          6           0        1.125037    5.680607    1.331605
     80          7           0        0.364590    0.736810   -3.636153
     81          1           0       -0.278529    1.542968   -3.523480
     82          6           0       -0.008574    0.151270   -4.932872
     83          1           0        0.828840    0.251027   -5.634093
     84          6           0       -1.228888    1.036064   -5.410764
     85          6           0       -0.424950   -1.337707   -4.846010
     86          1           0       -1.438127   -1.421497   -4.437217
     87          1           0       -0.458161   -1.740254   -5.861468
     88          8           0       -1.378085    2.113859   -4.751455
     89          6           0        0.574851   -2.026543   -3.936207
     90          1           0        0.479458   -1.488612   -2.992645
     91          1           0        1.571752   -1.795893   -4.322972
     92          6           0        0.537545   -3.503635   -3.552998
     93          1           0       -0.483784   -3.860258   -3.378261
     94          1           0        0.981886   -4.149402   -4.319603
     95          6           0        1.285102   -3.621895   -2.216035
     96          1           0        1.591222   -4.640999   -1.966879
     97          1           0        0.670600   -3.214529   -1.412397
     98          7           0        2.548106   -2.770419   -2.198495
     99          1           0        2.968646   -2.783658   -1.265695
    100          1           0        3.241852   -3.113478   -2.869174
    101          1           0        2.375230   -1.749801   -2.429298
    102          8           0       -1.941223    0.550563   -6.299021
 ---------------------------------------------------------------------

 SCF Done:  E(RB3LYP) =  -2312.29608334     A.U. after    2 cycles

 Alpha  occ. eigenvalues --  -19.26462 -19.25063 -19.24062 -19.23408 -19.22756
 Alpha  occ. eigenvalues --  -19.21063 -19.19076 -19.12265 -19.10913 -14.58558
 Alpha  occ. eigenvalues --  -14.54740 -14.48971 -14.47822 -14.45756 -14.45681
 Alpha  occ. eigenvalues --  -14.41258 -10.42957 -10.40298 -10.38958 -10.38843
 Alpha  occ. eigenvalues --  -10.38089 -10.36059 -10.35389 -10.35366 -10.34755
 Alpha  occ. eigenvalues --  -10.33260 -10.32834 -10.31388 -10.31221 -10.30661
 Alpha  occ. eigenvalues --  -10.29794 -10.29215 -10.28439 -10.28226 -10.28205
 Alpha  occ. eigenvalues --  -10.27518 -10.26758 -10.26659 -10.26242 -10.26108
 Alpha  occ. eigenvalues --  -10.26073 -10.25675 -10.25608 -10.25465 -10.25261
 Alpha  occ. eigenvalues --  -10.25161 -10.24965 -10.24058  -1.18806  -1.15570
 Alpha  occ. eigenvalues --   -1.14219  -1.13122  -1.12768  -1.12443  -1.12156
 Alpha  occ. eigenvalues --   -1.10194  -1.09208  -1.05772  -1.05225  -1.04215
 Alpha  occ. eigenvalues --   -1.02633  -1.01722  -0.98642  -0.96072  -0.92983
 Alpha  occ. eigenvalues --   -0.91977  -0.91239  -0.89327  -0.89165  -0.86960
 Alpha  occ. eigenvalues --   -0.86295  -0.83935  -0.83541  -0.83414  -0.81272
 Alpha  occ. eigenvalues --   -0.80128  -0.78073  -0.77746  -0.77340  -0.76897
 Alpha  occ. eigenvalues --   -0.75652  -0.74369  -0.73650  -0.73249  -0.72853
 Alpha  occ. eigenvalues --   -0.72285  -0.70950  -0.69982  -0.69492  -0.68809
 Alpha  occ. eigenvalues --   -0.68202  -0.67798  -0.67482  -0.66756  -0.65901
 Alpha  occ. eigenvalues --   -0.65487  -0.65267  -0.64592  -0.63377  -0.62555
 Alpha  occ. eigenvalues --   -0.62475  -0.62417  -0.61049  -0.60826  -0.60398
 Alpha  occ. eigenvalues --   -0.59576  -0.59456  -0.58664  -0.58193  -0.57819
 Alpha  occ. eigenvalues --   -0.57053  -0.56566  -0.55743  -0.55505  -0.55240
 Alpha  occ. eigenvalues --   -0.54846  -0.54151  -0.53851  -0.53739  -0.53163
 Alpha  occ. eigenvalues --   -0.53043  -0.52811  -0.52603  -0.52479  -0.52191
 Alpha  occ. eigenvalues --   -0.51547  -0.51354  -0.50613  -0.50545  -0.50396
 Alpha  occ. eigenvalues --   -0.50005  -0.49824  -0.49358  -0.49016  -0.48863
 Alpha  occ. eigenvalues --   -0.48710  -0.48631  -0.48379  -0.48101  -0.47662
 Alpha  occ. eigenvalues --   -0.47557  -0.47043  -0.46823  -0.46389  -0.46247
 Alpha  occ. eigenvalues --   -0.46156  -0.46026  -0.45659  -0.45199  -0.44675
 Alpha  occ. eigenvalues --   -0.44540  -0.44068  -0.44022  -0.43905  -0.43357
 Alpha  occ. eigenvalues --   -0.43132  -0.42595  -0.42310  -0.42222  -0.42067
 Alpha  occ. eigenvalues --   -0.41755  -0.40914  -0.40709  -0.40332  -0.40106
 Alpha  occ. eigenvalues --   -0.39857  -0.39247  -0.39021  -0.38722  -0.38537
 Alpha  occ. eigenvalues --   -0.38423  -0.37706  -0.36453  -0.36206  -0.34675
 Alpha  occ. eigenvalues --   -0.33913  -0.32868  -0.32176  -0.31484  -0.28054
 Alpha  occ. eigenvalues --   -0.27414  -0.27147  -0.25073
 Alpha virt. eigenvalues --   -0.12109  -0.09907  -0.09599  -0.09183  -0.07505
 Alpha virt. eigenvalues --   -0.07153  -0.06578  -0.06160  -0.04915  -0.04510
 Alpha virt. eigenvalues --   -0.04451  -0.03050  -0.02239  -0.01583  -0.00911

 Mulliken charges:
               1
     1  N   -0.757368
     2  H    0.412921
     3  H    0.412388
     4  H    0.428110
     5  C   -0.113748
     6  H    0.215578
     7  C    0.649563
     8  C   -0.100026
     9  H    0.162670
    10  O   -0.550816
    11  C   -0.538654
    12  H    0.177673
    13  H    0.280903
    14  H    0.111495
    15  C   -0.521894
    16  H    0.172097
    17  H    0.136684
    18  H    0.260313
    19  N   -0.598706
    20  H    0.397320
    21  C   -0.071419
    22  H    0.171737
    23  C    0.633784
    24  C   -0.075437
    25  H    0.176560
    26  H    0.147373
    27  O   -0.511055
    28  O   -0.654749
    29  H    0.471496
    30  N   -0.645374
    31  H    0.346106
    32  C   -0.024969
    33  H    0.210469
    34  C    0.621934
    35  C   -0.489648
    36  H    0.205589
    37  H    0.161705
    38  H    0.172707
    39  O   -0.511674
    40  N   -0.597505
    41  H    0.333157
    42  C   -0.062872
    43  H    0.188697
    44  C    0.638872
    45  C   -0.267281
    46  H    0.162166
    47  H    0.132746
    48  O   -0.635816
    49  C   -0.102197
    50  H    0.120503
    51  C   -0.452613
    52  H    0.159606
    53  H    0.160738
    54  H    0.157472
    55  C   -0.464597
    56  H    0.172374
    57  H    0.160358
    58  H    0.121973
    59  N   -0.589321
    60  H    0.377230
    61  C   -0.075256
    62  H    0.216484
    63  C    0.654642
    64  C   -0.397076
    65  H    0.195941
    66  H    0.168083
    67  O   -0.608805
    68  C    0.141474
    69  C   -0.165487
    70  H    0.139837
    71  C   -0.203294
    72  H    0.135223
    73  C   -0.167648
    74  H    0.131493
    75  C   -0.174008
    76  H    0.130055
    77  O   -0.642328
    78  H    0.413575
    79  C    0.368593
    80  N   -0.632529
    81  H    0.375331
    82  C   -0.062684
    83  H    0.167010
    84  C    0.597080
    85  C   -0.260817
    86  H    0.140130
    87  H    0.169637
    88  O   -0.617858
    89  C   -0.310529
    90  H    0.152571
    91  H    0.148664
    92  C   -0.264905
    93  H    0.174882
    94  H    0.158818
    95  C   -0.206058
    96  H    0.183078
    97  H    0.219943
    98  N   -0.800017
    99  H    0.418059
   100  H    0.392292
   101  H    0.479666
   102  O   -0.568591
 Sum of Mulliken charges =   1.00000

 Dipole moment (field-independent basis, Debye):
    X=             -7.4023    Y=             -3.7979    Z=              7.4676  Tot=             11.1796
 Quadrupole moment (field-independent basis, Debye-Ang):
   XX=           -137.9928   YY=           -231.7526   ZZ=           -316.4501
   XY=            -43.4077   XZ=             -4.5736   YZ=             25.7062

 Normal termination of Gaussian 16 at Thu Jul 14 14:15:33 2022.
