 Gaussian 16, Revision C.01,
 Gaussian 16:  ES64L-G16RevC.01  3-Jul-2019

 ----------------------------------------------------------------------
 # B3LYP/6-31G* empiricaldispersion=gd3bj guess=read geom=check nosymm
 integral(ultrafinegrid)
 ----------------------------------------------------------------------

 ------------------------------------------------------
 Candidate Structure: Conf:883 Charge calc in gas phase
 ------------------------------------------------------
 Structure from the checkpoint file:  "conf-883.chk"
 Charge =  1 Multiplicity = 1

                          Input orientation:
 ---------------------------------------------------------------------
 Center     Atomic      Atomic             Coordinates (Angstroms)
 Number     Number       Type             X           Y           Z
 ---------------------------------------------------------------------
      1          7           0       -6.858525    1.784169    5.854325
      2          1           0       -6.408800    1.354303    6.666632
      3          1           0       -7.872912    1.687960    5.949535
      4          1           0       -6.573520    2.812229    5.797847
      5          6           0       -6.336553    1.255748    4.532115
      6          1           0       -5.750892    0.356259    4.734550
      7          6           0       -5.435308    2.423870    4.054742
      8          6           0       -7.514295    0.930519    3.581712
      9          1           0       -8.173507    0.259980    4.153613
     10          8           0       -5.544174    3.509528    4.648059
     11          6           0       -8.302753    2.185848    3.183180
     12          1           0       -7.687544    2.862513    2.581562
     13          1           0       -9.170600    1.900504    2.582737
     14          1           0       -8.678068    2.755498    4.042293
     15          6           0       -7.041279    0.148713    2.347531
     16          1           0       -6.462273    0.769485    1.657615
     17          1           0       -6.436730   -0.722770    2.623581
     18          1           0       -7.913235   -0.217378    1.798495
     19          7           0       -4.633610    2.179964    3.029874
     20          1           0       -4.630177    1.285311    2.538211
     21          6           0       -3.830755    3.183049    2.346446
     22          1           0       -4.354408    4.142732    2.349096
     23          6           0       -3.638804    2.642461    0.928505
     24          6           0       -2.444749    3.363681    3.040960
     25          1           0       -1.977691    2.374471    3.135992
     26          1           0       -2.630102    3.762722    4.043164
     27          8           0       -3.906112    1.464789    0.671316
     28          8           0       -1.627576    4.265012    2.339290
     29          1           0       -1.096156    3.727731    1.705353
     30          7           0       -3.104704    3.514809    0.043991
     31          1           0       -2.721715    4.356266    0.468701
     32          6           0       -2.355251    2.986640   -1.093822
     33          1           0       -3.022964    2.334174   -1.661818
     34          6           0       -1.175229    2.157876   -0.545480
     35          6           0       -1.848593    4.133216   -1.969844
     36          1           0       -1.308425    3.738892   -2.834934
     37          1           0       -1.161989    4.773731   -1.405376
     38          1           0       -2.685828    4.738974   -2.327754
     39          8           0       -0.612170    2.474821    0.514764
     40          7           0       -0.815400    1.106746   -1.285364
     41          1           0       -1.227645    0.934439   -2.199220
     42          6           0        0.301575    0.225766   -0.982093
     43          1           0        1.023711    0.782339   -0.379346
     44          6           0        0.899406   -0.165045   -2.343414
     45          6           0       -0.162342   -1.049599   -0.243670
     46          1           0       -0.838664   -1.587809   -0.920352
     47          1           0        0.713497   -1.695930   -0.097424
     48          8           0        0.209851   -0.100475   -3.364208
     49          6           0       -0.862824   -0.823227    1.106693
     50          1           0       -1.685929   -0.114428    0.948052
     51          6           0       -1.472677   -2.144981    1.592441
     52          1           0       -0.695405   -2.902456    1.753579
     53          1           0       -1.998789   -2.006431    2.544741
     54          1           0       -2.187687   -2.547943    0.865937
     55          6           0        0.085754   -0.241018    2.161459
     56          1           0        0.938421   -0.910628    2.333020
     57          1           0       -0.432458   -0.120707    3.121225
     58          1           0        0.462772    0.740951    1.865685
     59          7           0        2.162153   -0.622329   -2.313884
     60          1           0        2.727406   -0.601844   -1.470350
     61          6           0        2.873737   -1.071272   -3.497910
     62          1           0        2.197566   -1.675766   -4.108803
     63          6           0        4.058907   -1.901505   -2.998454
     64          6           0        3.382819    0.134516   -4.342279
     65          1           0        3.900312    0.816837   -3.659592
     66          1           0        2.497944    0.650123   -4.728626
     67          8           0        4.612035   -1.607523   -1.934060
     68          6           0        4.308810   -0.307033   -5.445269
     69          6           0        5.697862   -0.259320   -5.267372
     70          1           0        6.102896    0.199709   -4.368772
     71          6           0        3.812459   -0.909192   -6.606659
     72          1           0        2.738371   -0.951474   -6.773718
     73          6           0        6.566957   -0.816573   -6.198784
     74          1           0        7.642517   -0.787709   -6.057828
     75          6           0        4.669815   -1.474295   -7.547545
     76          1           0        4.266676   -1.955200   -8.435569
     77          8           0        6.943571   -2.007767   -8.199640
     78          1           0        6.462373   -2.547885   -8.845562
     79          6           0        6.051574   -1.447981   -7.335428
     80          7           0        4.444585   -2.915468   -3.796754
     81          1           0        4.071247   -2.994213   -4.739890
     82          6           0        5.742546   -3.549042   -3.636319
     83          1           0        6.504928   -2.757224   -3.600443
     84          6           0        5.997365   -4.351280   -4.925643
     85          6           0        5.861041   -4.401266   -2.349496
     86          1           0        5.016128   -4.165465   -1.700573
     87          1           0        5.767746   -5.460838   -2.609662
     88          8           0        7.058955   -5.145498   -4.962850
     89          6           0        7.176295   -4.122853   -1.601128
     90          1           0        7.023318   -3.269017   -0.932297
     91          1           0        7.941023   -3.801888   -2.318288
     92          6           0        7.733431   -5.315373   -0.816423
     93          1           0        8.671152   -5.009977   -0.332737
     94          1           0        7.051509   -5.604992   -0.007015
     95          6           0        7.994175   -6.549294   -1.691329
     96          1           0        7.052486   -7.052224   -1.934521
     97          1           0        8.604614   -7.272922   -1.132692
     98          7           0        8.614888   -6.165230   -2.976955
     99          1           0        8.830063   -6.999542   -3.522250
    100          1           0        7.566456   -5.303769   -4.103903
    101          1           0        9.507158   -5.699634   -2.809197
    102          8           0        5.259143   -4.240161   -5.886050
 ---------------------------------------------------------------------

 SCF Done:  E(RB3LYP) =  -2312.32100839     A.U. after    1 cycles

 Alpha  occ. eigenvalues --  -19.27242 -19.22877 -19.22228 -19.21287 -19.21174
 Alpha  occ. eigenvalues --  -19.20818 -19.18324 -19.17195 -19.16931 -14.60218
 Alpha  occ. eigenvalues --  -14.49908 -14.45469 -14.44254 -14.42396 -14.40579
 Alpha  occ. eigenvalues --  -14.40237 -10.43926 -10.40925 -10.39243 -10.37489
 Alpha  occ. eigenvalues --  -10.35517 -10.35430 -10.34948 -10.34161 -10.33963
 Alpha  occ. eigenvalues --  -10.32893 -10.32476 -10.30835 -10.30510 -10.30203
 Alpha  occ. eigenvalues --  -10.28983 -10.28694 -10.28285 -10.27405 -10.26980
 Alpha  occ. eigenvalues --  -10.25529 -10.25276 -10.24166 -10.24081 -10.23855
 Alpha  occ. eigenvalues --  -10.23657 -10.23382 -10.23226 -10.23204 -10.23160
 Alpha  occ. eigenvalues --  -10.23054 -10.22844 -10.22439  -1.19775  -1.14906
 Alpha  occ. eigenvalues --   -1.14053  -1.12742  -1.12370  -1.10389  -1.10022
 Alpha  occ. eigenvalues --   -1.09464  -1.08874  -1.06604  -1.04620  -1.02547
 Alpha  occ. eigenvalues --   -1.00899  -0.98992  -0.97557  -0.96013  -0.95670
 Alpha  occ. eigenvalues --   -0.89647  -0.89096  -0.88043  -0.86303  -0.85584
 Alpha  occ. eigenvalues --   -0.84390  -0.83904  -0.81785  -0.81555  -0.80325
 Alpha  occ. eigenvalues --   -0.78820  -0.77299  -0.76060  -0.75825  -0.74576
 Alpha  occ. eigenvalues --   -0.74406  -0.74290  -0.74007  -0.72731  -0.71356
 Alpha  occ. eigenvalues --   -0.70279  -0.69502  -0.69085  -0.68308  -0.66923
 Alpha  occ. eigenvalues --   -0.66294  -0.66216  -0.65688  -0.64822  -0.63771
 Alpha  occ. eigenvalues --   -0.62945  -0.62894  -0.62679  -0.62191  -0.62116
 Alpha  occ. eigenvalues --   -0.61681  -0.60862  -0.59910  -0.58830  -0.58216
 Alpha  occ. eigenvalues --   -0.57758  -0.57228  -0.56836  -0.56763  -0.55703
 Alpha  occ. eigenvalues --   -0.55488  -0.55110  -0.54622  -0.54101  -0.53760
 Alpha  occ. eigenvalues --   -0.53602  -0.52978  -0.52553  -0.52449  -0.52094
 Alpha  occ. eigenvalues --   -0.51473  -0.51188  -0.51057  -0.50923  -0.50777
 Alpha  occ. eigenvalues --   -0.50688  -0.50153  -0.49720  -0.49218  -0.49189
 Alpha  occ. eigenvalues --   -0.49010  -0.48658  -0.48116  -0.47885  -0.47681
 Alpha  occ. eigenvalues --   -0.47586  -0.47580  -0.47443  -0.47200  -0.46889
 Alpha  occ. eigenvalues --   -0.46528  -0.46154  -0.45844  -0.45611  -0.45321
 Alpha  occ. eigenvalues --   -0.44852  -0.44589  -0.44411  -0.44309  -0.43809
 Alpha  occ. eigenvalues --   -0.43638  -0.42791  -0.42753  -0.42456  -0.41862
 Alpha  occ. eigenvalues --   -0.41673  -0.41365  -0.40801  -0.40616  -0.40216
 Alpha  occ. eigenvalues --   -0.39722  -0.39245  -0.38966  -0.38879  -0.38838
 Alpha  occ. eigenvalues --   -0.38136  -0.37853  -0.37580  -0.37150  -0.36655
 Alpha  occ. eigenvalues --   -0.36611  -0.35303  -0.34335  -0.34269  -0.33826
 Alpha  occ. eigenvalues --   -0.33066  -0.32689  -0.31854  -0.31004  -0.30661
 Alpha  occ. eigenvalues --   -0.30321  -0.29240  -0.25439
 Alpha virt. eigenvalues --   -0.12673  -0.11496  -0.08974  -0.07167  -0.06260
 Alpha virt. eigenvalues --   -0.05060  -0.04856  -0.04601  -0.02825  -0.02732
 Alpha virt. eigenvalues --   -0.02089  -0.01590  -0.01037  -0.00174   0.00704

 Mulliken charges:
               1
     1  N   -0.762358
     2  H    0.417025
     3  H    0.412048
     4  H    0.437228
     5  C   -0.106055
     6  H    0.211491
     7  C    0.650476
     8  C   -0.112078
     9  H    0.160083
    10  O   -0.544302
    11  C   -0.470629
    12  H    0.186530
    13  H    0.196048
    14  H    0.142538
    15  C   -0.482368
    16  H    0.190374
    17  H    0.165793
    18  H    0.191086
    19  N   -0.605018
    20  H    0.380951
    21  C   -0.090543
    22  H    0.202484
    23  C    0.619165
    24  C   -0.033665
    25  H    0.155706
    26  H    0.170192
    27  O   -0.543842
    28  O   -0.642082
    29  H    0.446026
    30  N   -0.583381
    31  H    0.353725
    32  C   -0.069120
    33  H    0.186489
    34  C    0.657275
    35  C   -0.473719
    36  H    0.183683
    37  H    0.173888
    38  H    0.181893
    39  O   -0.577359
    40  N   -0.587132
    41  H    0.360821
    42  C   -0.080662
    43  H    0.181908
    44  C    0.634355
    45  C   -0.251402
    46  H    0.148969
    47  H    0.146999
    48  O   -0.550207
    49  C   -0.083615
    50  H    0.143525
    51  C   -0.440638
    52  H    0.148923
    53  H    0.123214
    54  H    0.145163
    55  C   -0.462056
    56  H    0.140976
    57  H    0.125783
    58  H    0.177428
    59  N   -0.620013
    60  H    0.352786
    61  C   -0.028832
    62  H    0.175567
    63  C    0.613430
    64  C   -0.353568
    65  H    0.153249
    66  H    0.175693
    67  O   -0.562404
    68  C    0.145226
    69  C   -0.188835
    70  H    0.134843
    71  C   -0.211168
    72  H    0.134007
    73  C   -0.168769
    74  H    0.143140
    75  C   -0.166273
    76  H    0.129966
    77  O   -0.639272
    78  H    0.414953
    79  C    0.369474
    80  N   -0.619146
    81  H    0.370948
    82  C   -0.046788
    83  H    0.183755
    84  C    0.597581
    85  C   -0.287194
    86  H    0.174573
    87  H    0.146292
    88  O   -0.616459
    89  C   -0.270641
    90  H    0.167550
    91  H    0.134625
    92  C   -0.281704
    93  H    0.142473
    94  H    0.149403
    95  C   -0.139223
    96  H    0.160734
    97  H    0.146164
    98  N   -0.771217
    99  H    0.336911
   100  H    0.477283
   101  H    0.325859
   102  O   -0.483007
 Sum of Mulliken charges =   1.00000

 Dipole moment (field-independent basis, Debye):
    X=            -19.5406    Y=              0.0760    Z=             16.8939  Tot=             25.8311
 Quadrupole moment (field-independent basis, Debye-Ang):
   XX=            -27.7369   YY=           -240.0851   ZZ=           -175.8416
   XY=            -89.3388   XZ=           -138.1222   YZ=             17.7895

 Normal termination of Gaussian 16 at Thu Jul 14 14:14:26 2022.
