 Gaussian 16, Revision C.01,
 Gaussian 16:  ES64L-G16RevC.01  3-Jul-2019

 ----------------------------------------------------------------------
 # B3LYP/6-31G* empiricaldispersion=gd3bj guess=read geom=check nosymm
 integral(ultrafinegrid)
 ----------------------------------------------------------------------

 ------------------------------------------------------
 Candidate Structure: Conf:156 Charge calc in gas phase
 ------------------------------------------------------
 Structure from the checkpoint file:  "conf-156.chk"
 Charge =  1 Multiplicity = 1

                          Input orientation:
 ---------------------------------------------------------------------
 Center     Atomic      Atomic             Coordinates (Angstroms)
 Number     Number       Type             X           Y           Z
 ---------------------------------------------------------------------
      1          7           0       -8.824824    4.237612    2.836458
      2          1           0       -9.330947    4.702588    3.594092
      3          1           0       -9.388716    4.293030    1.985320
      4          1           0       -7.875915    4.707560    2.709722
      5          6           0       -8.411937    2.816308    3.171665
      6          1           0       -8.976567    2.497098    4.052013
      7          6           0       -6.906854    2.999945    3.493527
      8          6           0       -8.702820    1.870839    1.979799
      9          1           0       -8.086252    2.210013    1.137406
     10          8           0       -6.375862    4.065322    3.154951
     11          6           0       -8.292307    0.427385    2.310005
     12          1           0       -8.745476    0.086738    3.250540
     13          1           0       -8.654750   -0.236908    1.520531
     14          1           0       -7.207998    0.320464    2.350598
     15          6           0      -10.191043    1.917879    1.594831
     16          1           0      -10.826717    1.606744    2.432297
     17          1           0      -10.542621    2.900972    1.252304
     18          1           0      -10.373701    1.229655    0.765333
     19          7           0       -6.287506    2.020011    4.157682
     20          1           0       -6.758644    1.126820    4.259733
     21          6           0       -4.838955    1.896468    4.072267
     22          1           0       -4.378301    2.831638    4.402954
     23          6           0       -4.453639    1.641676    2.584247
     24          6           0       -4.414656    0.752587    4.991884
     25          1           0       -4.596004    1.036171    6.038062
     26          1           0       -3.343199    0.553143    4.867654
     27          8           0       -5.313387    1.540067    1.709471
     28          8           0       -5.209382   -0.364438    4.609960
     29          1           0       -4.981056   -1.122845    5.168143
     30          7           0       -3.135294    1.563399    2.365260
     31          1           0       -2.442411    1.611619    3.110119
     32          6           0       -2.546053    1.256247    1.072393
     33          1           0       -3.102020    0.427429    0.619885
     34          6           0       -1.104585    0.811223    1.381573
     35          6           0       -2.571407    2.466047    0.125381
     36          1           0       -2.119611    2.220661   -0.840844
     37          1           0       -2.015573    3.300757    0.563797
     38          1           0       -3.606503    2.774248   -0.039920
     39          8           0       -0.632433    0.968603    2.511226
     40          7           0       -0.444361    0.271416    0.342965
     41          1           0       -0.833646    0.340636   -0.595139
     42          6           0        0.994529    0.052476    0.321945
     43          1           0        1.443688    0.653912    1.117368
     44          6           0        1.465029    0.554768   -1.054941
     45          6           0        1.365049   -1.433048    0.501565
     46          1           0        0.894413   -1.993138   -0.317104
     47          1           0        2.450143   -1.538492    0.368811
     48          8           0        0.655325    0.733560   -1.970036
     49          6           0        0.960943   -2.047876    1.851077
     50          1           0       -0.114609   -1.873274    1.992485
     51          6           0        1.197843   -3.563186    1.815736
     52          1           0        2.261840   -3.789012    1.670641
     53          1           0        0.885910   -4.031066    2.756111
     54          1           0        0.641047   -4.038752    0.999854
     55          6           0        1.708209   -1.403254    3.025004
     56          1           0        2.794366   -1.490171    2.890659
     57          1           0        1.452091   -1.905362    3.964920
     58          1           0        1.448781   -0.347192    3.136601
     59          7           0        2.790056    0.734007   -1.184338
     60          1           0        3.436186    0.607494   -0.410714
     61          6           0        3.417484    1.154277   -2.423238
     62          1           0        2.953227    0.614633   -3.253982
     63          6           0        4.901203    0.777252   -2.293805
     64          6           0        3.231684    2.684198   -2.664339
     65          1           0        3.570345    3.211831   -1.766666
     66          1           0        2.156554    2.856273   -2.777349
     67          8           0        5.426791    0.720100   -1.179810
     68          6           0        4.018715    3.116562   -3.872249
     69          6           0        5.260580    3.742882   -3.725231
     70          1           0        5.571515    4.085590   -2.741415
     71          6           0        3.634354    2.684382   -5.149735
     72          1           0        2.659066    2.222268   -5.288768
     73          6           0        6.142570    3.850646   -4.799722
     74          1           0        7.133698    4.274279   -4.676285
     75          6           0        4.511285    2.779484   -6.227022
     76          1           0        4.239119    2.400622   -7.207262
     77          8           0        6.725649    3.259302   -7.046885
     78          1           0        6.978955    2.316744   -7.103391
     79          6           0        5.790216    3.313706   -6.038282
     80          7           0        5.565704    0.532584   -3.444107
     81          1           0        5.114099    0.700105   -4.336568
     82          6           0        7.016796    0.428339   -3.464049
     83          1           0        7.423884    1.074335   -2.683329
     84          6           0        7.560466    0.882875   -4.804576
     85          6           0        7.491552   -1.031934   -3.203341
     86          1           0        7.304273   -1.226298   -2.143280
     87          1           0        6.835682   -1.700446   -3.773332
     88          8           0        8.761701    1.417422   -4.691351
     89          6           0        8.966652   -1.312229   -3.561479
     90          1           0        9.341463   -2.103185   -2.903034
     91          1           0        9.566322   -0.423636   -3.341144
     92          6           0        9.181478   -1.754259   -5.035828
     93          1           0        9.241485   -2.847888   -5.064484
     94          1           0        8.305024   -1.496666   -5.641631
     95          6           0       10.431757   -1.189522   -5.736451
     96          1           0       10.831068   -1.932045   -6.440024
     97          1           0       11.220033   -0.983610   -5.004626
     98          7           0       10.143299    0.085424   -6.446644
     99          1           0       10.998463    0.467761   -6.848241
    100          1           0        9.508767   -0.095258   -7.224783
    101          1           0        9.333503    1.111447   -5.504473
    102          8           0        6.992024    0.651757   -5.869059
 ---------------------------------------------------------------------

 SCF Done:  E(RB3LYP) =  -2312.30966706     A.U. after    2 cycles

 Alpha  occ. eigenvalues --  -19.26491 -19.26227 -19.21252 -19.20979 -19.19577
 Alpha  occ. eigenvalues --  -19.18670 -19.18477 -19.18016 -19.17054 -14.59141
 Alpha  occ. eigenvalues --  -14.48845 -14.44525 -14.42823 -14.41908 -14.41022
 Alpha  occ. eigenvalues --  -14.40789 -10.43107 -10.39971 -10.38176 -10.36405
 Alpha  occ. eigenvalues --  -10.36386 -10.34971 -10.34962 -10.34528 -10.34068
 Alpha  occ. eigenvalues --  -10.33494 -10.31444 -10.30688 -10.29601 -10.29003
 Alpha  occ. eigenvalues --  -10.28589 -10.28017 -10.27680 -10.27585 -10.25563
 Alpha  occ. eigenvalues --  -10.24494 -10.24209 -10.24106 -10.23709 -10.23633
 Alpha  occ. eigenvalues --  -10.23531 -10.23222 -10.23184 -10.23064 -10.22661
 Alpha  occ. eigenvalues --  -10.22379 -10.22247 -10.21726  -1.19116  -1.13989
 Alpha  occ. eigenvalues --   -1.13819  -1.13157  -1.12601  -1.11352  -1.09960
 Alpha  occ. eigenvalues --   -1.08826  -1.06911  -1.05738  -1.05065  -1.01356
 Alpha  occ. eigenvalues --   -0.99793  -0.98608  -0.97700  -0.96195  -0.94531
 Alpha  occ. eigenvalues --   -0.89677  -0.88993  -0.87134  -0.85404  -0.85317
 Alpha  occ. eigenvalues --   -0.84014  -0.83584  -0.80665  -0.80482  -0.80236
 Alpha  occ. eigenvalues --   -0.78724  -0.76823  -0.75831  -0.74650  -0.74472
 Alpha  occ. eigenvalues --   -0.73766  -0.73448  -0.72983  -0.72165  -0.71228
 Alpha  occ. eigenvalues --   -0.70214  -0.69291  -0.67995  -0.67405  -0.66181
 Alpha  occ. eigenvalues --   -0.65507  -0.65388  -0.64968  -0.64388  -0.63864
 Alpha  occ. eigenvalues --   -0.63822  -0.62768  -0.62332  -0.62268  -0.61771
 Alpha  occ. eigenvalues --   -0.61285  -0.59739  -0.58448  -0.57599  -0.57143
 Alpha  occ. eigenvalues --   -0.56781  -0.56603  -0.56455  -0.55805  -0.55366
 Alpha  occ. eigenvalues --   -0.54845  -0.54565  -0.54146  -0.53800  -0.53137
 Alpha  occ. eigenvalues --   -0.52983  -0.52600  -0.52358  -0.51935  -0.51708
 Alpha  occ. eigenvalues --   -0.51443  -0.51344  -0.51056  -0.50876  -0.50518
 Alpha  occ. eigenvalues --   -0.50101  -0.49707  -0.49482  -0.49192  -0.48901
 Alpha  occ. eigenvalues --   -0.48477  -0.48312  -0.48240  -0.48085  -0.47317
 Alpha  occ. eigenvalues --   -0.46971  -0.46761  -0.46375  -0.46300  -0.46219
 Alpha  occ. eigenvalues --   -0.46171  -0.45650  -0.45603  -0.45563  -0.45202
 Alpha  occ. eigenvalues --   -0.44952  -0.44399  -0.43967  -0.43763  -0.43386
 Alpha  occ. eigenvalues --   -0.43006  -0.42863  -0.42433  -0.41643  -0.41487
 Alpha  occ. eigenvalues --   -0.41198  -0.41119  -0.40836  -0.40024  -0.39521
 Alpha  occ. eigenvalues --   -0.38791  -0.38749  -0.38684  -0.38380  -0.38151
 Alpha  occ. eigenvalues --   -0.38038  -0.37688  -0.37624  -0.37511  -0.34997
 Alpha  occ. eigenvalues --   -0.34847  -0.34542  -0.33580  -0.33032  -0.33002
 Alpha  occ. eigenvalues --   -0.32614  -0.32426  -0.32111  -0.31349  -0.30632
 Alpha  occ. eigenvalues --   -0.30036  -0.29333  -0.26571
 Alpha virt. eigenvalues --   -0.12041  -0.10553  -0.07063  -0.06011  -0.05533
 Alpha virt. eigenvalues --   -0.05079  -0.04640  -0.04347  -0.03644  -0.03275
 Alpha virt. eigenvalues --   -0.02823  -0.02373  -0.00478  -0.00283   0.00301

 Mulliken charges:
               1
     1  N   -0.762400
     2  H    0.413012
     3  H    0.408897
     4  H    0.435020
     5  C   -0.115726
     6  H    0.202596
     7  C    0.676132
     8  C   -0.097257
     9  H    0.188885
    10  O   -0.539849
    11  C   -0.497202
    12  H    0.146299
    13  H    0.182287
    14  H    0.219487
    15  C   -0.476149
    16  H    0.171308
    17  H    0.135345
    18  H    0.201454
    19  N   -0.591157
    20  H    0.374536
    21  C   -0.099948
    22  H    0.209021
    23  C    0.665169
    24  C   -0.061360
    25  H    0.162662
    26  H    0.172557
    27  O   -0.545771
    28  O   -0.628987
    29  H    0.422993
    30  N   -0.619613
    31  H    0.362731
    32  C   -0.044638
    33  H    0.184207
    34  C    0.617571
    35  C   -0.456012
    36  H    0.173170
    37  H    0.165151
    38  H    0.180773
    39  O   -0.545044
    40  N   -0.599899
    41  H    0.359465
    42  C   -0.083222
    43  H    0.183338
    44  C    0.630562
    45  C   -0.251296
    46  H    0.143632
    47  H    0.145131
    48  O   -0.554676
    49  C   -0.066061
    50  H    0.127080
    51  C   -0.444308
    52  H    0.146382
    53  H    0.144277
    54  H    0.141543
    55  C   -0.463805
    56  H    0.138051
    57  H    0.140935
    58  H    0.173469
    59  N   -0.619815
    60  H    0.357606
    61  C   -0.030905
    62  H    0.175275
    63  C    0.609346
    64  C   -0.349421
    65  H    0.153984
    66  H    0.176875
    67  O   -0.549640
    68  C    0.150213
    69  C   -0.188356
    70  H    0.135841
    71  C   -0.225470
    72  H    0.136161
    73  C   -0.163281
    74  H    0.149801
    75  C   -0.156300
    76  H    0.140294
    77  O   -0.690706
    78  H    0.423542
    79  C    0.345032
    80  N   -0.611419
    81  H    0.360967
    82  C    0.003949
    83  H    0.189368
    84  C    0.593376
    85  C   -0.281342
    86  H    0.173022
    87  H    0.151042
    88  O   -0.595892
    89  C   -0.289123
    90  H    0.147726
    91  H    0.167863
    92  C   -0.293764
    93  H    0.152318
    94  H    0.164713
    95  C   -0.144028
    96  H    0.150226
    97  H    0.166644
    98  N   -0.780675
    99  H    0.336652
   100  H    0.339271
   101  H    0.459211
   102  O   -0.540929
 Sum of Mulliken charges =   1.00000

 Dipole moment (field-independent basis, Debye):
    X=            -24.4855    Y=              7.2591    Z=              9.7432  Tot=             27.3343
 Quadrupole moment (field-independent basis, Debye-Ang):
   XX=            116.0491   YY=           -242.3069   ZZ=           -194.8474
   XY=           -130.2722   XZ=           -169.5355   YZ=             51.2978

 Normal termination of Gaussian 16 at Thu Jul 14 14:14:46 2022.
