 Gaussian 16, Revision C.01,
 Gaussian 16:  ES64L-G16RevC.01  3-Jul-2019

 ----------------------------------------------------------------------
 # B3LYP/6-31G* empiricaldispersion=gd3bj guess=read geom=check nosymm
 integral(ultrafinegrid)
 ----------------------------------------------------------------------

 ------------------------------------------------------
 Candidate Structure: Conf:270 Charge calc in gas phase
 ------------------------------------------------------
 Structure from the checkpoint file:  "conf-270.chk"
 Charge =  1 Multiplicity = 1

                          Input orientation:
 ---------------------------------------------------------------------
 Center     Atomic      Atomic             Coordinates (Angstroms)
 Number     Number       Type             X           Y           Z
 ---------------------------------------------------------------------
      1          7           0       -5.311220    4.977488    3.965618
      2          1           0       -5.418789    5.263888    4.941937
      3          1           0       -5.454217    5.796667    3.368528
      4          1           0       -4.338646    4.575048    3.820262
      5          6           0       -6.202510    3.813551    3.580849
      6          1           0       -6.884639    3.628823    4.414274
      7          6           0       -5.191616    2.655266    3.410439
      8          6           0       -6.994610    4.111471    2.288075
      9          1           0       -7.597941    3.210767    2.115830
     10          8           0       -3.984061    2.935259    3.435373
     11          6           0       -7.962903    5.285503    2.486322
     12          1           0       -7.439642    6.244036    2.607065
     13          1           0       -8.600486    5.393010    1.604751
     14          1           0       -8.612597    5.139820    3.356068
     15          6           0       -6.074888    4.304442    1.073561
     16          1           0       -5.415632    5.176028    1.183629
     17          1           0       -5.449134    3.426522    0.885731
     18          1           0       -6.681273    4.483105    0.181539
     19          7           0       -5.686190    1.435915    3.208361
     20          1           0       -6.689577    1.311090    3.140108
     21          6           0       -4.844152    0.266613    2.910665
     22          1           0       -3.897953    0.400262    3.442796
     23          6           0       -4.547336    0.184774    1.395011
     24          6           0       -5.531386   -1.015319    3.405636
     25          1           0       -6.515690   -1.108595    2.918342
     26          1           0       -5.687838   -0.941143    4.485967
     27          8           0       -4.917986   -0.779232    0.733281
     28          8           0       -4.722078   -2.137290    3.173716
     29          1           0       -4.706506   -2.263699    2.208049
     30          7           0       -3.874773    1.256999    0.885573
     31          1           0       -3.341614    1.788854    1.571970
     32          6           0       -3.130601    1.104303   -0.375982
     33          1           0       -3.707719    0.430673   -1.010963
     34          6           0       -1.787486    0.476159    0.041636
     35          6           0       -2.924817    2.460011   -1.044883
     36          1           0       -2.371896    2.339420   -1.981488
     37          1           0       -2.341756    3.118224   -0.392389
     38          1           0       -3.887089    2.930944   -1.269182
     39          8           0       -1.182510    0.963839    0.999572
     40          7           0       -1.409532   -0.620312   -0.634880
     41          1           0       -1.878099   -0.897375   -1.490508
     42          6           0       -0.241610   -1.416232   -0.295620
     43          1           0        0.373473   -0.819457    0.381035
     44          6           0        0.489412   -1.713547   -1.610435
     45          6           0       -0.647373   -2.757873    0.362301
     46          1           0       -1.101810   -3.382388   -0.418095
     47          1           0        0.270256   -3.271184    0.678995
     48          8           0       -0.140519   -1.783953   -2.668362
     49          6           0       -1.621987   -2.652385    1.546201
     50          1           0       -2.507294   -2.107614    1.191221
     51          6           0       -2.077638   -4.054853    1.970873
     52          1           0       -1.229226   -4.647957    2.334362
     53          1           0       -2.812930   -3.993950    2.780298
     54          1           0       -2.531389   -4.600424    1.134926
     55          6           0       -1.038193   -1.888152    2.740636
     56          1           0       -0.147539   -2.397997    3.130005
     57          1           0       -1.777033   -1.845685    3.549361
     58          1           0       -0.762754   -0.863157    2.476527
     59          7           0        1.809348   -1.946970   -1.501518
     60          1           0        2.310223   -1.858748   -0.621999
     61          6           0        2.641276   -2.331186   -2.625011
     62          1           0        2.109057   -3.080185   -3.220186
     63          6           0        3.922545   -2.919064   -2.021891
     64          6           0        2.958733   -1.109304   -3.535427
     65          1           0        3.455977   -0.352485   -2.919302
     66          1           0        1.992518   -0.704051   -3.852037
     67          8           0        4.282249   -2.594977   -0.888979
     68          6           0        3.813264   -1.475022   -4.722013
     69          6           0        5.186427   -1.192780   -4.741212
     70          1           0        5.629980   -0.646965   -3.912507
     71          6           0        3.274422   -2.196250   -5.793395
     72          1           0        2.209925   -2.419664   -5.809579
     73          6           0        6.001996   -1.619608   -5.782176
     74          1           0        7.068954   -1.427800   -5.775181
     75          6           0        4.080842   -2.639467   -6.841456
     76          1           0        3.646316   -3.206041   -7.662745
     77          8           0        6.298619   -2.794239   -7.810492
     78          1           0        5.786470   -3.276334   -8.478056
     79          6           0        5.450317   -2.360848   -6.830884
     80          7           0        4.604773   -3.768493   -2.819822
     81          1           0        4.285020   -3.913661   -3.769935
     82          6           0        5.966423   -4.201141   -2.519246
     83          1           0        6.362612   -3.538206   -1.749952
     84          6           0        6.834640   -4.069398   -3.757875
     85          6           0        5.996015   -5.670226   -2.032389
     86          1           0        5.579627   -5.672502   -1.018919
     87          1           0        5.307675   -6.247961   -2.659471
     88          8           0        7.922749   -3.526017   -3.754969
     89          6           0        7.384259   -6.352397   -2.031936
     90          1           0        7.367206   -7.108965   -1.240523
     91          1           0        8.152130   -5.628398   -1.731152
     92          6           0        7.803519   -7.055713   -3.359455
     93          1           0        8.115248   -8.076867   -3.116037
     94          1           0        6.922969   -7.158145   -4.003414
     95          6           0        8.939848   -6.389965   -4.179216
     96          1           0        9.802078   -7.067223   -4.240087
     97          1           0        9.277325   -5.475171   -3.690653
     98          7           0        8.492410   -5.991463   -5.541211
     99          1           0        9.215946   -5.431508   -5.989588
    100          1           0        8.356668   -6.818498   -6.121938
    101          1           0        7.118761   -5.077318   -5.342147
    102          8           0        6.316537   -4.736237   -4.792892
 ---------------------------------------------------------------------

 SCF Done:  E(RB3LYP) =  -2312.29435891     A.U. after    1 cycles

 Alpha  occ. eigenvalues --  -19.29227 -19.23078 -19.23053 -19.21849 -19.19930
 Alpha  occ. eigenvalues --  -19.18637 -19.17097 -19.16522 -19.16430 -14.61676
 Alpha  occ. eigenvalues --  -14.52658 -14.45728 -14.43117 -14.41318 -14.40766
 Alpha  occ. eigenvalues --  -14.39107 -10.45857 -10.42563 -10.39716 -10.36419
 Alpha  occ. eigenvalues --  -10.35939 -10.35213 -10.34300 -10.34243 -10.33762
 Alpha  occ. eigenvalues --  -10.33575 -10.32612 -10.31832 -10.31792 -10.29183
 Alpha  occ. eigenvalues --  -10.28856 -10.28498 -10.26896 -10.26871 -10.25685
 Alpha  occ. eigenvalues --  -10.24311 -10.24118 -10.23800 -10.23357 -10.23195
 Alpha  occ. eigenvalues --  -10.23171 -10.22899 -10.22835 -10.22726 -10.22692
 Alpha  occ. eigenvalues --  -10.22198 -10.22035 -10.21699  -1.21708  -1.15845
 Alpha  occ. eigenvalues --   -1.14892  -1.12029  -1.10998  -1.10681  -1.09885
 Alpha  occ. eigenvalues --   -1.09215  -1.08788  -1.08231  -1.03317  -1.02335
 Alpha  occ. eigenvalues --   -0.99606  -0.97996  -0.97342  -0.97295  -0.94431
 Alpha  occ. eigenvalues --   -0.90276  -0.89608  -0.87250  -0.86433  -0.84874
 Alpha  occ. eigenvalues --   -0.84615  -0.83485  -0.83269  -0.80711  -0.79410
 Alpha  occ. eigenvalues --   -0.78840  -0.76834  -0.76657  -0.75934  -0.75666
 Alpha  occ. eigenvalues --   -0.75088  -0.73459  -0.73408  -0.72933  -0.72761
 Alpha  occ. eigenvalues --   -0.71292  -0.70141  -0.68331  -0.67066  -0.67023
 Alpha  occ. eigenvalues --   -0.66319  -0.65846  -0.64576  -0.64413  -0.64089
 Alpha  occ. eigenvalues --   -0.63590  -0.63255  -0.62314  -0.61952  -0.61622
 Alpha  occ. eigenvalues --   -0.61408  -0.61163  -0.60012  -0.59687  -0.58412
 Alpha  occ. eigenvalues --   -0.58358  -0.57568  -0.57447  -0.56243  -0.55067
 Alpha  occ. eigenvalues --   -0.54848  -0.54469  -0.54247  -0.53961  -0.53626
 Alpha  occ. eigenvalues --   -0.53097  -0.52769  -0.52675  -0.52596  -0.51748
 Alpha  occ. eigenvalues --   -0.51534  -0.51144  -0.50878  -0.50819  -0.50287
 Alpha  occ. eigenvalues --   -0.50072  -0.49996  -0.49704  -0.49330  -0.49169
 Alpha  occ. eigenvalues --   -0.49087  -0.48896  -0.48729  -0.48231  -0.48117
 Alpha  occ. eigenvalues --   -0.47685  -0.47130  -0.46727  -0.46478  -0.46225
 Alpha  occ. eigenvalues --   -0.45648  -0.45245  -0.45004  -0.44912  -0.44666
 Alpha  occ. eigenvalues --   -0.44305  -0.43960  -0.43837  -0.43621  -0.43438
 Alpha  occ. eigenvalues --   -0.43084  -0.42895  -0.42797  -0.42523  -0.42471
 Alpha  occ. eigenvalues --   -0.41963  -0.41319  -0.40999  -0.40211  -0.39611
 Alpha  occ. eigenvalues --   -0.39073  -0.37892  -0.37706  -0.37652  -0.37623
 Alpha  occ. eigenvalues --   -0.37447  -0.37325  -0.36992  -0.36916  -0.36750
 Alpha  occ. eigenvalues --   -0.36347  -0.35333  -0.33692  -0.33080  -0.32240
 Alpha  occ. eigenvalues --   -0.32061  -0.31302  -0.31205  -0.30575  -0.30208
 Alpha  occ. eigenvalues --   -0.29217  -0.28285  -0.25587
 Alpha virt. eigenvalues --   -0.14743  -0.12976  -0.10218  -0.08309  -0.07113
 Alpha virt. eigenvalues --   -0.05100  -0.04543  -0.04330  -0.03858  -0.03434
 Alpha virt. eigenvalues --   -0.02819  -0.02440  -0.02307  -0.01212  -0.00840

 Mulliken charges:
               1
     1  N   -0.760083
     2  H    0.421513
     3  H    0.414087
     4  H    0.441390
     5  C   -0.105316
     6  H    0.216643
     7  C    0.667933
     8  C   -0.124080
     9  H    0.177066
    10  O   -0.543190
    11  C   -0.466444
    12  H    0.144723
    13  H    0.206138
    14  H    0.174381
    15  C   -0.493660
    16  H    0.142200
    17  H    0.206903
    18  H    0.198720
    19  N   -0.593494
    20  H    0.357070
    21  C   -0.118507
    22  H    0.230464
    23  C    0.634927
    24  C   -0.031245
    25  H    0.137345
    26  H    0.163418
    27  O   -0.514233
    28  O   -0.608701
    29  H    0.434935
    30  N   -0.601349
    31  H    0.365336
    32  C   -0.071463
    33  H    0.183735
    34  C    0.624664
    35  C   -0.459951
    36  H    0.181423
    37  H    0.167331
    38  H    0.153978
    39  O   -0.544589
    40  N   -0.582202
    41  H    0.351729
    42  C   -0.082899
    43  H    0.185304
    44  C    0.635731
    45  C   -0.257825
    46  H    0.148242
    47  H    0.148985
    48  O   -0.555394
    49  C   -0.076672
    50  H    0.114657
    51  C   -0.458907
    52  H    0.146440
    53  H    0.161298
    54  H    0.140469
    55  C   -0.481899
    56  H    0.140837
    57  H    0.142178
    58  H    0.176367
    59  N   -0.619435
    60  H    0.356488
    61  C   -0.037891
    62  H    0.172413
    63  C    0.610874
    64  C   -0.351625
    65  H    0.155302
    66  H    0.179269
    67  O   -0.544866
    68  C    0.141942
    69  C   -0.193213
    70  H    0.140578
    71  C   -0.212174
    72  H    0.138923
    73  C   -0.157565
    74  H    0.159405
    75  C   -0.189653
    76  H    0.123174
    77  O   -0.643916
    78  H    0.408005
    79  C    0.367383
    80  N   -0.610479
    81  H    0.358937
    82  C   -0.020253
    83  H    0.191127
    84  C    0.609986
    85  C   -0.267602
    86  H    0.157402
    87  H    0.147805
    88  O   -0.503190
    89  C   -0.290709
    90  H    0.146748
    91  H    0.159341
    92  C   -0.283937
    93  H    0.145366
    94  H    0.155345
    95  C   -0.160407
    96  H    0.142150
    97  H    0.195233
    98  N   -0.772154
    99  H    0.336915
   100  H    0.321618
   101  H    0.457339
   102  O   -0.626458
 Sum of Mulliken charges =   1.00000

 Dipole moment (field-independent basis, Debye):
    X=            -23.0537    Y=             12.9325    Z=              8.7720  Tot=             27.8508
 Quadrupole moment (field-independent basis, Debye-Ang):
   XX=            -67.8411   YY=           -136.1574   ZZ=           -180.0239
   XY=           -177.6323   XZ=           -134.9000   YZ=            115.0572

 Normal termination of Gaussian 16 at Thu Jul 14 14:14:29 2022.
