 Gaussian 16, Revision C.01,
 Gaussian 16:  ES64L-G16RevC.01  3-Jul-2019

 ----------------------------------------------------------------------
 # B3LYP/6-31G* empiricaldispersion=gd3bj guess=read geom=check nosymm
 integral(ultrafinegrid)
 ----------------------------------------------------------------------

 ------------------------------------------------------
 Candidate Structure: Conf:607 Charge calc in gas phase
 ------------------------------------------------------
 Structure from the checkpoint file:  "conf-607.chk"
 Charge =  1 Multiplicity = 1

                          Input orientation:
 ---------------------------------------------------------------------
 Center     Atomic      Atomic             Coordinates (Angstroms)
 Number     Number       Type             X           Y           Z
 ---------------------------------------------------------------------
      1          7           0       -8.376815    2.016608    4.782554
      2          1           0       -8.307081    1.594947    5.710864
      3          1           0       -9.364220    2.067289    4.518649
      4          1           0       -7.943950    2.996916    4.782158
      5          6           0       -7.530644    1.323770    3.734341
      6          1           0       -7.013977    0.494564    4.224135
      7          6           0       -6.519189    2.432470    3.340509
      8          6           0       -8.381146    0.804053    2.558341
      9          1           0       -7.659110    0.358467    1.862851
     10          8           0       -6.655240    3.549398    3.867408
     11          6           0       -9.339704   -0.304640    3.012537
     12          1           0      -10.117415    0.071647    3.691023
     13          1           0       -9.857522   -0.729555    2.148355
     14          1           0       -8.809864   -1.117912    3.520044
     15          6           0       -9.109662    1.935922    1.820335
     16          1           0       -9.877906    2.417029    2.441330
     17          1           0       -8.421041    2.711868    1.473220
     18          1           0       -9.627601    1.531957    0.946588
     19          7           0       -5.597944    2.098801    2.452415
     20          1           0       -5.559193    1.178289    2.007593
     21          6           0       -4.618652    3.010495    1.878984
     22          1           0       -5.079817    3.983446    1.687843
     23          6           0       -4.159644    2.330196    0.587898
     24          6           0       -3.396651    3.211243    2.828394
     25          1           0       -3.000326    2.220772    3.089526
     26          1           0       -3.762415    3.695855    3.739016
     27          8           0       -4.404727    1.135544    0.398807
     28          8           0       -2.420507    4.031574    2.240925
     29          1           0       -1.798768    3.434436    1.759423
     30          7           0       -3.435214    3.105810   -0.248815
     31          1           0       -3.120997    3.982588    0.159348
     32          6           0       -2.495633    2.462739   -1.163731
     33          1           0       -3.058068    1.755536   -1.778180
     34          6           0       -1.453347    1.694203   -0.325473
     35          6           0       -1.810919    3.511588   -2.041414
     36          1           0       -1.126034    3.028516   -2.743559
     37          1           0       -1.229699    4.207485   -1.426228
     38          1           0       -2.553758    4.076750   -2.611375
     39          8           0       -1.098466    2.109719    0.790745
     40          7           0       -0.970217    0.589506   -0.893196
     41          1           0       -1.214024    0.330470   -1.848173
     42          6           0        0.098377   -0.237140   -0.351486
     43          1           0        0.727592    0.385069    0.290294
     44          6           0        0.872868   -0.736428   -1.586025
     45          6           0       -0.456473   -1.449302    0.426448
     46          1           0       -1.021917   -2.059964   -0.288945
     47          1           0        0.395456   -2.060475    0.753869
     48          8           0        0.295892   -0.801223   -2.675878
     49          6           0       -1.347914   -1.119861    1.635455
     50          1           0       -2.146693   -0.447521    1.295277
     51          6           0       -2.006420   -2.406724    2.150272
     52          1           0       -1.250928   -3.126698    2.489733
     53          1           0       -2.666854   -2.196914    3.000432
     54          1           0       -2.602628   -2.892219    1.369183
     55          6           0       -0.569853   -0.419890    2.756041
     56          1           0        0.260152   -1.048115    3.105488
     57          1           0       -1.221371   -0.229396    3.618224
     58          1           0       -0.170492    0.542047    2.426114
     59          7           0        2.135468   -1.132129   -1.372370
     60          1           0        2.615104   -0.955353   -0.494888
     61          6           0        3.012256   -1.603984   -2.436049
     62          1           0        2.453872   -2.303820   -3.061856
     63          6           0        4.206433   -2.292214   -1.764313
     64          6           0        3.509924   -0.402885   -3.314062
     65          1           0        3.700265    0.432157   -2.631302
     66          1           0        2.678132   -0.117975   -3.966888
     67          8           0        4.694605   -1.778375   -0.743518
     68          6           0        4.767383   -0.737884   -4.073346
     69          6           0        6.009414   -0.290900   -3.606203
     70          1           0        6.042511    0.440907   -2.802333
     71          6           0        4.751748   -1.674833   -5.113501
     72          1           0        3.801688   -2.033370   -5.503804
     73          6           0        7.199131   -0.835176   -4.086733
     74          1           0        8.160060   -0.535844   -3.678950
     75          6           0        5.931190   -2.236505   -5.588517
     76          1           0        5.903022   -3.034090   -6.322149
     77          8           0        8.303451   -2.556990   -5.318648
     78          1           0        8.092764   -3.509534   -5.115221
     79          6           0        7.162434   -1.873873   -5.024175
     80          7           0        4.651970   -3.390381   -2.387373
     81          1           0        4.172566   -3.743909   -3.224617
     82          6           0        6.038337   -3.844955   -2.468658
     83          1           0        6.689440   -2.968664   -2.536580
     84          6           0        6.166364   -4.636497   -3.831375
     85          6           0        6.518624   -4.727168   -1.316734
     86          1           0        5.750580   -5.474661   -1.079036
     87          1           0        7.401768   -5.259102   -1.691532
     88          8           0        7.356111   -4.846760   -4.189364
     89          6           0        6.900128   -3.927256   -0.069205
     90          1           0        6.028552   -3.395639    0.325597
     91          1           0        7.621099   -3.151731   -0.361709
     92          6           0        7.542433   -4.823164    0.999424
     93          1           0        6.816744   -5.568344    1.354987
     94          1           0        8.382381   -5.372152    0.548799
     95          6           0        8.044066   -3.989936    2.161609
     96          1           0        7.238565   -3.505466    2.717811
     97          1           0        8.768613   -3.234886    1.848477
     98          7           0        8.783755   -4.880706    3.173554
     99          1           0        9.149144   -4.356714    3.977234
    100          1           0        8.159550   -5.615047    3.527102
    101          1           0        9.572709   -5.352260    2.715233
    102          8           0        5.089789   -4.953667   -4.377827
 ---------------------------------------------------------------------

 SCF Done:  E(RB3LYP) =  -2312.23358081     A.U. after    1 cycles

 Alpha  occ. eigenvalues --  -19.27115 -19.22319 -19.21699 -19.20061 -19.16758
 Alpha  occ. eigenvalues --  -19.13875 -19.13091 -19.07124 -19.06695 -14.62076
 Alpha  occ. eigenvalues --  -14.59834 -14.49614 -14.44946 -14.43278 -14.40709
 Alpha  occ. eigenvalues --  -14.35970 -10.43682 -10.40697 -10.38703 -10.38353
 Alpha  occ. eigenvalues --  -10.36674 -10.34820 -10.33882 -10.33769 -10.32482
 Alpha  occ. eigenvalues --  -10.31749 -10.31227 -10.31027 -10.30574 -10.29857
 Alpha  occ. eigenvalues --  -10.29506 -10.26263 -10.26188 -10.25336 -10.24719
 Alpha  occ. eigenvalues --  -10.24669 -10.24270 -10.23369 -10.23346 -10.22786
 Alpha  occ. eigenvalues --  -10.21793 -10.21361 -10.21231 -10.19366 -10.19186
 Alpha  occ. eigenvalues --  -10.18794 -10.18306 -10.17691  -1.19568  -1.15937
 Alpha  occ. eigenvalues --   -1.14419  -1.13725  -1.11549  -1.09549  -1.08728
 Alpha  occ. eigenvalues --   -1.06311  -1.05109  -1.02012  -1.01910  -1.00297
 Alpha  occ. eigenvalues --   -0.99949  -0.97081  -0.95735  -0.93303  -0.91603
 Alpha  occ. eigenvalues --   -0.91311  -0.88886  -0.87449  -0.85938  -0.85457
 Alpha  occ. eigenvalues --   -0.83864  -0.82911  -0.82314  -0.81759  -0.79429
 Alpha  occ. eigenvalues --   -0.77005  -0.75692  -0.74583  -0.74463  -0.74435
 Alpha  occ. eigenvalues --   -0.74410  -0.74132  -0.74038  -0.73788  -0.73496
 Alpha  occ. eigenvalues --   -0.72124  -0.71393  -0.69801  -0.69080  -0.68185
 Alpha  occ. eigenvalues --   -0.67026  -0.65780  -0.65636  -0.64729  -0.63087
 Alpha  occ. eigenvalues --   -0.62767  -0.62565  -0.61983  -0.61407  -0.61103
 Alpha  occ. eigenvalues --   -0.60967  -0.59557  -0.59111  -0.58814  -0.58465
 Alpha  occ. eigenvalues --   -0.57926  -0.57792  -0.57477  -0.56939  -0.55873
 Alpha  occ. eigenvalues --   -0.55218  -0.54433  -0.53955  -0.53234  -0.52769
 Alpha  occ. eigenvalues --   -0.52728  -0.52327  -0.52286  -0.52003  -0.51304
 Alpha  occ. eigenvalues --   -0.51228  -0.51041  -0.50724  -0.50579  -0.49669
 Alpha  occ. eigenvalues --   -0.49418  -0.49232  -0.48843  -0.48453  -0.48256
 Alpha  occ. eigenvalues --   -0.47926  -0.47886  -0.47733  -0.47413  -0.46829
 Alpha  occ. eigenvalues --   -0.46693  -0.46263  -0.46220  -0.45867  -0.45150
 Alpha  occ. eigenvalues --   -0.44732  -0.44489  -0.44294  -0.43846  -0.43642
 Alpha  occ. eigenvalues --   -0.43527  -0.43184  -0.42828  -0.42055  -0.41745
 Alpha  occ. eigenvalues --   -0.41730  -0.41494  -0.41186  -0.40260  -0.39976
 Alpha  occ. eigenvalues --   -0.39956  -0.39096  -0.38523  -0.38410  -0.38288
 Alpha  occ. eigenvalues --   -0.38181  -0.37701  -0.37631  -0.36666  -0.36607
 Alpha  occ. eigenvalues --   -0.36300  -0.36074  -0.34758  -0.34689  -0.34277
 Alpha  occ. eigenvalues --   -0.33512  -0.33146  -0.32930  -0.30974  -0.30017
 Alpha  occ. eigenvalues --   -0.28371  -0.27891  -0.27264  -0.24565  -0.22962
 Alpha  occ. eigenvalues --   -0.21711  -0.21514  -0.20747
 Alpha virt. eigenvalues --   -0.12769  -0.12538  -0.11335  -0.08312  -0.07012
 Alpha virt. eigenvalues --   -0.06136  -0.05926  -0.05478  -0.04343  -0.02894
 Alpha virt. eigenvalues --   -0.02837  -0.02514  -0.00902  -0.00505  -0.00194

 Mulliken charges:
               1
     1  N   -0.764041
     2  H    0.415266
     3  H    0.409262
     4  H    0.437452
     5  C   -0.099797
     6  H    0.215636
     7  C    0.653149
     8  C   -0.127649
     9  H    0.191840
    10  O   -0.546625
    11  C   -0.462101
    12  H    0.138814
    13  H    0.201272
    14  H    0.172096
    15  C   -0.477324
    16  H    0.142252
    17  H    0.188635
    18  H    0.201421
    19  N   -0.612771
    20  H    0.376656
    21  C   -0.081321
    22  H    0.199235
    23  C    0.615701
    24  C   -0.034139
    25  H    0.153143
    26  H    0.169933
    27  O   -0.543864
    28  O   -0.644041
    29  H    0.446431
    30  N   -0.583945
    31  H    0.352018
    32  C   -0.070756
    33  H    0.188400
    34  C    0.657184
    35  C   -0.473528
    36  H    0.187539
    37  H    0.171623
    38  H    0.180436
    39  O   -0.581607
    40  N   -0.587453
    41  H    0.363831
    42  C   -0.077281
    43  H    0.173873
    44  C    0.634743
    45  C   -0.249385
    46  H    0.152203
    47  H    0.143367
    48  O   -0.550704
    49  C   -0.078810
    50  H    0.140733
    51  C   -0.440451
    52  H    0.143654
    53  H    0.123659
    54  H    0.146700
    55  C   -0.459136
    56  H    0.131669
    57  H    0.125179
    58  H    0.177902
    59  N   -0.617628
    60  H    0.341007
    61  C   -0.021577
    62  H    0.174670
    63  C    0.600963
    64  C   -0.349750
    65  H    0.136062
    66  H    0.167107
    67  O   -0.591481
    68  C    0.144435
    69  C   -0.180607
    70  H    0.109702
    71  C   -0.190730
    72  H    0.123918
    73  C   -0.171420
    74  H    0.116132
    75  C   -0.165722
    76  H    0.157035
    77  O   -0.703722
    78  H    0.446142
    79  C    0.347408
    80  N   -0.602367
    81  H    0.359475
    82  C   -0.051356
    83  H    0.161489
    84  C    0.603882
    85  C   -0.264602
    86  H    0.133821
    87  H    0.163412
    88  O   -0.632613
    89  C   -0.275758
    90  H    0.185850
    91  H    0.149277
    92  C   -0.291461
    93  H    0.157999
    94  H    0.161284
    95  C   -0.206308
    96  H    0.224070
    97  H    0.227448
    98  N   -0.730821
    99  H    0.422128
   100  H    0.421535
   101  H    0.424976
   102  O   -0.589479
 Sum of Mulliken charges =   1.00000

 Dipole moment (field-independent basis, Debye):
    X=            -17.2587    Y=             -1.4334    Z=             39.3729  Tot=             43.0133
 Quadrupole moment (field-independent basis, Debye-Ang):
   XX=            149.1621   YY=           -241.9428   ZZ=           -236.8224
   XY=           -134.1676   XZ=             75.0842   YZ=           -107.4418

 Normal termination of Gaussian 16 at Thu Jul 14 14:14:25 2022.
