 Gaussian 16, Revision C.01,
 Gaussian 16:  ES64L-G16RevC.01  3-Jul-2019

 ----------------------------------------------------------------------
 # B3LYP/6-31G* empiricaldispersion=gd3bj guess=read geom=check nosymm
 integral(ultrafinegrid)
 ----------------------------------------------------------------------

 ------------------------------------------------------
 Candidate Structure: Conf:112 Charge calc in gas phase
 ------------------------------------------------------
 Structure from the checkpoint file:  "conf-112.chk"
 Charge =  1 Multiplicity = 1

                          Input orientation:
 ---------------------------------------------------------------------
 Center     Atomic      Atomic             Coordinates (Angstroms)
 Number     Number       Type             X           Y           Z
 ---------------------------------------------------------------------
      1          7           0       -7.683897    0.068545    4.688464
      2          1           0       -7.535226    0.650426    5.515128
      3          1           0       -8.423510   -0.604454    4.892550
      4          1           0       -7.993065    0.669170    3.919874
      5          6           0       -6.433459   -0.602113    4.265041
      6          1           0       -5.963916   -1.076554    5.134020
      7          6           0       -5.500911    0.471220    3.719827
      8          6           0       -6.690626   -1.685985    3.204007
      9          1           0       -7.244937   -1.194529    2.400063
     10          8           0       -5.895906    1.330914    2.946224
     11          6           0       -5.394148   -2.250664    2.619703
     12          1           0       -4.786859   -2.709452    3.409001
     13          1           0       -5.629554   -3.027316    1.888050
     14          1           0       -4.784738   -1.496163    2.119154
     15          6           0       -7.525615   -2.836557    3.760802
     16          1           0       -6.982184   -3.329624    4.570594
     17          1           0       -8.495499   -2.522679    4.147880
     18          1           0       -7.710569   -3.574666    2.977745
     19          7           0       -4.215108    0.420752    4.166094
     20          1           0       -3.894689   -0.444009    4.568342
     21          6           0       -3.204278    1.257367    3.548387
     22          1           0       -3.637662    2.249903    3.398938
     23          6           0       -2.775666    0.681775    2.209940
     24          6           0       -1.996358    1.357867    4.475196
     25          1           0       -1.565422    0.352630    4.607451
     26          1           0       -2.332398    1.718042    5.448408
     27          8           0       -2.480510   -0.509460    2.099491
     28          8           0       -1.043748    2.283767    3.995402
     29          1           0       -0.638197    1.919187    3.198168
     30          7           0       -2.745345    1.549881    1.166341
     31          1           0       -2.700051    2.524988    1.410293
     32          6           0       -2.018413    1.176830   -0.041904
     33          1           0       -2.387988    0.197544   -0.343490
     34          6           0       -0.513738    1.045526    0.300202
     35          6           0       -2.226099    2.220992   -1.121232
     36          1           0       -1.748106    1.916828   -2.053490
     37          1           0       -1.764216    3.153922   -0.790042
     38          1           0       -3.288232    2.385845   -1.297470
     39          8           0        0.056574    1.878987    1.051216
     40          7           0        0.077645   -0.048735   -0.256847
     41          1           0       -0.400065   -0.500292   -1.016824
     42          6           0        1.494944   -0.333101   -0.103634
     43          1           0        1.900190    0.399302    0.591472
     44          6           0        2.124231   -0.132210   -1.469625
     45          6           0        1.756699   -1.721367    0.432791
     46          1           0        1.459441   -2.467851   -0.305344
     47          1           0        2.840150   -1.832323    0.579892
     48          8           0        1.801966   -0.840323   -2.428395
     49          6           0        1.036285   -2.006131    1.756025
     50          1           0       -0.025641   -2.131199    1.536014
     51          6           0        1.568483   -3.313293    2.334562
     52          1           0        2.589335   -3.167436    2.697626
     53          1           0        0.959307   -3.653831    3.174039
     54          1           0        1.586834   -4.111950    1.585112
     55          6           0        1.189754   -0.875115    2.770033
     56          1           0        2.243434   -0.602273    2.877202
     57          1           0        0.817417   -1.194909    3.747197
     58          1           0        0.630669    0.023641    2.498314
     59          7           0        2.975605    0.904955   -1.562418
     60          1           0        3.223851    1.410268   -0.729274
     61          6           0        3.537972    1.357239   -2.826377
     62          1           0        2.779612    1.175169   -3.595514
     63          6           0        4.786427    0.514967   -3.118219
     64          6           0        3.889466    2.843172   -2.733219
     65          1           0        4.530671    3.103053   -3.575623
     66          1           0        4.495062    2.976400   -1.836219
     67          8           0        5.923532    0.941492   -2.972686
     68          6           0        2.679646    3.739818   -2.727300
     69          6           0        2.337220    4.449275   -3.881848
     70          1           0        2.942568    4.340391   -4.772583
     71          6           0        1.867003    3.901136   -1.600264
     72          1           0        2.078661    3.347509   -0.695293
     73          6           0        1.235920    5.299877   -3.918744
     74          1           0        0.978975    5.844394   -4.818868
     75          6           0        0.775315    4.767313   -1.616812
     76          1           0        0.171447    4.896556   -0.723682
     77          8           0       -0.605273    6.325205   -2.849262
     78          1           0       -1.045901    6.334521   -1.995318
     79          6           0        0.456599    5.464904   -2.778129
     80          7           0        4.526505   -0.766164   -3.487808
     81          1           0        3.572883   -1.057656   -3.654445
     82          6           0        5.563879   -1.694878   -3.833957
     83          1           0        6.501387   -1.323956   -3.423473
     84          6           0        5.682219   -1.705313   -5.455920
     85          6           0        5.242263   -3.110123   -3.385638
     86          1           0        4.437444   -3.499181   -4.019814
     87          1           0        6.119681   -3.740391   -3.570503
     88          8           0        6.684515   -1.107311   -5.871821
     89          6           0        4.836117   -3.212802   -1.924245
     90          1           0        3.933395   -2.619402   -1.757137
     91          1           0        5.619138   -2.777386   -1.296765
     92          6           0        4.561631   -4.648989   -1.506761
     93          1           0        3.907868   -5.113308   -2.251430
     94          1           0        5.491607   -5.223963   -1.497409
     95          6           0        3.876874   -4.756077   -0.156566
     96          1           0        3.543815   -5.780750    0.026512
     97          1           0        2.982464   -4.117560   -0.176347
     98          7           0        4.733598   -4.311910    0.965529
     99          1           0        4.193425   -4.178097    1.821013
    100          1           0        5.474887   -4.988536    1.152743
    101          1           0        5.177905   -3.421429    0.743975
    102          8           0        4.737799   -2.270331   -6.024108
 ---------------------------------------------------------------------

 SCF Done:  E(RB3LYP) =  -2312.14484942     A.U. after    3 cycles

 Alpha  occ. eigenvalues --  -19.27117 -19.24176 -19.23432 -19.22362 -19.22328
 Alpha  occ. eigenvalues --  -19.19107 -19.12127 -19.03162 -19.02938 -14.64320
 Alpha  occ. eigenvalues --  -14.61971 -14.50718 -14.47218 -14.46857 -14.43639
 Alpha  occ. eigenvalues --  -14.36144 -10.44107 -10.42205 -10.40037 -10.39449
 Alpha  occ. eigenvalues --  -10.37753 -10.36134 -10.35633 -10.34986 -10.34538
 Alpha  occ. eigenvalues --  -10.33693 -10.32477 -10.32450 -10.30975 -10.29562
 Alpha  occ. eigenvalues --  -10.29413 -10.29390 -10.29292 -10.29211 -10.29160
 Alpha  occ. eigenvalues --  -10.27705 -10.27395 -10.26919 -10.25508 -10.23747
 Alpha  occ. eigenvalues --  -10.23633 -10.23257 -10.22994 -10.22984 -10.22588
 Alpha  occ. eigenvalues --  -10.21444 -10.20579 -10.19684  -1.20915  -1.18113
 Alpha  occ. eigenvalues --   -1.17059  -1.15446  -1.12732  -1.11948  -1.11084
 Alpha  occ. eigenvalues --   -1.10629  -1.07159  -1.04504  -1.03892  -1.03062
 Alpha  occ. eigenvalues --   -0.99955  -0.97712  -0.96950  -0.92681  -0.92534
 Alpha  occ. eigenvalues --   -0.91577  -0.90691  -0.89933  -0.88530  -0.88408
 Alpha  occ. eigenvalues --   -0.86460  -0.85212  -0.83645  -0.83090  -0.83008
 Alpha  occ. eigenvalues --   -0.79497  -0.79271  -0.78523  -0.78447  -0.77905
 Alpha  occ. eigenvalues --   -0.77185  -0.76798  -0.76257  -0.75407  -0.74234
 Alpha  occ. eigenvalues --   -0.73910  -0.73116  -0.72488  -0.70980  -0.70562
 Alpha  occ. eigenvalues --   -0.69062  -0.68674  -0.68407  -0.67366  -0.67214
 Alpha  occ. eigenvalues --   -0.66425  -0.66048  -0.64260  -0.64026  -0.63295
 Alpha  occ. eigenvalues --   -0.63104  -0.62178  -0.61352  -0.61219  -0.59834
 Alpha  occ. eigenvalues --   -0.59134  -0.58981  -0.58886  -0.58471  -0.58351
 Alpha  occ. eigenvalues --   -0.57929  -0.57242  -0.56713  -0.56100  -0.55564
 Alpha  occ. eigenvalues --   -0.55066  -0.54896  -0.53644  -0.53575  -0.53353
 Alpha  occ. eigenvalues --   -0.53270  -0.52960  -0.52668  -0.52335  -0.52139
 Alpha  occ. eigenvalues --   -0.51648  -0.51524  -0.51194  -0.50764  -0.50480
 Alpha  occ. eigenvalues --   -0.49858  -0.49752  -0.49625  -0.49021  -0.48738
 Alpha  occ. eigenvalues --   -0.48610  -0.48434  -0.48287  -0.48128  -0.47591
 Alpha  occ. eigenvalues --   -0.47410  -0.47064  -0.46888  -0.46701  -0.46213
 Alpha  occ. eigenvalues --   -0.45557  -0.45337  -0.45129  -0.44253  -0.43702
 Alpha  occ. eigenvalues --   -0.43439  -0.43326  -0.43050  -0.42947  -0.42403
 Alpha  occ. eigenvalues --   -0.41695  -0.41458  -0.40948  -0.40938  -0.40932
 Alpha  occ. eigenvalues --   -0.40214  -0.39004  -0.38402  -0.38298  -0.38164
 Alpha  occ. eigenvalues --   -0.37580  -0.37199  -0.36942  -0.36699  -0.36384
 Alpha  occ. eigenvalues --   -0.35267  -0.35028  -0.33387  -0.33070  -0.32556
 Alpha  occ. eigenvalues --   -0.32270  -0.29586  -0.26891  -0.26611  -0.25473
 Alpha  occ. eigenvalues --   -0.18835  -0.17670  -0.15959
 Alpha virt. eigenvalues --   -0.15288  -0.12919  -0.12419  -0.10832  -0.08920
 Alpha virt. eigenvalues --   -0.08614  -0.08140  -0.06735  -0.05881  -0.05746
 Alpha virt. eigenvalues --   -0.05573  -0.04674  -0.03346  -0.03183  -0.03112

 Mulliken charges:
               1
     1  N   -0.706076
     2  H    0.415148
     3  H    0.407872
     4  H    0.425089
     5  C   -0.137550
     6  H    0.195299
     7  C    0.620127
     8  C   -0.100845
     9  H    0.171664
    10  O   -0.509078
    11  C   -0.480734
    12  H    0.151433
    13  H    0.187192
    14  H    0.208763
    15  C   -0.468622
    16  H    0.171976
    17  H    0.134127
    18  H    0.204080
    19  N   -0.588845
    20  H    0.344885
    21  C   -0.077621
    22  H    0.192544
    23  C    0.609474
    24  C   -0.048105
    25  H    0.140024
    26  H    0.168882
    27  O   -0.549127
    28  O   -0.628848
    29  H    0.434112
    30  N   -0.558465
    31  H    0.349204
    32  C   -0.061514
    33  H    0.174874
    34  C    0.643034
    35  C   -0.472213
    36  H    0.191463
    37  H    0.173065
    38  H    0.178882
    39  O   -0.564808
    40  N   -0.581782
    41  H    0.356252
    42  C   -0.069319
    43  H    0.184457
    44  C    0.642796
    45  C   -0.277363
    46  H    0.168683
    47  H    0.098883
    48  O   -0.557615
    49  C   -0.065256
    50  H    0.167328
    51  C   -0.474934
    52  H    0.108468
    53  H    0.173147
    54  H    0.141022
    55  C   -0.473555
    56  H    0.139504
    57  H    0.145113
    58  H    0.175591
    59  N   -0.587598
    60  H    0.336122
    61  C   -0.064442
    62  H    0.190002
    63  C    0.619851
    64  C   -0.399707
    65  H    0.200114
    66  H    0.157121
    67  O   -0.521195
    68  C    0.184668
    69  C   -0.193393
    70  H    0.149737
    71  C   -0.192375
    72  H    0.106676
    73  C   -0.156647
    74  H    0.150430
    75  C   -0.206248
    76  H    0.110951
    77  O   -0.639103
    78  H    0.401704
    79  C    0.348960
    80  N   -0.610161
    81  H    0.351300
    82  C   -0.042540
    83  H    0.151504
    84  C    0.562570
    85  C   -0.291847
    86  H    0.170520
    87  H    0.144714
    88  O   -0.559015
    89  C   -0.294360
    90  H    0.154188
    91  H    0.109433
    92  C   -0.283931
    93  H    0.201766
    94  H    0.159641
    95  C   -0.238625
    96  H    0.208657
    97  H    0.221989
    98  N   -0.720179
    99  H    0.416501
   100  H    0.421585
   101  H    0.424496
   102  O   -0.596019
 Sum of Mulliken charges =   1.00000

 Dipole moment (field-independent basis, Debye):
    X=            -32.8364    Y=            -14.0522    Z=             41.3197  Tot=             54.6169
 Quadrupole moment (field-independent basis, Debye-Ang):
   XX=           -108.8741   YY=           -212.2013   ZZ=           -309.5148
   XY=            -45.2630   XZ=             -2.9107   YZ=            -56.0352

 Normal termination of Gaussian 16 at Thu Jul 14 14:15:36 2022.
