 Gaussian 16, Revision C.01,
 Gaussian 16:  ES64L-G16RevC.01  3-Jul-2019

 ----------------------------------------------------------------------
 # B3LYP/6-31G* empiricaldispersion=gd3bj guess=read geom=check nosymm
 integral(ultrafinegrid)
 ----------------------------------------------------------------------

 ------------------------------------------------------
 Candidate Structure: Conf:126 Charge calc in gas phase
 ------------------------------------------------------
 Structure from the checkpoint file:  "conf-126.chk"
 Charge =  1 Multiplicity = 1

                          Input orientation:
 ---------------------------------------------------------------------
 Center     Atomic      Atomic             Coordinates (Angstroms)
 Number     Number       Type             X           Y           Z
 ---------------------------------------------------------------------
      1          7           0       -7.746968    1.604623    3.787913
      2          1           0       -7.614635    1.728048    4.802275
      3          1           0       -8.757628    1.529830    3.596194
      4          1           0       -7.350501    2.447400    3.319434
      5          6           0       -6.961539    0.423001    3.235074
      6          1           0       -7.155554   -0.456719    3.855838
      7          6           0       -5.515200    0.907855    3.348661
      8          6           0       -7.404342    0.126390    1.782764
      9          1           0       -7.327167    1.070583    1.216741
     10          8           0       -5.341034    2.104575    3.080638
     11          6           0       -6.456190   -0.898184    1.143941
     12          1           0       -6.450556   -1.843994    1.700959
     13          1           0       -6.801609   -1.120432    0.130134
     14          1           0       -5.428524   -0.539669    1.075942
     15          6           0       -8.867996   -0.361166    1.733610
     16          1           0       -8.991370   -1.300965    2.288687
     17          1           0       -9.597263    0.362847    2.136153
     18          1           0       -9.162880   -0.549295    0.697742
     19          7           0       -4.571564    0.021686    3.751071
     20          1           0       -4.791798   -0.966948    3.620419
     21          6           0       -3.144713    0.332644    3.532716
     22          1           0       -3.008484    1.393094    3.758510
     23          6           0       -2.826419    0.015951    2.069090
     24          6           0       -2.280307   -0.495258    4.499671
     25          1           0       -1.228169   -0.293756    4.290563
     26          1           0       -2.456087   -1.566326    4.313305
     27          8           0       -2.937220   -1.124895    1.667920
     28          8           0       -2.508627   -0.145597    5.847496
     29          1           0       -3.469888   -0.180529    6.013801
     30          7           0       -2.488063    1.042190    1.282842
     31          1           0       -2.394162    1.975386    1.677367
     32          6           0       -2.202281    0.866226   -0.153353
     33          1           0       -2.821077    0.025366   -0.479784
     34          6           0       -0.715117    0.488258   -0.326550
     35          6           0       -2.552349    2.139041   -0.918348
     36          1           0       -2.362077    1.997453   -1.984955
     37          1           0       -1.929155    2.974059   -0.581092
     38          1           0       -3.609562    2.394339   -0.779568
     39          8           0        0.119262    1.346924   -0.595989
     40          7           0       -0.439203   -0.831229   -0.150310
     41          1           0       -1.196007   -1.418215    0.191364
     42          6           0        0.943381   -1.329642    0.023329
     43          1           0        1.532833   -0.485304    0.395461
     44          6           0        1.588979   -1.742679   -1.332602
     45          6           0        0.964728   -2.482491    1.027353
     46          1           0        0.307795   -3.287978    0.661686
     47          1           0        1.982736   -2.889787    1.022563
     48          8           0        2.128158   -2.846037   -1.469643
     49          6           0        0.552752   -2.107084    2.470796
     50          1           0       -0.521054   -1.884533    2.462244
     51          6           0        0.780963   -3.312191    3.397340
     52          1           0        1.856265   -3.528329    3.493445
     53          1           0        0.394916   -3.123652    4.407367
     54          1           0        0.287103   -4.214776    3.012129
     55          6           0        1.309434   -0.869513    2.993682
     56          1           0        2.382539   -0.933185    2.766481
     57          1           0        1.216197   -0.781404    4.084120
     58          1           0        0.938369    0.062435    2.551477
     59          7           0        1.474493   -0.782570   -2.261544
     60          1           0        1.196523    0.136105   -1.923703
     61          6           0        2.027417   -0.826813   -3.612705
     62          1           0        1.650923   -1.715562   -4.127929
     63          6           0        3.573333   -0.888550   -3.585866
     64          6           0        1.563011    0.448721   -4.353180
     65          1           0        1.976927    1.318042   -3.820122
     66          1           0        0.464499    0.507662   -4.288675
     67          8           0        4.191591   -0.203798   -2.747155
     68          6           0        2.025909    0.445937   -5.789951
     69          6           0        3.302049    0.933158   -6.128324
     70          1           0        3.941175    1.338678   -5.348136
     71          6           0        1.233994   -0.100150   -6.802462
     72          1           0        0.235990   -0.473984   -6.566872
     73          6           0        3.778973    0.862033   -7.424095
     74          1           0        4.771347    1.216056   -7.681504
     75          6           0        1.700785   -0.180200   -8.114396
     76          1           0        1.074891   -0.614084   -8.894936
     77          8           0        3.496992    0.238384   -9.687990
     78          1           0        2.850009   -0.196542  -10.272990
     79          6           0        2.980695    0.294304   -8.427117
     80          7           0        4.088068   -1.701099   -4.510520
     81          1           0        3.601332   -1.906506   -5.411171
     82          6           0        5.515822   -1.879700   -4.766342
     83          1           0        6.065935   -0.994185   -4.442905
     84          6           0        5.696654   -2.101145   -6.328627
     85          6           0        6.040654   -3.116584   -4.029387
     86          1           0        5.536237   -4.001928   -4.448399
     87          1           0        7.111220   -3.210463   -4.248311
     88          8           0        6.896561   -2.221755   -6.682419
     89          6           0        5.759786   -3.048436   -2.526404
     90          1           0        4.673727   -2.954890   -2.380615
     91          1           0        6.209234   -2.143965   -2.093237
     92          6           0        6.232796   -4.299674   -1.766548
     93          1           0        5.807129   -5.198583   -2.246934
     94          1           0        7.331392   -4.402212   -1.798128
     95          6           0        5.735111   -4.206873   -0.329621
     96          1           0        4.644224   -4.137651   -0.289067
     97          1           0        6.144737   -3.343226    0.202265
     98          7           0        6.149291   -5.462904    0.459437
     99          1           0        5.818439   -5.452156    1.435910
    100          1           0        5.765567   -6.304089    0.002068
    101          1           0        7.176079   -5.561598    0.472026
    102          8           0        4.615426   -2.173257   -6.973708
 ---------------------------------------------------------------------

 SCF Done:  E(RB3LYP) =  -2312.17039032     A.U. after    1 cycles

 Alpha  occ. eigenvalues --  -19.28860 -19.25681 -19.23813 -19.20000 -19.17521
 Alpha  occ. eigenvalues --  -19.16143 -19.10780 -19.04258 -19.03349 -14.63816
 Alpha  occ. eigenvalues --  -14.60840 -14.52725 -14.48353 -14.44040 -14.39287
 Alpha  occ. eigenvalues --  -14.33670 -10.45804 -10.43008 -10.40772 -10.36939
 Alpha  occ. eigenvalues --  -10.36589 -10.36479 -10.36370 -10.35113 -10.33263
 Alpha  occ. eigenvalues --  -10.33144 -10.33067 -10.31802 -10.29609 -10.28153
 Alpha  occ. eigenvalues --  -10.27924 -10.27126 -10.26836 -10.25710 -10.25307
 Alpha  occ. eigenvalues --  -10.25230 -10.24873 -10.24655 -10.22238 -10.22172
 Alpha  occ. eigenvalues --  -10.21495 -10.19612 -10.19345 -10.19220 -10.19051
 Alpha  occ. eigenvalues --  -10.19018 -10.18712 -10.17971  -1.21350  -1.17258
 Alpha  occ. eigenvalues --   -1.16720  -1.14313  -1.13265  -1.11865  -1.08498
 Alpha  occ. eigenvalues --   -1.07295  -1.05493  -1.04445  -1.01848  -1.00153
 Alpha  occ. eigenvalues --   -0.97646  -0.96747  -0.95890  -0.90909  -0.90689
 Alpha  occ. eigenvalues --   -0.89387  -0.88659  -0.88174  -0.87706  -0.85926
 Alpha  occ. eigenvalues --   -0.85565  -0.83518  -0.82151  -0.80623  -0.79693
 Alpha  occ. eigenvalues --   -0.78009  -0.76946  -0.76761  -0.76054  -0.75235
 Alpha  occ. eigenvalues --   -0.75169  -0.74743  -0.74349  -0.73797  -0.73029
 Alpha  occ. eigenvalues --   -0.72457  -0.72318  -0.71451  -0.70425  -0.68546
 Alpha  occ. eigenvalues --   -0.67644  -0.66885  -0.66432  -0.65503  -0.64142
 Alpha  occ. eigenvalues --   -0.63861  -0.63274  -0.62656  -0.62250  -0.62052
 Alpha  occ. eigenvalues --   -0.61790  -0.60264  -0.59602  -0.59517  -0.58903
 Alpha  occ. eigenvalues --   -0.58662  -0.58408  -0.56921  -0.56750  -0.56316
 Alpha  occ. eigenvalues --   -0.55945  -0.55818  -0.55546  -0.54290  -0.54263
 Alpha  occ. eigenvalues --   -0.53980  -0.53268  -0.52924  -0.52838  -0.52664
 Alpha  occ. eigenvalues --   -0.52326  -0.51174  -0.51080  -0.50126  -0.50064
 Alpha  occ. eigenvalues --   -0.50038  -0.49934  -0.49401  -0.49280  -0.48952
 Alpha  occ. eigenvalues --   -0.48565  -0.48385  -0.47912  -0.47516  -0.47289
 Alpha  occ. eigenvalues --   -0.46897  -0.46530  -0.46142  -0.45719  -0.45353
 Alpha  occ. eigenvalues --   -0.45183  -0.44721  -0.44542  -0.44238  -0.43944
 Alpha  occ. eigenvalues --   -0.43568  -0.43462  -0.42522  -0.42442  -0.42254
 Alpha  occ. eigenvalues --   -0.41723  -0.41359  -0.40732  -0.40432  -0.40075
 Alpha  occ. eigenvalues --   -0.39979  -0.39687  -0.39452  -0.39049  -0.38870
 Alpha  occ. eigenvalues --   -0.38415  -0.37383  -0.37023  -0.36911  -0.36298
 Alpha  occ. eigenvalues --   -0.35893  -0.35116  -0.34658  -0.34504  -0.33615
 Alpha  occ. eigenvalues --   -0.33280  -0.33148  -0.32455  -0.31279  -0.29800
 Alpha  occ. eigenvalues --   -0.28914  -0.25512  -0.24621  -0.24227  -0.21493
 Alpha  occ. eigenvalues --   -0.19068  -0.18875  -0.17166
 Alpha virt. eigenvalues --   -0.16502  -0.13471  -0.11746  -0.10338  -0.08768
 Alpha virt. eigenvalues --   -0.08112  -0.06495  -0.06204  -0.05216  -0.04837
 Alpha virt. eigenvalues --   -0.04278  -0.03218  -0.02890  -0.02618  -0.01901

 Mulliken charges:
               1
     1  N   -0.735386
     2  H    0.422198
     3  H    0.415222
     4  H    0.432042
     5  C   -0.119926
     6  H    0.201133
     7  C    0.641903
     8  C   -0.098183
     9  H    0.172290
    10  O   -0.527567
    11  C   -0.487918
    12  H    0.162396
    13  H    0.196328
    14  H    0.196973
    15  C   -0.474674
    16  H    0.178326
    17  H    0.137933
    18  H    0.208154
    19  N   -0.610181
    20  H    0.359670
    21  C   -0.113686
    22  H    0.194980
    23  C    0.649639
    24  C   -0.041808
    25  H    0.194799
    26  H    0.153265
    27  O   -0.555369
    28  O   -0.596880
    29  H    0.392179
    30  N   -0.587058
    31  H    0.353123
    32  C   -0.071969
    33  H    0.179440
    34  C    0.628355
    35  C   -0.464446
    36  H    0.192845
    37  H    0.185563
    38  H    0.144915
    39  O   -0.518994
    40  N   -0.602977
    41  H    0.357611
    42  C   -0.092447
    43  H    0.196272
    44  C    0.654800
    45  C   -0.280608
    46  H    0.145785
    47  H    0.142190
    48  O   -0.560714
    49  C   -0.083900
    50  H    0.125516
    51  C   -0.442581
    52  H    0.130485
    53  H    0.144076
    54  H    0.145043
    55  C   -0.466978
    56  H    0.151304
    57  H    0.148055
    58  H    0.150298
    59  N   -0.624995
    60  H    0.375142
    61  C   -0.010776
    62  H    0.157565
    63  C    0.622128
    64  C   -0.394392
    65  H    0.163984
    66  H    0.127275
    67  O   -0.595803
    68  C    0.143603
    69  C   -0.184448
    70  H    0.142134
    71  C   -0.186571
    72  H    0.100942
    73  C   -0.127969
    74  H    0.150028
    75  C   -0.187183
    76  H    0.107038
    77  O   -0.636462
    78  H    0.403710
    79  C    0.384359
    80  N   -0.600076
    81  H    0.362906
    82  C   -0.074359
    83  H    0.147132
    84  C    0.589733
    85  C   -0.250803
    86  H    0.129066
    87  H    0.156709
    88  O   -0.590510
    89  C   -0.287544
    90  H    0.190345
    91  H    0.157242
    92  C   -0.286493
    93  H    0.156005
    94  H    0.154392
    95  C   -0.220943
    96  H    0.246161
    97  H    0.219906
    98  N   -0.731555
    99  H    0.414747
   100  H    0.421668
   101  H    0.420933
   102  O   -0.604826
 Sum of Mulliken charges =   1.00000

 Dipole moment (field-independent basis, Debye):
    X=            -32.2396    Y=            -10.0476    Z=             36.3492  Tot=             49.6146
 Quadrupole moment (field-independent basis, Debye-Ang):
   XX=              1.9182   YY=           -183.7157   ZZ=           -345.0776
   XY=           -119.1271   XZ=             27.2685   YZ=            -35.8008

 Normal termination of Gaussian 16 at Thu Jul 14 14:14:29 2022.
