 Gaussian 16, Revision C.01,
 Gaussian 16:  ES64L-G16RevC.01  3-Jul-2019

 ----------------------------------------------------------------------
 # B3LYP/6-31G* empiricaldispersion=gd3bj guess=read geom=check nosymm
 integral(ultrafinegrid)
 ----------------------------------------------------------------------

 ------------------------------------------------------
 Candidate Structure: Conf:497 Charge calc in gas phase
 ------------------------------------------------------
 Structure from the checkpoint file:  "conf-497.chk"
 Charge =  1 Multiplicity = 1

                          Input orientation:
 ---------------------------------------------------------------------
 Center     Atomic      Atomic             Coordinates (Angstroms)
 Number     Number       Type             X           Y           Z
 ---------------------------------------------------------------------
      1          7           0       -9.444063    3.808520    2.114066
      2          1           0      -10.015143    4.019790    2.936016
      3          1           0      -10.027896    3.877103    1.276605
      4          1           0       -8.634690    4.493457    2.070260
      5          6           0       -8.718855    2.481696    2.212835
      6          1           0       -9.197113    1.891833    2.998465
      7          6           0       -7.290968    2.907539    2.611803
      8          6           0       -8.763639    1.728615    0.862471
      9          1           0       -8.054452    0.901306    0.977739
     10          8           0       -6.975345    4.092394    2.450332
     11          6           0      -10.163770    1.155418    0.609029
     12          1           0      -10.918063    1.943530    0.473031
     13          1           0      -10.163643    0.562644   -0.309831
     14          1           0      -10.496576    0.508424    1.428049
     15          6           0       -8.265139    2.587452   -0.308187
     16          1           0       -8.932491    3.433982   -0.525156
     17          1           0       -7.253761    2.956652   -0.132320
     18          1           0       -8.240621    1.975160   -1.213419
     19          7           0       -6.504093    1.956669    3.122701
     20          1           0       -6.809878    0.989372    3.075395
     21          6           0       -5.054994    2.091687    3.086739
     22          1           0       -4.786050    3.091292    3.438118
     23          6           0       -4.594049    1.923592    1.609602
     24          6           0       -4.460004    1.030757    4.010971
     25          1           0       -4.735298    1.255961    5.050844
     26          1           0       -3.365543    1.038832    3.933424
     27          8           0       -5.409920    1.704936    0.714186
     28          8           0       -5.012447   -0.207003    3.580147
     29          1           0       -4.666867   -0.920163    4.137486
     30          7           0       -3.274879    2.052535    1.424271
     31          1           0       -2.613004    2.167709    2.190759
     32          6           0       -2.609207    1.836106    0.149997
     33          1           0       -3.012687    0.925160   -0.307860
     34          6           0       -1.125609    1.619170    0.510606
     35          6           0       -2.805952    3.016850   -0.811148
     36          1           0       -2.314463    2.828521   -1.770553
     37          1           0       -2.387449    3.931999   -0.380997
     38          1           0       -3.873754    3.162507   -0.991463
     39          8           0       -0.732959    1.783955    1.671134
     40          7           0       -0.330316    1.269054   -0.508285
     41          1           0       -0.670966    1.162431   -1.460341
     42          6           0        1.108296    1.091650   -0.380548
     43          1           0        1.497243    1.885555    0.263508
     44          6           0        1.657562    1.233779   -1.807099
     45          6           0        1.437138   -0.287838    0.236227
     46          1           0        0.858850   -0.355086    1.165652
     47          1           0        1.049373   -1.056997   -0.443832
     48          8           0        0.921502    1.063066   -2.783634
     49          6           0        2.916395   -0.571815    0.551929
     50          1           0        3.494019   -0.530013   -0.379986
     51          6           0        3.511746    0.448519    1.531816
     52          1           0        2.936496    0.471284    2.465805
     53          1           0        4.547238    0.190051    1.775144
     54          1           0        3.524337    1.468771    1.131215
     55          6           0        3.049847   -1.993133    1.114258
     56          1           0        2.500788   -2.092949    2.059235
     57          1           0        4.099120   -2.238857    1.310111
     58          1           0        2.653072   -2.738092    0.414960
     59          7           0        2.966492    1.521631   -1.899835
     60          1           0        3.555175    1.634827   -1.079960
     61          6           0        3.695061    1.547361   -3.152749
     62          1           0        3.267577    0.797524   -3.824841
     63          6           0        5.148177    1.207457   -2.802232
     64          6           0        3.597092    2.945189   -3.831473
     65          1           0        3.896642    3.694655   -3.091140
     66          1           0        2.538634    3.107081   -4.061435
     67          8           0        5.590619    1.456238   -1.677258
     68          6           0        4.458922    3.047123   -5.063513
     69          6           0        5.720661    3.655345   -5.006267
     70          1           0        6.036763    4.137127   -4.084290
     71          6           0        4.083534    2.421984   -6.257402
     72          1           0        3.107192    1.948165   -6.332814
     73          6           0        6.590147    3.629804   -6.090505
     74          1           0        7.574676    4.081492   -6.036638
     75          6           0        4.945426    2.383273   -7.352429
     76          1           0        4.641479    1.882936   -8.269333
     77          8           0        7.105695    2.954571   -8.292836
     78          1           0        6.754720    2.398054   -9.005047
     79          6           0        6.208415    2.976264   -7.266510
     80          7           0        5.879359    0.668659   -3.795661
     81          1           0        5.482234    0.569069   -4.723846
     82          6           0        7.330359    0.599394   -3.737488
     83          1           0        7.705973    1.454332   -3.170740
     84          6           0        7.869781    0.658494   -5.155232
     85          6           0        7.818071   -0.714988   -3.058233
     86          1           0        7.663388   -0.582106   -1.983338
     87          1           0        7.145541   -1.519053   -3.379530
     88          8           0        9.082047    1.192576   -5.197267
     89          6           0        9.279494   -1.109387   -3.361139
     90          1           0        9.671190   -1.679004   -2.511247
     91          1           0        9.891502   -0.205397   -3.432092
     92          6           0        9.435799   -1.968238   -4.646377
     93          1           0        9.471426   -3.024115   -4.354908
     94          1           0        8.544830   -1.870843   -5.277203
     95          6           0       10.671631   -1.671864   -5.516322
     96          1           0       11.016044   -2.599232   -5.994668
     97          1           0       11.496830   -1.306057   -4.895590
     98          7           0       10.393356   -0.633693   -6.541913
     99          1           0       11.235370   -0.432969   -7.079375
    100          1           0        9.697399   -0.982904   -7.200997
    101          1           0        9.629319    0.679565   -5.903053
    102          8           0        7.283671    0.151898   -6.100578
 ---------------------------------------------------------------------

 SCF Done:  E(RB3LYP) =  -2312.31141703     A.U. after    1 cycles

 Alpha  occ. eigenvalues --  -19.26526 -19.25841 -19.21573 -19.20747 -19.20120
 Alpha  occ. eigenvalues --  -19.19034 -19.17603 -19.17086 -19.16619 -14.59608
 Alpha  occ. eigenvalues --  -14.48964 -14.44217 -14.42587 -14.41519 -14.40450
 Alpha  occ. eigenvalues --  -14.39640 -10.43058 -10.39886 -10.37951 -10.35990
 Alpha  occ. eigenvalues --  -10.34927 -10.34670 -10.34628 -10.34331 -10.33532
 Alpha  occ. eigenvalues --  -10.33269 -10.31229 -10.30139 -10.29312 -10.28840
 Alpha  occ. eigenvalues --  -10.28808 -10.28571 -10.27254 -10.26796 -10.25488
 Alpha  occ. eigenvalues --  -10.24053 -10.24002 -10.24001 -10.23334 -10.23183
 Alpha  occ. eigenvalues --  -10.23057 -10.23028 -10.23008 -10.23005 -10.22511
 Alpha  occ. eigenvalues --  -10.22333 -10.22200 -10.22082  -1.19043  -1.13887
 Alpha  occ. eigenvalues --   -1.13265  -1.12457  -1.12384  -1.10921  -1.09711
 Alpha  occ. eigenvalues --   -1.09576  -1.08337  -1.05755  -1.03932  -1.01099
 Alpha  occ. eigenvalues --   -0.99376  -0.98305  -0.97264  -0.95163  -0.94551
 Alpha  occ. eigenvalues --   -0.89634  -0.88922  -0.86937  -0.85343  -0.84746
 Alpha  occ. eigenvalues --   -0.83814  -0.83307  -0.80768  -0.80182  -0.79646
 Alpha  occ. eigenvalues --   -0.78862  -0.76923  -0.75610  -0.74119  -0.73971
 Alpha  occ. eigenvalues --   -0.73765  -0.73332  -0.73129  -0.72201  -0.71404
 Alpha  occ. eigenvalues --   -0.70482  -0.70047  -0.67304  -0.66964  -0.66306
 Alpha  occ. eigenvalues --   -0.65849  -0.65327  -0.64778  -0.64140  -0.63519
 Alpha  occ. eigenvalues --   -0.63235  -0.62447  -0.62244  -0.61559  -0.61448
 Alpha  occ. eigenvalues --   -0.60982  -0.59309  -0.58467  -0.58320  -0.57232
 Alpha  occ. eigenvalues --   -0.56869  -0.56407  -0.56182  -0.55681  -0.54854
 Alpha  occ. eigenvalues --   -0.54524  -0.54329  -0.54026  -0.53592  -0.52896
 Alpha  occ. eigenvalues --   -0.52271  -0.52181  -0.51852  -0.51597  -0.51230
 Alpha  occ. eigenvalues --   -0.51118  -0.51007  -0.50618  -0.50425  -0.50025
 Alpha  occ. eigenvalues --   -0.49699  -0.49488  -0.49263  -0.49000  -0.48754
 Alpha  occ. eigenvalues --   -0.48143  -0.47928  -0.47486  -0.47194  -0.47111
 Alpha  occ. eigenvalues --   -0.46838  -0.46637  -0.46429  -0.46276  -0.46127
 Alpha  occ. eigenvalues --   -0.45875  -0.45566  -0.45430  -0.45236  -0.44964
 Alpha  occ. eigenvalues --   -0.44473  -0.44399  -0.43708  -0.43400  -0.43087
 Alpha  occ. eigenvalues --   -0.42832  -0.42559  -0.42127  -0.41455  -0.41140
 Alpha  occ. eigenvalues --   -0.40896  -0.40766  -0.40243  -0.39855  -0.39684
 Alpha  occ. eigenvalues --   -0.39271  -0.38529  -0.38423  -0.38022  -0.37751
 Alpha  occ. eigenvalues --   -0.37683  -0.37614  -0.37574  -0.37276  -0.36721
 Alpha  occ. eigenvalues --   -0.34778  -0.34325  -0.33681  -0.33175  -0.32317
 Alpha  occ. eigenvalues --   -0.31963  -0.31813  -0.31183  -0.31049  -0.30119
 Alpha  occ. eigenvalues --   -0.29490  -0.29244  -0.25508
 Alpha virt. eigenvalues --   -0.12044  -0.10892  -0.06954  -0.06437  -0.04805
 Alpha virt. eigenvalues --   -0.04728  -0.04231  -0.03865  -0.03252  -0.02649
 Alpha virt. eigenvalues --   -0.02476  -0.01744  -0.00938  -0.00355   0.00553

 Mulliken charges:
               1
     1  N   -0.756569
     2  H    0.415142
     3  H    0.411131
     4  H    0.433996
     5  C   -0.119018
     6  H    0.203729
     7  C    0.674641
     8  C   -0.117645
     9  H    0.200457
    10  O   -0.539220
    11  C   -0.459782
    12  H    0.134003
    13  H    0.197274
    14  H    0.166718
    15  C   -0.480842
    16  H    0.121096
    17  H    0.221022
    18  H    0.192283
    19  N   -0.580275
    20  H    0.368868
    21  C   -0.109065
    22  H    0.211350
    23  C    0.656385
    24  C   -0.055860
    25  H    0.160242
    26  H    0.171292
    27  O   -0.547566
    28  O   -0.628594
    29  H    0.422071
    30  N   -0.618892
    31  H    0.364243
    32  C   -0.041649
    33  H    0.183727
    34  C    0.627476
    35  C   -0.451160
    36  H    0.166334
    37  H    0.165101
    38  H    0.177803
    39  O   -0.555959
    40  N   -0.624337
    41  H    0.359774
    42  C   -0.053928
    43  H    0.178890
    44  C    0.617390
    45  C   -0.253718
    46  H    0.159328
    47  H    0.142225
    48  O   -0.554105
    49  C   -0.093499
    50  H    0.140932
    51  C   -0.451314
    52  H    0.148078
    53  H    0.160721
    54  H    0.139222
    55  C   -0.444051
    56  H    0.140118
    57  H    0.151607
    58  H    0.143598
    59  N   -0.622454
    60  H    0.370737
    61  C   -0.043858
    62  H    0.175426
    63  C    0.613405
    64  C   -0.348378
    65  H    0.155319
    66  H    0.172875
    67  O   -0.554767
    68  C    0.146178
    69  C   -0.188431
    70  H    0.137210
    71  C   -0.213853
    72  H    0.135182
    73  C   -0.166125
    74  H    0.152327
    75  C   -0.179137
    76  H    0.125477
    77  O   -0.640158
    78  H    0.410065
    79  C    0.371446
    80  N   -0.606890
    81  H    0.359526
    82  C    0.000230
    83  H    0.182651
    84  C    0.588482
    85  C   -0.280111
    86  H    0.169068
    87  H    0.148560
    88  O   -0.604979
    89  C   -0.286852
    90  H    0.143458
    91  H    0.169081
    92  C   -0.291875
    93  H    0.147837
    94  H    0.164576
    95  C   -0.140970
    96  H    0.144299
    97  H    0.162740
    98  N   -0.776162
    99  H    0.330695
   100  H    0.338233
   101  H    0.456334
   102  O   -0.517635
 Sum of Mulliken charges =   1.00000

 Dipole moment (field-independent basis, Debye):
    X=            -25.9852    Y=              7.0576    Z=              4.2862  Tot=             27.2656
 Quadrupole moment (field-independent basis, Debye-Ang):
   XX=            132.7251   YY=           -248.8497   ZZ=           -193.1092
   XY=           -125.3198   XZ=           -144.6039   YZ=             32.2016

 Normal termination of Gaussian 16 at Thu Jul 14 14:14:24 2022.
