 Gaussian 16, Revision C.01,
 Gaussian 16:  ES64L-G16RevC.01  3-Jul-2019

 ----------------------------------------------------------------------
 # B3LYP/6-31G* empiricaldispersion=gd3bj guess=read geom=check nosymm
 integral(ultrafinegrid)
 ----------------------------------------------------------------------

 ------------------------------------------------------
 Candidate Structure: Conf:123 Charge calc in gas phase
 ------------------------------------------------------
 Structure from the checkpoint file:  "conf-123.chk"
 Charge =  1 Multiplicity = 1

                          Input orientation:
 ---------------------------------------------------------------------
 Center     Atomic      Atomic             Coordinates (Angstroms)
 Number     Number       Type             X           Y           Z
 ---------------------------------------------------------------------
      1          7           0       -1.421605    4.512619    1.401204
      2          1           0       -1.486210    5.441140    1.822745
      3          1           0       -0.653433    4.511248    0.691818
      4          1           0       -1.150036    3.810453    2.134608
      5          6           0       -2.753695    3.993912    0.902146
      6          1           0       -3.488203    4.799296    0.998017
      7          6           0       -3.061066    2.844755    1.890678
      8          6           0       -2.646116    3.551987   -0.577992
      9          1           0       -1.837626    2.813833   -0.635617
     10          8           0       -2.119941    2.390896    2.562236
     11          6           0       -3.936049    2.884441   -1.073470
     12          1           0       -4.805965    3.542339   -0.946867
     13          1           0       -3.842291    2.676278   -2.142849
     14          1           0       -4.134786    1.936810   -0.568827
     15          6           0       -2.290733    4.751101   -1.469819
     16          1           0       -3.082484    5.509458   -1.445280
     17          1           0       -1.346558    5.229142   -1.189268
     18          1           0       -2.178793    4.417142   -2.504982
     19          7           0       -4.311340    2.396234    1.953330
     20          1           0       -5.057914    2.926143    1.521201
     21          6           0       -4.722784    1.308501    2.855149
     22          1           0       -4.163288    1.433824    3.787335
     23          6           0       -4.393289   -0.061790    2.207989
     24          6           0       -6.224113    1.425661    3.099135
     25          1           0       -6.488878    0.784652    3.948711
     26          1           0       -6.760342    1.050174    2.219376
     27          8           0       -5.283390   -0.790484    1.781453
     28          8           0       -6.502163    2.801278    3.347209
     29          1           0       -7.453946    2.888298    3.507717
     30          7           0       -3.076102   -0.341384    2.127948
     31          1           0       -2.370811    0.305556    2.475725
     32          6           0       -2.570810   -1.488235    1.394235
     33          1           0       -3.050563   -2.399441    1.768906
     34          6           0       -1.060197   -1.539131    1.641510
     35          6           0       -2.836939   -1.360020   -0.119804
     36          1           0       -2.396314   -2.192860   -0.675915
     37          1           0       -2.393921   -0.430413   -0.494114
     38          1           0       -3.914288   -1.341894   -0.295513
     39          8           0       -0.449686   -0.549152    2.049075
     40          7           0       -0.465582   -2.717623    1.326812
     41          1           0       -1.021747   -3.383874    0.801021
     42          6           0        0.957794   -2.776365    1.003864
     43          1           0        1.414967   -1.899220    1.463383
     44          6           0        1.061041   -2.678358   -0.527527
     45          6           0        1.610758   -4.060957    1.529765
     46          1           0        1.183124   -4.917792    0.992274
     47          1           0        2.676664   -4.028828    1.265435
     48          8           0        0.190110   -3.169817   -1.248479
     49          6           0        1.460470   -4.269597    3.046120
     50          1           0        0.387619   -4.364342    3.261600
     51          6           0        2.149804   -5.575220    3.459858
     52          1           0        3.231030   -5.520705    3.280546
     53          1           0        1.999383   -5.777073    4.525869
     54          1           0        1.760040   -6.430887    2.896463
     55          6           0        2.000204   -3.080382    3.851234
     56          1           0        3.053565   -2.888286    3.607281
     57          1           0        1.943455   -3.286909    4.925487
     58          1           0        1.433474   -2.162404    3.662265
     59          7           0        2.126203   -1.996783   -0.995791
     60          1           0        2.804106   -1.569941   -0.370677
     61          6           0        2.302706   -1.637800   -2.387843
     62          1           0        2.346853   -2.543193   -3.004555
     63          6           0        3.640099   -0.884214   -2.460401
     64          6           0        1.134579   -0.751037   -2.916173
     65          1           0        0.220098   -1.334012   -2.784273
     66          1           0        1.262787   -0.594931   -3.992250
     67          8           0        4.285758   -0.625402   -1.445727
     68          6           0        1.043239    0.574825   -2.202920
     69          6           0        0.472186    0.653231   -0.926343
     70          1           0        0.046778   -0.228646   -0.468954
     71          6           0        1.579720    1.740364   -2.764211
     72          1           0        2.042689    1.709304   -3.747081
     73          6           0        0.446088    1.845785   -0.207012
     74          1           0        0.035962    1.856826    0.798426
     75          6           0        1.532357    2.951798   -2.072777
     76          1           0        1.934945    3.854452   -2.528196
     77          8           0        0.890209    4.190059   -0.081607
     78          1           0        1.421435    4.866307   -0.532169
     79          6           0        0.972304    2.991663   -0.799512
     80          7           0        4.029443   -0.503176   -3.699260
     81          1           0        3.350363   -0.520252   -4.450558
     82          6           0        5.084451    0.491729   -3.856429
     83          1           0        4.977235    1.211152   -3.030592
     84          6           0        4.752027    1.274970   -5.143457
     85          6           0        6.495069   -0.107205   -3.766025
     86          1           0        6.450418   -0.964295   -3.089592
     87          1           0        6.794632   -0.500024   -4.743265
     88          8           0        5.726452    1.843495   -5.829010
     89          6           0        7.516994    0.909882   -3.219544
     90          1           0        7.456046    0.889829   -2.125964
     91          1           0        7.229975    1.928182   -3.515153
     92          6           0        8.961683    0.657290   -3.681080
     93          1           0        9.673102    0.974359   -2.910099
     94          1           0        9.128616   -0.419551   -3.823141
     95          6           0        9.306130    1.416703   -4.963614
     96          1           0       10.329615    1.178102   -5.284793
     97          1           0        9.271061    2.493443   -4.762528
     98          7           0        8.316029    1.152867   -6.031644
     99          1           0        8.519689    1.733319   -6.845286
    100          1           0        8.400541    0.187445   -6.351173
    101          1           0        6.680540    1.511813   -5.692114
    102          8           0        3.584922    1.402862   -5.479625
 ---------------------------------------------------------------------

 SCF Done:  E(RB3LYP) =  -2312.33173745     A.U. after    2 cycles

 Alpha  occ. eigenvalues --  -19.30629 -19.26095 -19.24449 -19.23550 -19.20308
 Alpha  occ. eigenvalues --  -19.19817 -19.19801 -19.19535 -19.18884 -14.56669
 Alpha  occ. eigenvalues --  -14.49409 -14.43703 -14.43548 -14.43356 -14.43151
 Alpha  occ. eigenvalues --  -14.42315 -10.42703 -10.39137 -10.38255 -10.37216
 Alpha  occ. eigenvalues --  -10.37040 -10.36516 -10.35784 -10.34699 -10.33582
 Alpha  occ. eigenvalues --  -10.32753 -10.32679 -10.31407 -10.31344 -10.30760
 Alpha  occ. eigenvalues --  -10.30121 -10.29556 -10.29139 -10.28990 -10.28211
 Alpha  occ. eigenvalues --  -10.27830 -10.27620 -10.27414 -10.27243 -10.26884
 Alpha  occ. eigenvalues --  -10.25728 -10.25722 -10.25689 -10.25503 -10.25188
 Alpha  occ. eigenvalues --  -10.24660 -10.22658 -10.22530  -1.18393  -1.17467
 Alpha  occ. eigenvalues --   -1.15253  -1.12518  -1.12079  -1.11852  -1.11374
 Alpha  occ. eigenvalues --   -1.11330  -1.10536  -1.07017  -1.05575  -1.00587
 Alpha  occ. eigenvalues --   -1.00386  -1.00252  -0.99919  -0.97986  -0.94385
 Alpha  occ. eigenvalues --   -0.93851  -0.88467  -0.88009  -0.87423  -0.86582
 Alpha  occ. eigenvalues --   -0.84811  -0.83765  -0.83620  -0.83220  -0.81808
 Alpha  occ. eigenvalues --   -0.80333  -0.79886  -0.76575  -0.75254  -0.74587
 Alpha  occ. eigenvalues --   -0.73711  -0.73447  -0.72840  -0.72510  -0.71756
 Alpha  occ. eigenvalues --   -0.71176  -0.70526  -0.69784  -0.68627  -0.68059
 Alpha  occ. eigenvalues --   -0.67683  -0.66840  -0.65869  -0.65679  -0.65352
 Alpha  occ. eigenvalues --   -0.64865  -0.64533  -0.64058  -0.63425  -0.62704
 Alpha  occ. eigenvalues --   -0.62122  -0.61921  -0.59970  -0.59707  -0.58473
 Alpha  occ. eigenvalues --   -0.58343  -0.57651  -0.57259  -0.56789  -0.56332
 Alpha  occ. eigenvalues --   -0.56229  -0.55974  -0.55130  -0.54839  -0.54299
 Alpha  occ. eigenvalues --   -0.54129  -0.54029  -0.53496  -0.53300  -0.52755
 Alpha  occ. eigenvalues --   -0.52439  -0.52274  -0.51890  -0.51736  -0.51343
 Alpha  occ. eigenvalues --   -0.51287  -0.50916  -0.50767  -0.50515  -0.50295
 Alpha  occ. eigenvalues --   -0.50011  -0.49902  -0.49793  -0.49433  -0.49354
 Alpha  occ. eigenvalues --   -0.49097  -0.48975  -0.48165  -0.47999  -0.47209
 Alpha  occ. eigenvalues --   -0.46862  -0.46610  -0.46446  -0.46205  -0.45989
 Alpha  occ. eigenvalues --   -0.45771  -0.45642  -0.45395  -0.45096  -0.44810
 Alpha  occ. eigenvalues --   -0.44467  -0.44272  -0.43698  -0.43563  -0.43487
 Alpha  occ. eigenvalues --   -0.43275  -0.42803  -0.42589  -0.42247  -0.41921
 Alpha  occ. eigenvalues --   -0.41583  -0.40992  -0.40685  -0.40470  -0.40353
 Alpha  occ. eigenvalues --   -0.39357  -0.38527  -0.38222  -0.38190  -0.36880
 Alpha  occ. eigenvalues --   -0.36709  -0.35002  -0.34897  -0.34561  -0.34212
 Alpha  occ. eigenvalues --   -0.33698  -0.33470  -0.33193  -0.33116  -0.33059
 Alpha  occ. eigenvalues --   -0.32607  -0.32020  -0.31308
 Alpha virt. eigenvalues --   -0.11906  -0.09464  -0.08645  -0.08284  -0.07111
 Alpha virt. eigenvalues --   -0.06284  -0.05889  -0.05540  -0.04888  -0.04626
 Alpha virt. eigenvalues --   -0.03472  -0.01868  -0.01356  -0.01052   0.00103

 Mulliken charges:
               1
     1  N   -0.810503
     2  H    0.400710
     3  H    0.460775
     4  H    0.431468
     5  C   -0.083998
     6  H    0.194519
     7  C    0.645325
     8  C   -0.118602
     9  H    0.189401
    10  O   -0.548701
    11  C   -0.480088
    12  H    0.150382
    13  H    0.186534
    14  H    0.185390
    15  C   -0.462439
    16  H    0.162755
    17  H    0.132976
    18  H    0.192441
    19  N   -0.578156
    20  H    0.363344
    21  C   -0.081428
    22  H    0.202241
    23  C    0.634393
    24  C   -0.070915
    25  H    0.172680
    26  H    0.175199
    27  O   -0.518951
    28  O   -0.638182
    29  H    0.416855
    30  N   -0.647227
    31  H    0.395187
    32  C   -0.028890
    33  H    0.185645
    34  C    0.617211
    35  C   -0.480252
    36  H    0.182924
    37  H    0.143979
    38  H    0.196554
    39  O   -0.546113
    40  N   -0.576866
    41  H    0.347478
    42  C   -0.101041
    43  H    0.187973
    44  C    0.628800
    45  C   -0.268313
    46  H    0.150650
    47  H    0.146205
    48  O   -0.548891
    49  C   -0.063995
    50  H    0.134802
    51  C   -0.444957
    52  H    0.144291
    53  H    0.151378
    54  H    0.146048
    55  C   -0.465694
    56  H    0.139185
    57  H    0.151672
    58  H    0.161534
    59  N   -0.618757
    60  H    0.363327
    61  C   -0.026537
    62  H    0.190936
    63  C    0.615212
    64  C   -0.402209
    65  H    0.204409
    66  H    0.162413
    67  O   -0.537400
    68  C    0.161807
    69  C   -0.190245
    70  H    0.162346
    71  C   -0.212274
    72  H    0.197859
    73  C   -0.212960
    74  H    0.166117
    75  C   -0.191630
    76  H    0.140064
    77  O   -0.706532
    78  H    0.431541
    79  C    0.351150
    80  N   -0.617035
    81  H    0.352752
    82  C   -0.042205
    83  H    0.190019
    84  C    0.570463
    85  C   -0.282231
    86  H    0.179568
    87  H    0.136148
    88  O   -0.613140
    89  C   -0.282331
    90  H    0.164757
    91  H    0.139065
    92  C   -0.273051
    93  H    0.157621
    94  H    0.146673
    95  C   -0.144293
    96  H    0.151954
    97  H    0.162642
    98  N   -0.775645
    99  H    0.341232
   100  H    0.329554
   101  H    0.491816
   102  O   -0.477671
 Sum of Mulliken charges =   1.00000

 Dipole moment (field-independent basis, Debye):
    X=              1.7622    Y=             15.1415    Z=             -1.4791  Tot=             15.3153
 Quadrupole moment (field-independent basis, Debye-Ang):
   XX=           -128.3662   YY=           -191.5731   ZZ=           -245.4152
   XY=            -34.7454   XZ=            -81.0533   YZ=             10.5599

 Normal termination of Gaussian 16 at Thu Jul 14 14:15:06 2022.
