 Gaussian 16, Revision C.01,
 Gaussian 16:  ES64L-G16RevC.01  3-Jul-2019

 ----------------------------------------------------------------------
 # B3LYP/6-31G* empiricaldispersion=gd3bj guess=read geom=check nosymm
 integral(ultrafinegrid)
 ----------------------------------------------------------------------

 ------------------------------------------------------
 Candidate Structure: Conf:535 Charge calc in gas phase
 ------------------------------------------------------
 Structure from the checkpoint file:  "conf-535.chk"
 Charge =  1 Multiplicity = 1

                          Input orientation:
 ---------------------------------------------------------------------
 Center     Atomic      Atomic             Coordinates (Angstroms)
 Number     Number       Type             X           Y           Z
 ---------------------------------------------------------------------
      1          7           0       -4.272434    1.198086    6.962423
      2          1           0       -3.429909    1.057558    7.526125
      3          1           0       -5.092890    0.982367    7.534584
      4          1           0       -4.295042    2.208885    6.618161
      5          6           0       -4.245688    0.436531    5.651584
      6          1           0       -3.449277   -0.308697    5.708793
      7          6           0       -3.901487    1.558787    4.639137
      8          6           0       -5.610138   -0.248422    5.399730
      9          1           0       -5.806294   -0.851589    6.299146
     10          8           0       -4.013791    2.732690    5.029474
     11          6           0       -6.747283    0.767210    5.221424
     12          1           0       -6.602056    1.367233    4.317524
     13          1           0       -7.699902    0.239753    5.123901
     14          1           0       -6.847718    1.460301    6.065678
     15          6           0       -5.533858   -1.220220    4.213444
     16          1           0       -5.432427   -0.698080    3.257557
     17          1           0       -4.700222   -1.924227    4.315850
     18          1           0       -6.455972   -1.806174    4.167516
     19          7           0       -3.535326    1.180573    3.424888
     20          1           0       -3.494553    0.201646    3.137445
     21          6           0       -3.252035    2.090815    2.325849
     22          1           0       -3.981093    2.906342    2.320957
     23          6           0       -3.363382    1.237261    1.058790
     24          6           0       -1.822444    2.697074    2.459867
     25          1           0       -1.106679    1.877743    2.597453
     26          1           0       -1.811136    3.329278    3.352098
     27          8           0       -3.441706    0.009878    1.135532
     28          8           0       -1.493615    3.488657    1.342280
     29          1           0       -1.021955    2.890300    0.719778
     30          7           0       -3.327472    1.937129   -0.100499
     31          1           0       -3.024614    2.902416    0.012880
     32          6           0       -2.868656    1.280365   -1.315626
     33          1           0       -3.468945    0.376908   -1.454704
     34          6           0       -1.387345    0.875273   -1.139383
     35          6           0       -3.030116    2.224688   -2.511445
     36          1           0       -2.719108    1.736659   -3.438957
     37          1           0       -2.409202    3.118257   -2.383279
     38          1           0       -4.074583    2.531904   -2.612249
     39          8           0       -0.673851    1.383708   -0.262816
     40          7           0       -0.927326   -0.039860   -2.006017
     41          1           0       -1.542951   -0.385442   -2.730855
     42          6           0        0.470510   -0.493373   -2.028618
     43          1           0        0.813431   -0.482038   -0.992412
     44          6           0        1.348129    0.491291   -2.835009
     45          6           0        0.536333   -1.904358   -2.611107
     46          1           0       -0.200164   -2.528190   -2.085576
     47          1           0        0.239221   -1.848133   -3.665819
     48          8           0        1.738914    0.214330   -3.963690
     49          6           0        1.919344   -2.577941   -2.525800
     50          1           0        2.633591   -1.910999   -3.020427
     51          6           0        2.385192   -2.782616   -1.079990
     52          1           0        1.642479   -3.345380   -0.498845
     53          1           0        3.322419   -3.353856   -1.053792
     54          1           0        2.585078   -1.826946   -0.591552
     55          6           0        1.871534   -3.909352   -3.287608
     56          1           0        1.135958   -4.593440   -2.845918
     57          1           0        2.842396   -4.423541   -3.250269
     58          1           0        1.599877   -3.762524   -4.340208
     59          7           0        1.620758    1.671758   -2.199164
     60          1           0        1.371356    1.676419   -1.214021
     61          6           0        2.931646    2.254384   -2.458010
     62          1           0        3.052007    2.328463   -3.541632
     63          6           0        3.989272    1.251835   -1.919317
     64          6           0        3.060278    3.661088   -1.834689
     65          1           0        2.249927    4.276910   -2.241157
     66          1           0        3.999503    4.106240   -2.177910
     67          8           0        3.627746    0.181414   -1.407415
     68          6           0        3.020752    3.661202   -0.323033
     69          6           0        1.807945    3.777968    0.367858
     70          1           0        0.887562    3.931189   -0.191045
     71          6           0        4.201709    3.523623    0.421662
     72          1           0        5.167142    3.475380   -0.081803
     73          6           0        1.755901    3.736314    1.759525
     74          1           0        0.816781    3.863369    2.284999
     75          6           0        4.158730    3.471300    1.812711
     76          1           0        5.085462    3.366168    2.374203
     77          8           0        2.841597    3.520576    3.853099
     78          1           0        3.739664    3.468654    4.215981
     79          6           0        2.937115    3.569446    2.484212
     80          7           0        5.266898    1.608109   -2.094579
     81          1           0        5.532541    2.596338   -2.225009
     82          6           0        6.379302    0.967112   -1.401074
     83          1           0        6.007690    0.528322   -0.467223
     84          6           0        7.414169    2.107556   -1.048669
     85          6           0        7.033479   -0.124857   -2.246246
     86          1           0        7.411556    0.326597   -3.174439
     87          1           0        7.901070   -0.492268   -1.688951
     88          8           0        8.485587    1.712408   -0.567137
     89          6           0        6.054097   -1.248027   -2.587442
     90          1           0        5.161317   -0.816869   -3.050883
     91          1           0        5.708232   -1.735206   -1.667611
     92          6           0        6.638037   -2.297632   -3.543207
     93          1           0        6.991637   -1.800838   -4.458146
     94          1           0        7.499924   -2.803550   -3.086364
     95          6           0        5.552557   -3.298962   -3.883151
     96          1           0        4.677128   -2.824300   -4.331143
     97          1           0        5.230763   -3.880851   -3.017193
     98          7           0        6.048955   -4.322231   -4.916097
     99          1           0        5.328440   -5.009718   -5.165796
    100          1           0        6.344618   -3.843526   -5.774883
    101          1           0        6.865872   -4.829300   -4.556559
    102          8           0        7.000805    3.278006   -1.309895
 ---------------------------------------------------------------------

 SCF Done:  E(RB3LYP) =  -2312.23112239     A.U. after    2 cycles

 Alpha  occ. eigenvalues --  -19.26842 -19.22428 -19.22319 -19.21196 -19.20817
 Alpha  occ. eigenvalues --  -19.16400 -19.13849 -19.06177 -19.05057 -14.61564
 Alpha  occ. eigenvalues --  -14.59903 -14.49578 -14.45119 -14.45074 -14.38771
 Alpha  occ. eigenvalues --  -14.35824 -10.43554 -10.40609 -10.38918 -10.37739
 Alpha  occ. eigenvalues --  -10.37609 -10.34726 -10.33828 -10.33204 -10.32682
 Alpha  occ. eigenvalues --  -10.32408 -10.30612 -10.30281 -10.30113 -10.29382
 Alpha  occ. eigenvalues --  -10.29354 -10.27414 -10.27252 -10.26124 -10.25096
 Alpha  occ. eigenvalues --  -10.25076 -10.25055 -10.24025 -10.23995 -10.22663
 Alpha  occ. eigenvalues --  -10.22307 -10.21771 -10.21417 -10.21279 -10.21102
 Alpha  occ. eigenvalues --  -10.21036 -10.20650 -10.20296  -1.19413  -1.15430
 Alpha  occ. eigenvalues --   -1.14560  -1.13730  -1.12625  -1.10071  -1.08667
 Alpha  occ. eigenvalues --   -1.08237  -1.06254  -1.05146  -1.02337  -1.01221
 Alpha  occ. eigenvalues --   -0.99123  -0.96035  -0.95445  -0.93127  -0.90973
 Alpha  occ. eigenvalues --   -0.90270  -0.88884  -0.87880  -0.87699  -0.86274
 Alpha  occ. eigenvalues --   -0.84029  -0.82582  -0.81757  -0.81611  -0.80627
 Alpha  occ. eigenvalues --   -0.77033  -0.76849  -0.75859  -0.75615  -0.75419
 Alpha  occ. eigenvalues --   -0.74747  -0.74264  -0.74094  -0.73632  -0.73494
 Alpha  occ. eigenvalues --   -0.72039  -0.70501  -0.69304  -0.69159  -0.68850
 Alpha  occ. eigenvalues --   -0.67372  -0.66890  -0.66021  -0.64678  -0.64060
 Alpha  occ. eigenvalues --   -0.63109  -0.62775  -0.62443  -0.61678  -0.61591
 Alpha  occ. eigenvalues --   -0.60958  -0.60588  -0.60193  -0.58525  -0.58474
 Alpha  occ. eigenvalues --   -0.58246  -0.57907  -0.57188  -0.56779  -0.56610
 Alpha  occ. eigenvalues --   -0.56004  -0.55082  -0.54949  -0.54417  -0.53766
 Alpha  occ. eigenvalues --   -0.53204  -0.52768  -0.52185  -0.51840  -0.51682
 Alpha  occ. eigenvalues --   -0.51319  -0.50946  -0.50845  -0.50600  -0.50148
 Alpha  occ. eigenvalues --   -0.50004  -0.49855  -0.48921  -0.48787  -0.48145
 Alpha  occ. eigenvalues --   -0.47914  -0.47890  -0.47680  -0.47409  -0.47356
 Alpha  occ. eigenvalues --   -0.47112  -0.46863  -0.46596  -0.46221  -0.45942
 Alpha  occ. eigenvalues --   -0.45561  -0.45382  -0.44669  -0.44488  -0.44346
 Alpha  occ. eigenvalues --   -0.44110  -0.43568  -0.43085  -0.42546  -0.42366
 Alpha  occ. eigenvalues --   -0.42145  -0.41842  -0.41613  -0.41405  -0.40922
 Alpha  occ. eigenvalues --   -0.40349  -0.40003  -0.39513  -0.39327  -0.38737
 Alpha  occ. eigenvalues --   -0.38407  -0.38315  -0.37410  -0.36843  -0.36635
 Alpha  occ. eigenvalues --   -0.36504  -0.36249  -0.36043  -0.35641  -0.35284
 Alpha  occ. eigenvalues --   -0.35063  -0.35056  -0.33830  -0.33320  -0.30593
 Alpha  occ. eigenvalues --   -0.29124  -0.27933  -0.27468  -0.27048  -0.24395
 Alpha  occ. eigenvalues --   -0.21365  -0.20953  -0.19318
 Alpha virt. eigenvalues --   -0.12397  -0.12347  -0.11167  -0.08355  -0.06831
 Alpha virt. eigenvalues --   -0.06760  -0.06037  -0.05510  -0.04720  -0.03479
 Alpha virt. eigenvalues --   -0.03087  -0.02827  -0.01532  -0.01230  -0.00731

 Mulliken charges:
               1
     1  N   -0.761903
     2  H    0.418306
     3  H    0.411398
     4  H    0.437764
     5  C   -0.105896
     6  H    0.211692
     7  C    0.656827
     8  C   -0.111504
     9  H    0.159718
    10  O   -0.545242
    11  C   -0.470738
    12  H    0.187452
    13  H    0.194376
    14  H    0.142987
    15  C   -0.478779
    16  H    0.186785
    17  H    0.166001
    18  H    0.189701
    19  N   -0.610274
    20  H    0.379579
    21  C   -0.089567
    22  H    0.202239
    23  C    0.618873
    24  C   -0.036136
    25  H    0.163578
    26  H    0.178954
    27  O   -0.544114
    28  O   -0.649427
    29  H    0.461044
    30  N   -0.586274
    31  H    0.354875
    32  C   -0.081269
    33  H    0.187883
    34  C    0.666184
    35  C   -0.467201
    36  H    0.171468
    37  H    0.179176
    38  H    0.183670
    39  O   -0.570394
    40  N   -0.601914
    41  H    0.339852
    42  C   -0.064800
    43  H    0.196255
    44  C    0.639369
    45  C   -0.278558
    46  H    0.130276
    47  H    0.146061
    48  O   -0.538043
    49  C   -0.083067
    50  H    0.168139
    51  C   -0.460042
    52  H    0.127226
    53  H    0.115463
    54  H    0.209918
    55  C   -0.450453
    56  H    0.152102
    57  H    0.090525
    58  H    0.142486
    59  N   -0.594709
    60  H    0.360381
    61  C   -0.074981
    62  H    0.182746
    63  C    0.619958
    64  C   -0.381814
    65  H    0.150643
    66  H    0.185029
    67  O   -0.579901
    68  C    0.135296
    69  C   -0.208154
    70  H    0.111798
    71  C   -0.203021
    72  H    0.212471
    73  C   -0.176527
    74  H    0.135716
    75  C   -0.209947
    76  H    0.135268
    77  O   -0.659515
    78  H    0.408013
    79  C    0.348841
    80  N   -0.609127
    81  H    0.357774
    82  C   -0.075328
    83  H    0.146474
    84  C    0.584865
    85  C   -0.252932
    86  H    0.128748
    87  H    0.164346
    88  O   -0.582040
    89  C   -0.270298
    90  H    0.174523
    91  H    0.153934
    92  C   -0.290077
    93  H    0.157896
    94  H    0.160145
    95  C   -0.213808
    96  H    0.236374
    97  H    0.223521
    98  N   -0.732683
    99  H    0.421866
   100  H    0.422868
   101  H    0.421334
   102  O   -0.608576
 Sum of Mulliken charges =   1.00000

 Dipole moment (field-independent basis, Debye):
    X=            -17.6592    Y=            -20.6283    Z=              6.9145  Tot=             28.0212
 Quadrupole moment (field-independent basis, Debye-Ang):
   XX=           -221.2071   YY=           -234.1568   ZZ=            -24.8440
   XY=           -159.1444   XZ=           -187.8359   YZ=             93.5496

 Normal termination of Gaussian 16 at Thu Jul 14 14:15:02 2022.
