 Gaussian 16, Revision C.01,
 Gaussian 16:  ES64L-G16RevC.01  3-Jul-2019

 ----------------------------------------------------------------------
 # B3LYP/6-31G* empiricaldispersion=gd3bj guess=read geom=check nosymm
 integral(ultrafinegrid)
 ----------------------------------------------------------------------

 ------------------------------------------------------
 Candidate Structure: Conf:746 Charge calc in gas phase
 ------------------------------------------------------
 Structure from the checkpoint file:  "conf-746.chk"
 Charge =  1 Multiplicity = 1

                          Input orientation:
 ---------------------------------------------------------------------
 Center     Atomic      Atomic             Coordinates (Angstroms)
 Number     Number       Type             X           Y           Z
 ---------------------------------------------------------------------
      1          7           0       -7.697360    3.134862   -0.781218
      2          1           0       -8.026411    4.104232   -0.788285
      3          1           0       -8.322240    2.566282   -1.359234
      4          1           0       -6.709488    3.110686   -1.155313
      5          6           0       -7.527127    2.573900    0.619072
      6          1           0       -8.123667    3.183729    1.301321
      7          6           0       -6.016336    2.756384    0.873090
      8          6           0       -8.007125    1.101441    0.654535
      9          1           0       -9.066018    1.142693    0.355085
     10          8           0       -5.289153    2.920456   -0.123556
     11          6           0       -7.233879    0.205002   -0.323954
     12          1           0       -6.187783    0.117026   -0.020291
     13          1           0       -7.674585   -0.795773   -0.316800
     14          1           0       -7.271880    0.558743   -1.362950
     15          6           0       -7.943858    0.540102    2.082079
     16          1           0       -6.908728    0.359685    2.384522
     17          1           0       -8.433992    1.203464    2.805678
     18          1           0       -8.470083   -0.418054    2.112696
     19          7           0       -5.612924    2.744914    2.138759
     20          1           0       -6.263263    2.440465    2.858229
     21          6           0       -4.215108    2.525604    2.496221
     22          1           0       -3.592007    3.293438    2.031404
     23          6           0       -3.782394    1.135539    1.961541
     24          6           0       -4.105741    2.625784    4.017857
     25          1           0       -4.227305    3.674216    4.325266
     26          1           0       -3.109752    2.284391    4.325506
     27          8           0       -4.613245    0.275539    1.663932
     28          8           0       -5.141033    1.807679    4.551710
     29          1           0       -5.116115    1.856550    5.519026
     30          7           0       -2.455932    0.990426    1.867729
     31          1           0       -1.816610    1.767789    2.026030
     32          6           0       -1.789976   -0.189964    1.337814
     33          1           0       -2.079933   -1.064956    1.931697
     34          6           0       -0.286159    0.090010    1.506555
     35          6           0       -2.138331   -0.425526   -0.143129
     36          1           0       -1.667224   -1.335470   -0.522879
     37          1           0       -1.778359    0.407723   -0.751049
     38          1           0       -3.221008   -0.524111   -0.242107
     39          8           0        0.108616    1.192241    1.878334
     40          7           0        0.546955   -0.940227    1.195049
     41          1           0        0.120913   -1.693936    0.668365
     42          6           0        1.902559   -0.627629    0.743175
     43          1           0        2.300150    0.126869    1.422976
     44          6           0        1.788812   -0.053582   -0.681715
     45          6           0        2.763401   -1.900984    0.763189
     46          1           0        2.703916   -2.327168    1.773029
     47          1           0        2.304294   -2.629831    0.080439
     48          8           0        0.890040   -0.425734   -1.435140
     49          6           0        4.241166   -1.712412    0.374095
     50          1           0        4.289373   -1.268380   -0.628093
     51          6           0        4.983315   -0.778745    1.339258
     52          1           0        4.970460   -1.183495    2.359195
     53          1           0        6.027263   -0.660670    1.033003
     54          1           0        4.546437    0.225732    1.380487
     55          6           0        4.935047   -3.078749    0.311702
     56          1           0        4.922736   -3.570667    1.292520
     57          1           0        5.981180   -2.971100    0.005819
     58          1           0        4.440449   -3.745354   -0.404226
     59          7           0        2.727409    0.855813   -1.026928
     60          1           0        3.550607    0.992404   -0.450538
     61          6           0        2.847898    1.351370   -2.380157
     62          1           0        2.230019    0.710948   -3.015050
     63          6           0        4.329740    1.255391   -2.766959
     64          6           0        2.362786    2.823803   -2.501817
     65          1           0        2.310840    3.083028   -3.566037
     66          1           0        3.125291    3.472277   -2.055276
     67          8           0        5.201805    1.171007   -1.899364
     68          6           0        1.038175    3.068710   -1.820464
     69          6           0        0.999720    3.653316   -0.549211
     70          1           0        1.930468    3.936387   -0.065771
     71          6           0       -0.174404    2.695476   -2.407873
     72          1           0       -0.176121    2.222964   -3.386456
     73          6           0       -0.201572    3.879751    0.112461
     74          1           0       -0.221701    4.330074    1.099067
     75          6           0       -1.390065    2.916853   -1.759449
     76          1           0       -2.325581    2.630655   -2.235533
     77          8           0       -2.562161    3.772314    0.191933
     78          1           0       -3.334460    3.396638   -0.266682
     79          6           0       -1.401841    3.514350   -0.496328
     80          7           0        4.589055    1.313606   -4.087318
     81          1           0        3.849625    1.435837   -4.771264
     82          6           0        5.935184    1.382550   -4.630693
     83          1           0        6.514540    2.126359   -4.072775
     84          6           0        5.803573    1.800741   -6.085166
     85          6           0        6.685059    0.029451   -4.543091
     86          1           0        7.744357    0.221352   -4.741914
     87          1           0        6.608006   -0.284909   -3.498359
     88          8           0        6.974202    1.942896   -6.681535
     89          6           0        6.177362   -1.098920   -5.466890
     90          1           0        5.081239   -1.063133   -5.526910
     91          1           0        6.408349   -2.044374   -4.964380
     92          6           0        6.791863   -1.163421   -6.895891
     93          1           0        7.737346   -0.609089   -6.901693
     94          1           0        7.056213   -2.205933   -7.101756
     95          6           0        5.909671   -0.657182   -8.066166
     96          1           0        4.952895   -0.285588   -7.695297
     97          1           0        5.692768   -1.484541   -8.754697
     98          7           0        6.540710    0.475926   -8.794063
     99          1           0        5.901495    0.829989   -9.504256
    100          1           0        6.849519    1.614431   -7.655650
    101          1           0        7.377813    0.157936   -9.281964
    102          8           0        4.716389    1.867776   -6.644212
 ---------------------------------------------------------------------

 SCF Done:  E(RB3LYP) =  -2312.32093119     A.U. after    2 cycles

 Alpha  occ. eigenvalues --  -19.27650 -19.25917 -19.24064 -19.21066 -19.20535
 Alpha  occ. eigenvalues --  -19.19459 -19.18351 -19.17259 -19.17067 -14.60406
 Alpha  occ. eigenvalues --  -14.49593 -14.44075 -14.42431 -14.41316 -14.41311
 Alpha  occ. eigenvalues --  -14.40358 -10.43945 -10.40531 -10.37702 -10.36072
 Alpha  occ. eigenvalues --  -10.36003 -10.34582 -10.34247 -10.34044 -10.33823
 Alpha  occ. eigenvalues --  -10.33708 -10.31046 -10.30655 -10.28987 -10.28941
 Alpha  occ. eigenvalues --  -10.28850 -10.28631 -10.28316 -10.26913 -10.25142
 Alpha  occ. eigenvalues --  -10.24815 -10.24744 -10.24539 -10.24512 -10.24483
 Alpha  occ. eigenvalues --  -10.24352 -10.24108 -10.24021 -10.23692 -10.23542
 Alpha  occ. eigenvalues --  -10.23396 -10.22293 -10.22083  -1.19768  -1.14445
 Alpha  occ. eigenvalues --   -1.13668  -1.13444  -1.12280  -1.11865  -1.11262
 Alpha  occ. eigenvalues --   -1.09500  -1.08623  -1.06297  -1.05060  -1.00922
 Alpha  occ. eigenvalues --   -0.99375  -0.98246  -0.97939  -0.95697  -0.94806
 Alpha  occ. eigenvalues --   -0.90987  -0.88846  -0.87093  -0.85401  -0.85327
 Alpha  occ. eigenvalues --   -0.84056  -0.83653  -0.80806  -0.80380  -0.80247
 Alpha  occ. eigenvalues --   -0.79983  -0.77944  -0.76106  -0.74910  -0.74588
 Alpha  occ. eigenvalues --   -0.74311  -0.73689  -0.73225  -0.72187  -0.71919
 Alpha  occ. eigenvalues --   -0.69877  -0.68867  -0.68333  -0.67963  -0.67316
 Alpha  occ. eigenvalues --   -0.65890  -0.65541  -0.65095  -0.64583  -0.64151
 Alpha  occ. eigenvalues --   -0.63791  -0.63544  -0.62677  -0.61871  -0.61777
 Alpha  occ. eigenvalues --   -0.61211  -0.60559  -0.59939  -0.59339  -0.57461
 Alpha  occ. eigenvalues --   -0.56956  -0.56165  -0.55937  -0.55635  -0.55428
 Alpha  occ. eigenvalues --   -0.55003  -0.54773  -0.54255  -0.53663  -0.53332
 Alpha  occ. eigenvalues --   -0.52912  -0.52825  -0.52667  -0.52239  -0.52111
 Alpha  occ. eigenvalues --   -0.51946  -0.51382  -0.50956  -0.50842  -0.50342
 Alpha  occ. eigenvalues --   -0.50132  -0.49706  -0.49597  -0.49315  -0.49009
 Alpha  occ. eigenvalues --   -0.48355  -0.48061  -0.47909  -0.47781  -0.47300
 Alpha  occ. eigenvalues --   -0.47088  -0.46940  -0.46621  -0.46567  -0.46508
 Alpha  occ. eigenvalues --   -0.46303  -0.46013  -0.45670  -0.45424  -0.45279
 Alpha  occ. eigenvalues --   -0.44647  -0.44565  -0.44283  -0.43840  -0.43492
 Alpha  occ. eigenvalues --   -0.43114  -0.42965  -0.42511  -0.42090  -0.41975
 Alpha  occ. eigenvalues --   -0.41890  -0.41587  -0.40976  -0.40937  -0.40334
 Alpha  occ. eigenvalues --   -0.39962  -0.39232  -0.38544  -0.38394  -0.38297
 Alpha  occ. eigenvalues --   -0.38240  -0.38157  -0.37769  -0.37655  -0.37399
 Alpha  occ. eigenvalues --   -0.35092  -0.34711  -0.34066  -0.33419  -0.32836
 Alpha  occ. eigenvalues --   -0.32557  -0.32038  -0.31765  -0.31102  -0.30692
 Alpha  occ. eigenvalues --   -0.30388  -0.30151  -0.27487
 Alpha virt. eigenvalues --   -0.12981  -0.11317  -0.07029  -0.06709  -0.05972
 Alpha virt. eigenvalues --   -0.05194  -0.05006  -0.04838  -0.04023  -0.03124
 Alpha virt. eigenvalues --   -0.03016  -0.02437  -0.01143  -0.00692   0.01127

 Mulliken charges:
               1
     1  N   -0.756082
     2  H    0.417533
     3  H    0.414989
     4  H    0.434151
     5  C   -0.124214
     6  H    0.208928
     7  C    0.695587
     8  C   -0.101481
     9  H    0.152815
    10  O   -0.575553
    11  C   -0.494152
    12  H    0.236347
    13  H    0.188538
    14  H    0.120190
    15  C   -0.499233
    16  H    0.225433
    17  H    0.147105
    18  H    0.185540
    19  N   -0.588003
    20  H    0.379615
    21  C   -0.119873
    22  H    0.235315
    23  C    0.645963
    24  C   -0.055270
    25  H    0.160359
    26  H    0.175500
    27  O   -0.541978
    28  O   -0.629524
    29  H    0.422205
    30  N   -0.619142
    31  H    0.373701
    32  C   -0.044707
    33  H    0.182049
    34  C    0.627437
    35  C   -0.470898
    36  H    0.163966
    37  H    0.191203
    38  H    0.170792
    39  O   -0.529028
    40  N   -0.587376
    41  H    0.337476
    42  C   -0.085601
    43  H    0.186144
    44  C    0.629779
    45  C   -0.267767
    46  H    0.153129
    47  H    0.139958
    48  O   -0.552299
    49  C   -0.095572
    50  H    0.146061
    51  C   -0.448352
    52  H    0.144538
    53  H    0.164995
    54  H    0.134336
    55  C   -0.444801
    56  H    0.144008
    57  H    0.152399
    58  H    0.142883
    59  N   -0.600227
    60  H    0.361626
    61  C   -0.062723
    62  H    0.184085
    63  C    0.634968
    64  C   -0.371733
    65  H    0.157474
    66  H    0.161264
    67  O   -0.548051
    68  C    0.187690
    69  C   -0.180832
    70  H    0.133881
    71  C   -0.165125
    72  H    0.131789
    73  C   -0.142081
    74  H    0.134348
    75  C   -0.203958
    76  H    0.115722
    77  O   -0.697664
    78  H    0.435583
    79  C    0.346728
    80  N   -0.619337
    81  H    0.353063
    82  C   -0.030872
    83  H    0.187817
    84  C    0.603206
    85  C   -0.270530
    86  H    0.160866
    87  H    0.175137
    88  O   -0.606259
    89  C   -0.287468
    90  H    0.142606
    91  H    0.147950
    92  C   -0.283303
    93  H    0.159659
    94  H    0.147783
    95  C   -0.160470
    96  H    0.184716
    97  H    0.145635
    98  N   -0.774496
    99  H    0.336515
   100  H    0.458171
   101  H    0.328815
   102  O   -0.512028
 Sum of Mulliken charges =   1.00000

 Dipole moment (field-independent basis, Debye):
    X=            -24.3707    Y=              8.7330    Z=             -3.5364  Tot=             26.1286
 Quadrupole moment (field-independent basis, Debye-Ang):
   XX=             -9.5640   YY=           -246.8234   ZZ=           -178.8989
   XY=           -103.9634   XZ=            -56.6913   YZ=             17.9735

 Normal termination of Gaussian 16 at Thu Jul 14 14:15:00 2022.
