 Gaussian 16, Revision C.01,
 Gaussian 16:  ES64L-G16RevC.01  3-Jul-2019

 ----------------------------------------------------------------------
 # B3LYP/6-31G* empiricaldispersion=gd3bj guess=read geom=check nosymm
 integral(ultrafinegrid)
 ----------------------------------------------------------------------

 ------------------------------------------------------
 Candidate Structure: Conf:102 Charge calc in gas phase
 ------------------------------------------------------
 Structure from the checkpoint file:  "conf-102.chk"
 Charge =  1 Multiplicity = 1

                          Input orientation:
 ---------------------------------------------------------------------
 Center     Atomic      Atomic             Coordinates (Angstroms)
 Number     Number       Type             X           Y           Z
 ---------------------------------------------------------------------
      1          7           0       -6.371677    4.151411    5.207308
      2          1           0       -5.869394    4.002705    6.086806
      3          1           0       -7.367090    4.262660    5.414333
      4          1           0       -5.967138    5.010297    4.726175
      5          6           0       -6.098659    3.073558    4.176024
      6          1           0       -5.734628    2.183459    4.695461
      7          6           0       -4.988562    3.740773    3.321562
      8          6           0       -7.390737    2.748498    3.389129
      9          1           0       -7.719818    3.681344    2.909393
     10          8           0       -4.886860    4.976406    3.390390
     11          6           0       -7.120564    1.707259    2.291904
     12          1           0       -6.718120    0.779194    2.716352
     13          1           0       -8.061044    1.456406    1.794145
     14          1           0       -6.428321    2.064155    1.527423
     15          6           0       -8.498066    2.240615    4.327386
     16          1           0       -8.186535    1.325643    4.844255
     17          1           0       -8.814040    2.967493    5.088012
     18          1           0       -9.393142    2.006141    3.745090
     19          7           0       -4.234480    2.942233    2.582134
     20          1           0       -4.404019    1.937189    2.509232
     21          6           0       -3.232585    3.396090    1.628787
     22          1           0       -3.562588    4.323385    1.152791
     23          6           0       -3.095679    2.254467    0.620158
     24          6           0       -1.863721    3.651066    2.334757
     25          1           0       -1.597179    2.748133    2.899568
     26          1           0       -2.007455    4.477276    3.038128
     27          8           0       -3.580658    1.146726    0.867424
     28          8           0       -0.864810    4.009154    1.414567
     29          1           0       -0.410557    3.174254    1.152406
     30          7           0       -2.363569    2.539647   -0.481019
     31          1           0       -1.839988    3.409794   -0.417722
     32          6           0       -1.679719    1.444204   -1.165782
     33          1           0       -2.435646    0.721963   -1.483984
     34          6           0       -0.723817    0.776709   -0.156978
     35          6           0       -0.904537    1.978445   -2.371152
     36          1           0       -0.400200    1.161128   -2.893842
     37          1           0       -0.139711    2.694669   -2.052091
     38          1           0       -1.583008    2.473894   -3.071297
     39          8           0       -0.132695    1.451999    0.700841
     40          7           0       -0.583928   -0.546554   -0.279764
     41          1           0       -0.997799   -1.043882   -1.062913
     42          6           0        0.350452   -1.347397    0.501173
     43          1           0        1.049313   -0.657104    0.976615
     44          6           0        1.077884   -2.230464   -0.524433
     45          6           0       -0.381393   -2.203916    1.550551
     46          1           0       -1.017398   -2.918992    1.012910
     47          1           0        0.370625   -2.795831    2.089954
     48          8           0        0.484624   -2.611270   -1.537062
     49          6           0       -1.234375   -1.409607    2.554680
     50          1           0       -1.940900   -0.793497    1.981820
     51          6           0       -2.047819   -2.381276    3.419299
     52          1           0       -1.388116   -3.027354    4.011917
     53          1           0       -2.692642   -1.837432    4.120087
     54          1           0       -2.685742   -3.027527    2.805509
     55          6           0       -0.386154   -0.478144    3.430522
     56          1           0        0.366365   -1.045712    3.992937
     57          1           0       -1.018221    0.039982    4.163035
     58          1           0        0.125078    0.283489    2.835578
     59          7           0        2.359241   -2.506036   -0.235871
     60          1           0        2.812171   -2.095756    0.577676
     61          6           0        3.308631   -3.059988   -1.182294
     62          1           0        3.008390   -4.075630   -1.465320
     63          6           0        4.647324   -3.107124   -0.423311
     64          6           0        3.412624   -2.194329   -2.477198
     65          1           0        2.451639   -2.279148   -2.989680
     66          1           0        4.170846   -2.634372   -3.134294
     67          8           0        4.759306   -2.611645    0.695952
     68          6           0        3.739751   -0.753257   -2.177816
     69          6           0        2.721639    0.160050   -1.866618
     70          1           0        1.686075   -0.156416   -1.942637
     71          6           0        5.063784   -0.306709   -2.116878
     72          1           0        5.871362   -0.982767   -2.382503
     73          6           0        3.006361    1.461485   -1.469715
     74          1           0        2.217158    2.156089   -1.201380
     75          6           0        5.365689    0.999862   -1.736690
     76          1           0        6.402218    1.328763   -1.698802
     77          8           0        4.567480    3.171918   -1.002283
     78          1           0        5.524012    3.331482   -0.990361
     79          6           0        4.337661    1.884533   -1.398304
     80          7           0        5.659889   -3.722554   -1.079088
     81          1           0        5.545721   -3.934726   -2.063515
     82          6           0        7.045473   -3.607823   -0.653564
     83          1           0        7.066360   -3.018458    0.263272
     84          6           0        7.841970   -2.894392   -1.734727
     85          6           0        7.661958   -5.016629   -0.398262
     86          1           0        7.301609   -5.345907    0.581596
     87          1           0        7.230543   -5.706455   -1.134346
     88          8           0        8.920640   -2.297805   -1.251237
     89          6           0        9.201414   -5.101583   -0.466231
     90          1           0        9.529252   -5.934564    0.165091
     91          1           0        9.634760   -4.196757   -0.031416
     92          6           0        9.746450   -5.327202   -1.903257
     93          1           0        9.917204   -6.400379   -2.044331
     94          1           0        8.987807   -5.054881   -2.646374
     95          6           0       11.048752   -4.586245   -2.257345
     96          1           0       11.633542   -5.186364   -2.967475
     97          1           0       11.667436   -4.453374   -1.363298
     98          7           0       10.783711   -3.235948   -2.819196
     99          1           0       11.660702   -2.747487   -2.994110
    100          1           0       10.311838   -3.326945   -3.719325
    101          1           0        9.688842   -2.420156   -1.935279
    102          8           0        7.550188   -2.978032   -2.920682
 ---------------------------------------------------------------------

 SCF Done:  E(RB3LYP) =  -2312.32159804     A.U. after    1 cycles

 Alpha  occ. eigenvalues --  -19.26877 -19.22579 -19.22279 -19.21961 -19.21034
 Alpha  occ. eigenvalues --  -19.20610 -19.18188 -19.17844 -19.17684 -14.60054
 Alpha  occ. eigenvalues --  -14.49634 -14.45130 -14.44160 -14.41648 -14.41561
 Alpha  occ. eigenvalues --  -14.40595 -10.43649 -10.40797 -10.38930 -10.37273
 Alpha  occ. eigenvalues --  -10.35877 -10.34846 -10.34836 -10.34671 -10.33864
 Alpha  occ. eigenvalues --  -10.32609 -10.32226 -10.31563 -10.30094 -10.29826
 Alpha  occ. eigenvalues --  -10.29388 -10.29385 -10.28190 -10.27603 -10.26664
 Alpha  occ. eigenvalues --  -10.25024 -10.24922 -10.24420 -10.24274 -10.23866
 Alpha  occ. eigenvalues --  -10.23626 -10.23542 -10.23416 -10.23394 -10.23387
 Alpha  occ. eigenvalues --  -10.23324 -10.23098 -10.22960  -1.19467  -1.14644
 Alpha  occ. eigenvalues --   -1.13887  -1.13428  -1.12137  -1.10329  -1.10152
 Alpha  occ. eigenvalues --   -1.09780  -1.09282  -1.06286  -1.04887  -1.02239
 Alpha  occ. eigenvalues --   -1.00693  -0.98729  -0.98294  -0.96071  -0.95608
 Alpha  occ. eigenvalues --   -0.89921  -0.88976  -0.87760  -0.86131  -0.85713
 Alpha  occ. eigenvalues --   -0.84204  -0.83789  -0.81802  -0.81252  -0.80524
 Alpha  occ. eigenvalues --   -0.79296  -0.77713  -0.75804  -0.75207  -0.74704
 Alpha  occ. eigenvalues --   -0.74274  -0.74110  -0.73805  -0.72389  -0.71572
 Alpha  occ. eigenvalues --   -0.70489  -0.69990  -0.68345  -0.67986  -0.66952
 Alpha  occ. eigenvalues --   -0.66842  -0.65977  -0.65768  -0.64611  -0.64100
 Alpha  occ. eigenvalues --   -0.64007  -0.63321  -0.62665  -0.62114  -0.61513
 Alpha  occ. eigenvalues --   -0.61280  -0.59440  -0.59004  -0.58698  -0.58393
 Alpha  occ. eigenvalues --   -0.58071  -0.57019  -0.56625  -0.56170  -0.55517
 Alpha  occ. eigenvalues --   -0.55291  -0.54802  -0.54504  -0.53930  -0.53560
 Alpha  occ. eigenvalues --   -0.53401  -0.53146  -0.52741  -0.52484  -0.52317
 Alpha  occ. eigenvalues --   -0.51619  -0.51412  -0.51212  -0.51116  -0.50882
 Alpha  occ. eigenvalues --   -0.50692  -0.50271  -0.49992  -0.49652  -0.49154
 Alpha  occ. eigenvalues --   -0.48987  -0.48756  -0.48371  -0.48221  -0.47700
 Alpha  occ. eigenvalues --   -0.47669  -0.47423  -0.47271  -0.47030  -0.46749
 Alpha  occ. eigenvalues --   -0.46542  -0.46201  -0.45930  -0.45561  -0.45239
 Alpha  occ. eigenvalues --   -0.45190  -0.44918  -0.44712  -0.44220  -0.44098
 Alpha  occ. eigenvalues --   -0.43820  -0.43345  -0.42441  -0.42110  -0.41938
 Alpha  occ. eigenvalues --   -0.41611  -0.41550  -0.41346  -0.41154  -0.40285
 Alpha  occ. eigenvalues --   -0.39536  -0.38891  -0.38698  -0.38639  -0.38500
 Alpha  occ. eigenvalues --   -0.38433  -0.38303  -0.37945  -0.37188  -0.36863
 Alpha  occ. eigenvalues --   -0.36320  -0.35017  -0.34731  -0.34192  -0.33637
 Alpha  occ. eigenvalues --   -0.33002  -0.32382  -0.32218  -0.31418  -0.31173
 Alpha  occ. eigenvalues --   -0.30213  -0.29546  -0.26216
 Alpha virt. eigenvalues --   -0.12635  -0.11170  -0.08668  -0.06728  -0.06155
 Alpha virt. eigenvalues --   -0.05238  -0.04577  -0.04262  -0.03774  -0.03684
 Alpha virt. eigenvalues --   -0.02623  -0.01917  -0.01214  -0.00459   0.00389

 Mulliken charges:
               1
     1  N   -0.759122
     2  H    0.416587
     3  H    0.409410
     4  H    0.434215
     5  C   -0.104216
     6  H    0.206008
     7  C    0.649124
     8  C   -0.109902
     9  H    0.171749
    10  O   -0.541981
    11  C   -0.476575
    12  H    0.168382
    13  H    0.189645
    14  H    0.186901
    15  C   -0.473851
    16  H    0.177308
    17  H    0.139619
    18  H    0.203423
    19  N   -0.605394
    20  H    0.377752
    21  C   -0.088314
    22  H    0.203673
    23  C    0.617744
    24  C   -0.033944
    25  H    0.155904
    26  H    0.169290
    27  O   -0.543418
    28  O   -0.641110
    29  H    0.446780
    30  N   -0.584166
    31  H    0.354266
    32  C   -0.069005
    33  H    0.184464
    34  C    0.658932
    35  C   -0.480204
    36  H    0.187418
    37  H    0.179279
    38  H    0.181893
    39  O   -0.576287
    40  N   -0.584861
    41  H    0.357384
    42  C   -0.082639
    43  H    0.192328
    44  C    0.636563
    45  C   -0.255543
    46  H    0.150166
    47  H    0.150234
    48  O   -0.558088
    49  C   -0.084209
    50  H    0.143837
    51  C   -0.440000
    52  H    0.149342
    53  H    0.124029
    54  H    0.145951
    55  C   -0.468244
    56  H    0.144631
    57  H    0.120712
    58  H    0.179979
    59  N   -0.616736
    60  H    0.364873
    61  C   -0.029771
    62  H    0.180800
    63  C    0.622037
    64  C   -0.400234
    65  H    0.192497
    66  H    0.158574
    67  O   -0.532136
    68  C    0.164278
    69  C   -0.207123
    70  H    0.125194
    71  C   -0.197721
    72  H    0.155488
    73  C   -0.164539
    74  H    0.134272
    75  C   -0.194607
    76  H    0.128272
    77  O   -0.642358
    78  H    0.410757
    79  C    0.353645
    80  N   -0.603264
    81  H    0.344220
    82  C   -0.042727
    83  H    0.202983
    84  C    0.596095
    85  C   -0.277394
    86  H    0.162342
    87  H    0.147058
    88  O   -0.597090
    89  C   -0.286272
    90  H    0.147363
    91  H    0.171101
    92  C   -0.293275
    93  H    0.152505
    94  H    0.161746
    95  C   -0.142500
    96  H    0.149133
    97  H    0.164637
    98  N   -0.779264
    99  H    0.333414
   100  H    0.342248
   101  H    0.457266
   102  O   -0.519638
 Sum of Mulliken charges =   1.00000

 Dipole moment (field-independent basis, Debye):
    X=            -14.0709    Y=              7.2623    Z=             13.7465  Tot=             20.9689
 Quadrupole moment (field-independent basis, Debye-Ang):
   XX=             26.8599   YY=           -220.6706   ZZ=           -180.8282
   XY=           -133.7137   XZ=           -155.8050   YZ=             68.7937

 Normal termination of Gaussian 16 at Thu Jul 14 14:16:24 2022.
