 Gaussian 16, Revision C.01,
 Gaussian 16:  ES64L-G16RevC.01  3-Jul-2019

 ----------------------------------------------------------------------
 # B3LYP/6-31G* empiricaldispersion=gd3bj guess=read geom=check nosymm
 integral(ultrafinegrid)
 ----------------------------------------------------------------------

 ------------------------------------------------------
 Candidate Structure: Conf:669 Charge calc in gas phase
 ------------------------------------------------------
 Structure from the checkpoint file:  "conf-669.chk"
 Charge =  1 Multiplicity = 1

                          Input orientation:
 ---------------------------------------------------------------------
 Center     Atomic      Atomic             Coordinates (Angstroms)
 Number     Number       Type             X           Y           Z
 ---------------------------------------------------------------------
      1          7           0       -6.533310    0.545871    6.510611
      2          1           0       -5.860075    0.126260    7.157661
      3          1           0       -7.478725    0.379449    6.866332
      4          1           0       -6.333533    1.585613    6.433695
      5          6           0       -6.352670    0.078732    5.077703
      6          1           0       -5.715532   -0.808468    5.091120
      7          6           0       -5.627156    1.280307    4.424756
      8          6           0       -7.726295   -0.254900    4.447525
      9          1           0       -8.196652   -0.973451    5.135780
     10          8           0       -5.628446    2.356283    5.057227
     11          6           0       -8.625646    0.982863    4.324226
     12          1           0       -8.202764    1.709706    3.623354
     13          1           0       -9.608351    0.687576    3.947218
     14          1           0       -8.789058    1.499120    5.278267
     15          6           0       -7.559018   -0.966790    3.098017
     16          1           0       -7.178750   -0.292476    2.325658
     17          1           0       -6.885978   -1.828472    3.169928
     18          1           0       -8.532009   -1.334538    2.761121
     19          7           0       -5.091267    1.072973    3.237974
     20          1           0       -5.040657    0.141278    2.811241
     21          6           0       -4.402233    2.061884    2.408385
     22          1           0       -5.091829    2.872876    2.147692
     23          6           0       -4.015250    1.267552    1.149715
     24          6           0       -3.175958    2.706952    3.116596
     25          1           0       -2.429688    2.984591    2.369743
     26          1           0       -2.707497    1.939551    3.751780
     27          8           0       -4.145261    0.041661    1.132318
     28          8           0       -3.524389    3.874586    3.815772
     29          1           0       -4.191303    3.631304    4.481226
     30          7           0       -3.550624    1.988903    0.106654
     31          1           0       -3.313200    2.955511    0.297114
     32          6           0       -2.691978    1.321923   -0.869791
     33          1           0       -3.253912    0.482290   -1.286755
     34          6           0       -1.452185    0.785175   -0.115970
     35          6           0       -2.287343    2.298934   -1.973966
     36          1           0       -1.660447    1.794851   -2.714438
     37          1           0       -1.708927    3.131981   -1.558057
     38          1           0       -3.170693    2.697529   -2.481305
     39          8           0       -1.094096    1.297326    0.945421
     40          7           0       -0.837558   -0.250680   -0.710183
     41          1           0       -1.095323   -0.555945   -1.645000
     42          6           0        0.389670   -0.856004   -0.222775
     43          1           0        0.923783   -0.112862    0.376000
     44          6           0        1.197360   -1.233116   -1.474193
     45          6           0        0.112028   -2.125979    0.612030
     46          1           0       -0.384974   -2.847578   -0.049366
     47          1           0        1.075790   -2.571858    0.892852
     48          8           0        0.639104   -1.360537   -2.565696
     49          6           0       -0.739571   -1.917397    1.875659
     50          1           0       -1.664051   -1.402483    1.582876
     51          6           0       -1.124018   -3.282828    2.460948
     52          1           0       -0.232551   -3.847889    2.760999
     53          1           0       -1.753429   -3.164438    3.351231
     54          1           0       -1.676397   -3.890538    1.734969
     55          6           0       -0.020185   -1.057490    2.921906
     56          1           0        0.936270   -1.511845    3.211738
     57          1           0       -0.628673   -0.969253    3.830659
     58          1           0        0.163275   -0.046341    2.550852
     59          7           0        2.508174   -1.467550   -1.273612
     60          1           0        2.957232   -1.272964   -0.385120
     61          6           0        3.407105   -1.881113   -2.335831
     62          1           0        2.874032   -2.585707   -2.978727
     63          6           0        4.623660   -2.530664   -1.677931
     64          6           0        3.885879   -0.651275   -3.188236
     65          1           0        3.930415    0.204174   -2.507746
     66          1           0        3.108079   -0.443467   -3.929432
     67          8           0        5.129880   -2.007832   -0.682728
     68          6           0        5.241488   -0.860968   -3.817771
     69          6           0        6.386104   -0.345643   -3.194688
     70          1           0        6.274487    0.300977   -2.329489
     71          6           0        5.416797   -1.695589   -4.926641
     72          1           0        4.550174   -2.108984   -5.436255
     73          6           0        7.664552   -0.690659   -3.624171
     74          1           0        8.547070   -0.298824   -3.127992
     75          6           0        6.688984   -2.060975   -5.361395
     76          1           0        6.802450   -2.756703   -6.187715
     77          8           0        9.088631   -1.993067   -4.999388
     78          1           0        9.026659   -2.810989   -5.520671
     79          6           0        7.815357   -1.587842   -4.683700
     80          7           0        5.103887   -3.620529   -2.311909
     81          1           0        4.637507   -3.946446   -3.154515
     82          6           0        6.510123   -4.002760   -2.288919
     83          1           0        7.093759   -3.083828   -2.220656
     84          6           0        6.803791   -4.645365   -3.652052
     85          6           0        6.909863   -4.958704   -1.135018
     86          1           0        6.023378   -5.552671   -0.889597
     87          1           0        7.668084   -5.665116   -1.493615
     88          8           0        8.094138   -4.760811   -3.945339
     89          6           0        7.432316   -4.241962    0.119368
     90          1           0        7.304392   -4.915637    0.976028
     91          1           0        6.804872   -3.364959    0.311055
     92          6           0        8.913944   -3.824106    0.094947
     93          1           0        9.151752   -3.407973    1.081712
     94          1           0        9.549400   -4.715858   -0.013866
     95          6           0        9.344470   -2.786583   -0.953511
     96          1           0       10.209411   -2.226090   -0.571906
     97          1           0        8.545005   -2.057354   -1.118787
     98          7           0        9.674208   -3.403403   -2.261801
     99          1           0        9.882858   -2.680281   -2.953574
    100          1           0       10.523464   -3.959937   -2.161229
    101          1           0        8.661466   -4.309203   -3.220573
    102          8           0        5.919817   -5.024903   -4.395379
 ---------------------------------------------------------------------

 SCF Done:  E(RB3LYP) =  -2312.31454527     A.U. after    1 cycles

 Alpha  occ. eigenvalues --  -19.28470 -19.23434 -19.23124 -19.22466 -19.21285
 Alpha  occ. eigenvalues --  -19.19268 -19.18344 -19.17394 -19.17210 -14.61165
 Alpha  occ. eigenvalues --  -14.50582 -14.46199 -14.43256 -14.42604 -14.40875
 Alpha  occ. eigenvalues --  -14.39875 -10.44943 -10.41705 -10.40008 -10.36332
 Alpha  occ. eigenvalues --  -10.35530 -10.35490 -10.35415 -10.34991 -10.34254
 Alpha  occ. eigenvalues --  -10.32961 -10.32230 -10.31356 -10.30773 -10.30145
 Alpha  occ. eigenvalues --  -10.29936 -10.29346 -10.28006 -10.27065 -10.26979
 Alpha  occ. eigenvalues --  -10.25206 -10.24958 -10.24766 -10.24163 -10.24081
 Alpha  occ. eigenvalues --  -10.24042 -10.23748 -10.23741 -10.23553 -10.23520
 Alpha  occ. eigenvalues --  -10.23480 -10.22860 -10.22390  -1.20675  -1.15575
 Alpha  occ. eigenvalues --   -1.14954  -1.12973  -1.11323  -1.10933  -1.10463
 Alpha  occ. eigenvalues --   -1.10270  -1.09009  -1.07264  -1.04979  -1.03010
 Alpha  occ. eigenvalues --   -1.00043  -0.99101  -0.97858  -0.96339  -0.95536
 Alpha  occ. eigenvalues --   -0.90624  -0.89638  -0.87864  -0.86562  -0.85372
 Alpha  occ. eigenvalues --   -0.84542  -0.83979  -0.82328  -0.81439  -0.80225
 Alpha  occ. eigenvalues --   -0.79864  -0.77699  -0.77090  -0.76481  -0.74875
 Alpha  occ. eigenvalues --   -0.74440  -0.74377  -0.74118  -0.72674  -0.71837
 Alpha  occ. eigenvalues --   -0.70657  -0.70277  -0.69036  -0.67959  -0.67168
 Alpha  occ. eigenvalues --   -0.67009  -0.66307  -0.65111  -0.64917  -0.64021
 Alpha  occ. eigenvalues --   -0.63607  -0.63478  -0.62854  -0.62494  -0.62278
 Alpha  occ. eigenvalues --   -0.61568  -0.61132  -0.60479  -0.59507  -0.59298
 Alpha  occ. eigenvalues --   -0.58391  -0.57443  -0.57129  -0.56080  -0.55589
 Alpha  occ. eigenvalues --   -0.55295  -0.54879  -0.54609  -0.54471  -0.53827
 Alpha  occ. eigenvalues --   -0.53673  -0.53211  -0.52893  -0.52631  -0.52193
 Alpha  occ. eigenvalues --   -0.51811  -0.51463  -0.51378  -0.51169  -0.50888
 Alpha  occ. eigenvalues --   -0.50726  -0.50235  -0.49899  -0.49494  -0.49097
 Alpha  occ. eigenvalues --   -0.48914  -0.48817  -0.48564  -0.48462  -0.48260
 Alpha  occ. eigenvalues --   -0.48129  -0.47633  -0.47432  -0.47327  -0.47152
 Alpha  occ. eigenvalues --   -0.46995  -0.46418  -0.45876  -0.45649  -0.45362
 Alpha  occ. eigenvalues --   -0.44972  -0.44582  -0.44333  -0.44292  -0.44045
 Alpha  occ. eigenvalues --   -0.43854  -0.43722  -0.43517  -0.42838  -0.42299
 Alpha  occ. eigenvalues --   -0.42179  -0.41672  -0.41432  -0.40680  -0.40371
 Alpha  occ. eigenvalues --   -0.39493  -0.39064  -0.38716  -0.38628  -0.38500
 Alpha  occ. eigenvalues --   -0.38488  -0.38121  -0.37859  -0.37558  -0.37275
 Alpha  occ. eigenvalues --   -0.36555  -0.35248  -0.34677  -0.33550  -0.33059
 Alpha  occ. eigenvalues --   -0.32754  -0.32452  -0.31749  -0.31529  -0.30859
 Alpha  occ. eigenvalues --   -0.30518  -0.29649  -0.26887
 Alpha virt. eigenvalues --   -0.13765  -0.12219  -0.09301  -0.07817  -0.05711
 Alpha virt. eigenvalues --   -0.05678  -0.05274  -0.04777  -0.04397  -0.03150
 Alpha virt. eigenvalues --   -0.02412  -0.01990  -0.01916  -0.00973  -0.00051

 Mulliken charges:
               1
     1  N   -0.760092
     2  H    0.420039
     3  H    0.414874
     4  H    0.438218
     5  C   -0.107978
     6  H    0.215732
     7  C    0.666463
     8  C   -0.112651
     9  H    0.162230
    10  O   -0.574471
    11  C   -0.471783
    12  H    0.187169
    13  H    0.198275
    14  H    0.142694
    15  C   -0.473861
    16  H    0.181667
    17  H    0.170675
    18  H    0.193345
    19  N   -0.618909
    20  H    0.385450
    21  C   -0.080744
    22  H    0.202004
    23  C    0.630009
    24  C   -0.039001
    25  H    0.196318
    26  H    0.142602
    27  O   -0.537866
    28  O   -0.619273
    29  H    0.420277
    30  N   -0.579734
    31  H    0.346595
    32  C   -0.068798
    33  H    0.189402
    34  C    0.640414
    35  C   -0.477294
    36  H    0.186240
    37  H    0.169512
    38  H    0.179740
    39  O   -0.548476
    40  N   -0.598464
    41  H    0.355982
    42  C   -0.076836
    43  H    0.178863
    44  C    0.629382
    45  C   -0.250330
    46  H    0.147047
    47  H    0.143644
    48  O   -0.546183
    49  C   -0.077692
    50  H    0.143115
    51  C   -0.440370
    52  H    0.148171
    53  H    0.122520
    54  H    0.145269
    55  C   -0.459973
    56  H    0.137763
    57  H    0.119307
    58  H    0.181318
    59  N   -0.617711
    60  H    0.349832
    61  C   -0.019238
    62  H    0.173669
    63  C    0.602855
    64  C   -0.350958
    65  H    0.153591
    66  H    0.177590
    67  O   -0.548547
    68  C    0.139747
    69  C   -0.171905
    70  H    0.140966
    71  C   -0.189593
    72  H    0.141962
    73  C   -0.180446
    74  H    0.140200
    75  C   -0.186580
    76  H    0.153230
    77  O   -0.663970
    78  H    0.424258
    79  C    0.350707
    80  N   -0.604112
    81  H    0.356895
    82  C   -0.065236
    83  H    0.189997
    84  C    0.613390
    85  C   -0.268405
    86  H    0.158413
    87  H    0.150790
    88  O   -0.640365
    89  C   -0.288662
    90  H    0.135643
    91  H    0.185365
    92  C   -0.260529
    93  H    0.146857
    94  H    0.132972
    95  C   -0.155949
    96  H    0.142146
    97  H    0.173153
    98  N   -0.802768
    99  H    0.356105
   100  H    0.327846
   101  H    0.479456
   102  O   -0.494205
 Sum of Mulliken charges =   1.00000

 Dipole moment (field-independent basis, Debye):
    X=            -20.2330    Y=             -0.4185    Z=             20.5703  Tot=             28.8563
 Quadrupole moment (field-independent basis, Debye-Ang):
   XX=             -5.2035   YY=           -291.5996   ZZ=           -147.8674
   XY=            -26.6930   XZ=           -156.6206   YZ=            -16.4394

 Normal termination of Gaussian 16 at Thu Jul 14 14:14:28 2022.
