 Gaussian 16, Revision C.01,
 Gaussian 16:  ES64L-G16RevC.01  3-Jul-2019

 ----------------------------------------------------------------------
 # B3LYP/6-31G* empiricaldispersion=gd3bj guess=read geom=check nosymm
 integral(ultrafinegrid)
 ----------------------------------------------------------------------

 ------------------------------------------------------
 Candidate Structure: Conf:549 Charge calc in gas phase
 ------------------------------------------------------
 Structure from the checkpoint file:  "conf-549.chk"
 Charge =  1 Multiplicity = 1

                          Input orientation:
 ---------------------------------------------------------------------
 Center     Atomic      Atomic             Coordinates (Angstroms)
 Number     Number       Type             X           Y           Z
 ---------------------------------------------------------------------
      1          7           0       -2.880162    4.766898    0.211754
      2          1           0       -3.357919    5.518887   -0.286800
      3          1           0       -2.594472    4.051162   -0.476455
      4          1           0       -1.974218    5.108593    0.597011
      5          6           0       -3.669700    4.167964    1.340851
      6          1           0       -4.271134    4.978951    1.765218
      7          6           0       -2.584534    3.784253    2.378338
      8          6           0       -4.593280    3.037257    0.848508
      9          1           0       -5.182606    2.740262    1.726522
     10          8           0       -1.474927    4.308759    2.287523
     11          6           0       -5.585827    3.562828   -0.199462
     12          1           0       -5.081545    3.824098   -1.138366
     13          1           0       -6.320698    2.790126   -0.441759
     14          1           0       -6.131752    4.443557    0.158337
     15          6           0       -3.830249    1.807103    0.332986
     16          1           0       -3.277728    2.012328   -0.590188
     17          1           0       -3.118132    1.422144    1.065949
     18          1           0       -4.542367    1.007741    0.108121
     19          7           0       -2.945289    2.901483    3.320428
     20          1           0       -3.837443    2.425178    3.261779
     21          6           0       -1.975426    2.251177    4.201715
     22          1           0       -0.997500    2.672597    3.963574
     23          6           0       -2.087536    0.755001    3.870884
     24          6           0       -2.300924    2.503753    5.671387
     25          1           0       -1.563243    1.961764    6.284056
     26          1           0       -3.293126    2.083867    5.890672
     27          8           0       -3.182020    0.200022    3.985567
     28          8           0       -2.246244    3.902137    5.878421
     29          1           0       -2.458819    4.078380    6.807190
     30          7           0       -0.970979    0.165042    3.409377
     31          1           0       -0.102950    0.680041    3.287565
     32          6           0       -0.918677   -1.203699    2.919463
     33          1           0       -1.192723   -1.891515    3.729039
     34          6           0        0.542536   -1.440070    2.504371
     35          6           0       -1.863145   -1.426527    1.722833
     36          1           0       -1.806654   -2.457684    1.360549
     37          1           0       -1.597799   -0.755023    0.901260
     38          1           0       -2.888845   -1.225472    2.035201
     39          8           0        1.345691   -0.504848    2.457253
     40          7           0        0.863056   -2.710306    2.165896
     41          1           0        0.114988   -3.387996    2.084284
     42          6           0        2.080646   -3.008503    1.396957
     43          1           0        2.848679   -2.331830    1.773396
     44          6           0        1.740639   -2.687915   -0.071967
     45          6           0        2.488174   -4.465925    1.587544
     46          1           0        2.670802   -4.635312    2.656718
     47          1           0        1.645651   -5.101552    1.288719
     48          8           0        1.125765   -3.491493   -0.772611
     49          6           0        3.724262   -4.883397    0.771666
     50          1           0        3.459611   -4.793147   -0.289571
     51          6           0        4.938431   -3.985367    1.045123
     52          1           0        5.185919   -3.971781    2.114576
     53          1           0        5.818384   -4.353708    0.505897
     54          1           0        4.766946   -2.951567    0.724139
     55          6           0        4.057589   -6.353002    1.053516
     56          1           0        4.340622   -6.496481    2.104163
     57          1           0        4.894659   -6.692344    0.433473
     58          1           0        3.199882   -7.002269    0.844963
     59          7           0        2.073319   -1.440687   -0.465133
     60          1           0        2.556599   -0.794725    0.153278
     61          6           0        1.622051   -0.852432   -1.713558
     62          1           0        1.939897   -1.493919   -2.543611
     63          6           0        2.350551    0.514380   -1.802247
     64          6           0        0.054526   -0.743400   -1.763244
     65          1           0       -0.334954   -1.539084   -1.122623
     66          1           0       -0.280790   -0.983181   -2.776909
     67          8           0        3.085842    0.870449   -0.872016
     68          6           0       -0.449963    0.631524   -1.396716
     69          6           0       -0.035705    1.273211   -0.215522
     70          1           0        0.481680    0.713302    0.556296
     71          6           0       -1.134737    1.382665   -2.354037
     72          1           0       -1.460920    0.912122   -3.276675
     73          6           0       -0.129744    2.656326   -0.088160
     74          1           0        0.290928    3.169530    0.769115
     75          6           0       -1.262481    2.764507   -2.225627
     76          1           0       -1.644491    3.356222   -3.050444
     77          8           0       -0.539236    4.781594   -1.146330
     78          1           0        0.008940    4.950119   -1.986642
     79          6           0       -0.659490    3.411419   -1.141957
     80          7           0        2.130791    1.279640   -2.888050
     81          1           0        1.427202    1.039448   -3.587615
     82          6           0        2.328563    2.733581   -2.843896
     83          1           0        2.275882    3.051427   -1.799700
     84          6           0        1.174539    3.409784   -3.656136
     85          6           0        3.667640    3.173509   -3.442682
     86          1           0        3.697596    2.860491   -4.494954
     87          1           0        3.682418    4.270464   -3.427732
     88          8           0        0.914361    4.605413   -3.321213
     89          6           0        4.880331    2.614828   -2.696983
     90          1           0        4.855124    1.520062   -2.721326
     91          1           0        4.827064    2.896121   -1.639049
     92          6           0        6.198397    3.114838   -3.306756
     93          1           0        6.248442    2.823402   -4.365557
     94          1           0        6.231195    4.212906   -3.267456
     95          6           0        7.382939    2.536017   -2.555931
     96          1           0        7.422457    1.445883   -2.611698
     97          1           0        7.404050    2.840760   -1.507221
     98          7           0        8.700771    3.035838   -3.165329
     99          1           0        9.527358    2.664605   -2.682157
    100          1           0        8.763872    2.766157   -4.154321
    101          1           0        8.746487    4.061221   -3.129500
    102          8           0        0.662994    2.709491   -4.550237
 ---------------------------------------------------------------------

 SCF Done:  E(RB3LYP) =  -2312.26316245     A.U. after    2 cycles

 Alpha  occ. eigenvalues --  -19.22179 -19.21662 -19.20031 -19.19656 -19.19253
 Alpha  occ. eigenvalues --  -19.16976 -19.16652 -19.11004 -19.10928 -14.63709
 Alpha  occ. eigenvalues --  -14.54105 -14.46073 -14.43928 -14.43775 -14.40908
 Alpha  occ. eigenvalues --  -14.39763 -10.40196 -10.39474 -10.36818 -10.36604
 Alpha  occ. eigenvalues --  -10.36030 -10.33973 -10.33765 -10.32065 -10.31452
 Alpha  occ. eigenvalues --  -10.31353 -10.31011 -10.30828 -10.29302 -10.29249
 Alpha  occ. eigenvalues --  -10.29227 -10.29214 -10.27673 -10.27145 -10.26259
 Alpha  occ. eigenvalues --  -10.25367 -10.25172 -10.24833 -10.24754 -10.24400
 Alpha  occ. eigenvalues --  -10.24247 -10.24140 -10.24133 -10.24113 -10.24063
 Alpha  occ. eigenvalues --  -10.23794 -10.22829 -10.22106  -1.17577  -1.14778
 Alpha  occ. eigenvalues --   -1.12150  -1.11171  -1.09317  -1.09149  -1.09079
 Alpha  occ. eigenvalues --   -1.08243  -1.07745  -1.04245  -1.02540  -1.00434
 Alpha  occ. eigenvalues --   -1.00136  -0.97643  -0.96687  -0.95326  -0.93446
 Alpha  occ. eigenvalues --   -0.91516  -0.90793  -0.87377  -0.86137  -0.85491
 Alpha  occ. eigenvalues --   -0.84098  -0.83625  -0.81342  -0.80272  -0.80102
 Alpha  occ. eigenvalues --   -0.79618  -0.78258  -0.77592  -0.76200  -0.76024
 Alpha  occ. eigenvalues --   -0.74251  -0.73550  -0.72324  -0.72009  -0.71478
 Alpha  occ. eigenvalues --   -0.70038  -0.69419  -0.68954  -0.68456  -0.67559
 Alpha  occ. eigenvalues --   -0.66721  -0.66675  -0.65944  -0.65021  -0.64428
 Alpha  occ. eigenvalues --   -0.64347  -0.63590  -0.62887  -0.61667  -0.61579
 Alpha  occ. eigenvalues --   -0.60962  -0.60093  -0.59676  -0.58402  -0.57460
 Alpha  occ. eigenvalues --   -0.57228  -0.56925  -0.56185  -0.55255  -0.55026
 Alpha  occ. eigenvalues --   -0.54735  -0.54487  -0.54190  -0.53942  -0.53543
 Alpha  occ. eigenvalues --   -0.53536  -0.52958  -0.52706  -0.52054  -0.51766
 Alpha  occ. eigenvalues --   -0.51608  -0.51126  -0.50687  -0.50294  -0.49832
 Alpha  occ. eigenvalues --   -0.49703  -0.49306  -0.48971  -0.48757  -0.48684
 Alpha  occ. eigenvalues --   -0.48200  -0.47664  -0.47497  -0.47271  -0.47171
 Alpha  occ. eigenvalues --   -0.46715  -0.46557  -0.46400  -0.46330  -0.45620
 Alpha  occ. eigenvalues --   -0.45564  -0.45449  -0.44890  -0.44848  -0.44488
 Alpha  occ. eigenvalues --   -0.44118  -0.43934  -0.43787  -0.43620  -0.43502
 Alpha  occ. eigenvalues --   -0.42842  -0.42401  -0.42298  -0.41977  -0.41621
 Alpha  occ. eigenvalues --   -0.41559  -0.41415  -0.41058  -0.40109  -0.39912
 Alpha  occ. eigenvalues --   -0.39776  -0.38634  -0.38346  -0.37921  -0.37743
 Alpha  occ. eigenvalues --   -0.37514  -0.36574  -0.36091  -0.34871  -0.34349
 Alpha  occ. eigenvalues --   -0.34292  -0.33711  -0.33318  -0.32379  -0.31864
 Alpha  occ. eigenvalues --   -0.31303  -0.30759  -0.29805  -0.29685  -0.27902
 Alpha  occ. eigenvalues --   -0.26944  -0.25332  -0.24996
 Alpha virt. eigenvalues --   -0.14258  -0.09013  -0.07593  -0.07475  -0.06904
 Alpha virt. eigenvalues --   -0.06446  -0.05958  -0.05384  -0.04689  -0.04418
 Alpha virt. eigenvalues --   -0.03197  -0.02403  -0.01299  -0.01261   0.00227

 Mulliken charges:
               1
     1  N   -0.756018
     2  H    0.403537
     3  H    0.412145
     4  H    0.445367
     5  C   -0.107530
     6  H    0.211919
     7  C    0.656321
     8  C   -0.125904
     9  H    0.163768
    10  O   -0.521960
    11  C   -0.468054
    12  H    0.151371
    13  H    0.188761
    14  H    0.159239
    15  C   -0.488768
    16  H    0.175134
    17  H    0.176250
    18  H    0.175908
    19  N   -0.586120
    20  H    0.358097
    21  C   -0.081761
    22  H    0.199159
    23  C    0.629172
    24  C   -0.024754
    25  H    0.144332
    26  H    0.150988
    27  O   -0.546365
    28  O   -0.613755
    29  H    0.407230
    30  N   -0.627967
    31  H    0.367111
    32  C   -0.028504
    33  H    0.185727
    34  C    0.623865
    35  C   -0.488257
    36  H    0.156478
    37  H    0.179308
    38  H    0.201161
    39  O   -0.537503
    40  N   -0.603783
    41  H    0.342827
    42  C   -0.062906
    43  H    0.176322
    44  C    0.624507
    45  C   -0.267156
    46  H    0.141705
    47  H    0.151355
    48  O   -0.547746
    49  C   -0.083558
    50  H    0.153796
    51  C   -0.454018
    52  H    0.143369
    53  H    0.144469
    54  H    0.138507
    55  C   -0.445618
    56  H    0.141497
    57  H    0.145808
    58  H    0.150736
    59  N   -0.615996
    60  H    0.370234
    61  C   -0.036027
    62  H    0.180057
    63  C    0.609427
    64  C   -0.366242
    65  H    0.184794
    66  H    0.157138
    67  O   -0.570160
    68  C    0.138187
    69  C   -0.215357
    70  H    0.165740
    71  C   -0.183273
    72  H    0.151108
    73  C   -0.167796
    74  H    0.159596
    75  C   -0.189906
    76  H    0.171690
    77  O   -0.743070
    78  H    0.460956
    79  C    0.255144
    80  N   -0.600517
    81  H    0.348930
    82  C   -0.045130
    83  H    0.157174
    84  C    0.617682
    85  C   -0.266975
    86  H    0.145850
    87  H    0.157599
    88  O   -0.654225
    89  C   -0.261821
    90  H    0.164821
    91  H    0.166522
    92  C   -0.292363
    93  H    0.162990
    94  H    0.163188
    95  C   -0.206187
    96  H    0.227933
    97  H    0.228652
    98  N   -0.731079
    99  H    0.426729
   100  H    0.425352
   101  H    0.425307
   102  O   -0.585915
 Sum of Mulliken charges =   1.00000

 Dipole moment (field-independent basis, Debye):
    X=             21.8519    Y=             13.1784    Z=             -0.7090  Tot=             25.5280
 Quadrupole moment (field-independent basis, Debye-Ang):
   XX=             66.9478   YY=           -227.7898   ZZ=           -245.7804
   XY=             46.7666   XZ=           -116.5310   YZ=             -8.1579

 Normal termination of Gaussian 16 at Thu Jul 14 14:15:15 2022.
