 Gaussian 16, Revision C.01,
 Gaussian 16:  ES64L-G16RevC.01  3-Jul-2019

 ----------------------------------------------------------------------
 # B3LYP/6-31G* empiricaldispersion=gd3bj guess=read geom=check nosymm
 integral(ultrafinegrid)
 ----------------------------------------------------------------------

 ------------------------------------------------------
 Candidate Structure: Conf:252 Charge calc in gas phase
 ------------------------------------------------------
 Structure from the checkpoint file:  "conf-252.chk"
 Charge =  1 Multiplicity = 1

                          Input orientation:
 ---------------------------------------------------------------------
 Center     Atomic      Atomic             Coordinates (Angstroms)
 Number     Number       Type             X           Y           Z
 ---------------------------------------------------------------------
      1          7           0       -6.329167   -0.386068    4.394945
      2          1           0       -6.257460   -0.813982    5.322425
      3          1           0       -7.255496   -0.589038    4.010767
      4          1           0       -6.163549    0.656640    4.491184
      5          6           0       -5.205485   -0.790240    3.459691
      6          1           0       -4.803348   -1.749991    3.794924
      7          6           0       -4.204295    0.371046    3.652951
      8          6           0       -5.747967   -0.900045    2.014264
      9          1           0       -6.227516    0.061491    1.782198
     10          8           0       -4.649126    1.442245    4.085280
     11          6           0       -4.606221   -1.107936    1.009021
     12          1           0       -4.005011   -1.990194    1.264151
     13          1           0       -5.027302   -1.282811    0.015269
     14          1           0       -3.961586   -0.229651    0.952197
     15          6           0       -6.780464   -2.032751    1.903395
     16          1           0       -6.322785   -3.003244    2.127079
     17          1           0       -7.652966   -1.914674    2.561025
     18          1           0       -7.171151   -2.074989    0.883247
     19          7           0       -2.935430    0.140323    3.332141
     20          1           0       -2.606501   -0.784077    3.075409
     21          6           0       -1.950722    1.201094    3.242840
     22          1           0       -1.763631    1.618303    4.238204
     23          6           0       -2.422014    2.284931    2.253130
     24          6           0       -0.659224    0.603829    2.637645
     25          1           0        0.188736    1.255847    2.878421
     26          1           0       -0.761064    0.569206    1.547203
     27          8           0       -3.260762    2.039474    1.391605
     28          8           0       -0.496385   -0.705015    3.164477
     29          1           0        0.220947   -1.137796    2.674023
     30          7           0       -1.731891    3.450767    2.330509
     31          1           0       -0.971145    3.501915    2.999300
     32          6           0       -1.541589    4.284666    1.124323
     33          1           0       -2.516145    4.367214    0.639414
     34          6           0       -0.555882    3.464966    0.268831
     35          6           0       -0.992837    5.651855    1.496615
     36          1           0       -0.907075    6.274160    0.601389
     37          1           0        0.007635    5.554195    1.928383
     38          1           0       -1.655657    6.151528    2.208438
     39          8           0        0.650831    3.471849    0.522836
     40          7           0       -1.124864    2.634659   -0.634817
     41          1           0       -2.135864    2.613527   -0.680188
     42          6           0       -0.412575    1.453531   -1.139348
     43          1           0        0.319542    1.192767   -0.367368
     44          6           0        0.422057    1.747178   -2.401030
     45          6           0       -1.394822    0.302068   -1.347333
     46          1           0       -2.036410    0.244217   -0.455792
     47          1           0       -2.041541    0.541810   -2.199565
     48          8           0        0.210423    1.189354   -3.470319
     49          6           0       -0.746687   -1.074142   -1.590320
     50          1           0       -0.200452   -1.011688   -2.536218
     51          6           0        0.253090   -1.469141   -0.494074
     52          1           0       -0.223670   -1.442151    0.499042
     53          1           0        0.605553   -2.494221   -0.653488
     54          1           0        1.136314   -0.822797   -0.492262
     55          6           0       -1.846396   -2.132698   -1.732520
     56          1           0       -2.406051   -2.246625   -0.792953
     57          1           0       -1.422200   -3.110547   -1.984827
     58          1           0       -2.561316   -1.863786   -2.518465
     59          7           0        1.454482    2.612542   -2.190911
     60          1           0        1.606431    2.872768   -1.219032
     61          6           0        2.651722    2.441521   -2.995957
     62          1           0        2.397541    2.583111   -4.049914
     63          6           0        3.190615    1.009741   -2.781792
     64          6           0        3.714668    3.481637   -2.568219
     65          1           0        3.851919    3.400147   -1.482989
     66          1           0        3.309331    4.479146   -2.772805
     67          8           0        3.038706    0.427814   -1.705237
     68          6           0        5.033120    3.264266   -3.268190
     69          6           0        6.059597    2.539281   -2.648277
     70          1           0        5.931512    2.211345   -1.619693
     71          6           0        5.214857    3.657620   -4.597558
     72          1           0        4.436530    4.225517   -5.102570
     73          6           0        7.220697    2.195177   -3.331183
     74          1           0        8.003183    1.611499   -2.858791
     75          6           0        6.371788    3.319972   -5.297222
     76          1           0        6.490809    3.623580   -6.334959
     77          8           0        8.514896    2.187095   -5.305612
     78          1           0        8.449828    2.431804   -6.241599
     79          6           0        7.372364    2.572959   -4.668960
     80          7           0        3.865997    0.485722   -3.823560
     81          1           0        4.034082    1.041020   -4.655101
     82          6           0        4.703470   -0.690859   -3.687765
     83          1           0        5.079685   -0.739208   -2.663771
     84          6           0        5.873418   -0.571423   -4.646854
     85          6           0        3.912415   -1.996741   -4.002083
     86          1           0        3.292043   -2.198313   -3.123060
     87          1           0        3.226257   -1.773158   -4.827157
     88          8           0        6.940386   -1.224069   -4.203816
     89          6           0        4.776398   -3.224031   -4.362945
     90          1           0        4.234519   -4.131883   -4.074482
     91          1           0        5.692934   -3.211021   -3.765806
     92          6           0        5.120334   -3.313928   -5.875435
     93          1           0        4.400923   -3.987670   -6.354768
     94          1           0        4.970665   -2.340134   -6.355308
     95          6           0        6.537696   -3.805176   -6.223714
     96          1           0        6.510148   -4.362148   -7.170748
     97          1           0        6.901452   -4.497089   -5.455981
     98          7           0        7.509674   -2.685587   -6.309437
     99          1           0        8.441262   -3.041793   -6.517549
    100          1           0        7.250097   -2.067096   -7.078119
    101          1           0        7.402895   -1.652786   -5.014932
    102          8           0        5.774138   -0.040356   -5.743002
 ---------------------------------------------------------------------

 SCF Done:  E(RB3LYP) =  -2312.29710445     A.U. after    2 cycles

 Alpha  occ. eigenvalues --  -19.27114 -19.26928 -19.23165 -19.21615 -19.20383
 Alpha  occ. eigenvalues --  -19.20258 -19.17169 -19.17154 -19.15847 -14.60462
 Alpha  occ. eigenvalues --  -14.50168 -14.47094 -14.44583 -14.39931 -14.39845
 Alpha  occ. eigenvalues --  -14.39715 -10.43870 -10.40930 -10.40249 -10.37198
 Alpha  occ. eigenvalues --  -10.35882 -10.35522 -10.34968 -10.34536 -10.33802
 Alpha  occ. eigenvalues --  -10.32819 -10.32694 -10.31374 -10.29982 -10.29384
 Alpha  occ. eigenvalues --  -10.28831 -10.27967 -10.27154 -10.26996 -10.26385
 Alpha  occ. eigenvalues --  -10.25577 -10.25059 -10.24417 -10.23964 -10.23953
 Alpha  occ. eigenvalues --  -10.23376 -10.23266 -10.23221 -10.23173 -10.23074
 Alpha  occ. eigenvalues --  -10.23055 -10.22805 -10.22379  -1.19832  -1.15406
 Alpha  occ. eigenvalues --   -1.14303  -1.14115  -1.12545  -1.12199  -1.09746
 Alpha  occ. eigenvalues --   -1.09115  -1.07379  -1.06844  -1.03991  -1.03478
 Alpha  occ. eigenvalues --   -1.00889  -0.97225  -0.96757  -0.95588  -0.95275
 Alpha  occ. eigenvalues --   -0.90271  -0.89668  -0.88060  -0.86564  -0.85009
 Alpha  occ. eigenvalues --   -0.84728  -0.83463  -0.81492  -0.81424  -0.79667
 Alpha  occ. eigenvalues --   -0.78904  -0.76920  -0.76624  -0.75543  -0.75006
 Alpha  occ. eigenvalues --   -0.74833  -0.74239  -0.74122  -0.73385  -0.71601
 Alpha  occ. eigenvalues --   -0.70234  -0.69841  -0.69086  -0.67348  -0.67210
 Alpha  occ. eigenvalues --   -0.66398  -0.65744  -0.65091  -0.64832  -0.63888
 Alpha  occ. eigenvalues --   -0.63758  -0.62778  -0.62627  -0.62387  -0.61804
 Alpha  occ. eigenvalues --   -0.61123  -0.60792  -0.59122  -0.58799  -0.58413
 Alpha  occ. eigenvalues --   -0.58175  -0.57384  -0.56931  -0.56603  -0.55981
 Alpha  occ. eigenvalues --   -0.55708  -0.55465  -0.54796  -0.54153  -0.54048
 Alpha  occ. eigenvalues --   -0.53830  -0.52663  -0.52475  -0.52293  -0.52203
 Alpha  occ. eigenvalues --   -0.51463  -0.51322  -0.51149  -0.50874  -0.50392
 Alpha  occ. eigenvalues --   -0.50148  -0.50048  -0.49896  -0.49507  -0.49142
 Alpha  occ. eigenvalues --   -0.48305  -0.48269  -0.47982  -0.47769  -0.47725
 Alpha  occ. eigenvalues --   -0.47378  -0.47155  -0.46979  -0.46720  -0.46422
 Alpha  occ. eigenvalues --   -0.46292  -0.46115  -0.45830  -0.45720  -0.45673
 Alpha  occ. eigenvalues --   -0.45152  -0.45035  -0.44945  -0.44389  -0.43770
 Alpha  occ. eigenvalues --   -0.43619  -0.42734  -0.42520  -0.42069  -0.41604
 Alpha  occ. eigenvalues --   -0.41324  -0.40880  -0.40399  -0.40188  -0.39948
 Alpha  occ. eigenvalues --   -0.39747  -0.39503  -0.39308  -0.39062  -0.38686
 Alpha  occ. eigenvalues --   -0.38090  -0.37899  -0.37872  -0.37700  -0.37400
 Alpha  occ. eigenvalues --   -0.36738  -0.36586  -0.34913  -0.33763  -0.33563
 Alpha  occ. eigenvalues --   -0.31981  -0.31683  -0.30881  -0.30025  -0.29406
 Alpha  occ. eigenvalues --   -0.29149  -0.29063  -0.25599
 Alpha virt. eigenvalues --   -0.12986  -0.11318  -0.09970  -0.06899  -0.06484
 Alpha virt. eigenvalues --   -0.05414  -0.04911  -0.04358  -0.03596  -0.03189
 Alpha virt. eigenvalues --   -0.02959  -0.02872  -0.01981  -0.01450  -0.01098

 Mulliken charges:
               1
     1  N   -0.755706
     2  H    0.416586
     3  H    0.411602
     4  H    0.433382
     5  C   -0.116014
     6  H    0.202563
     7  C    0.680722
     8  C   -0.104642
     9  H    0.175834
    10  O   -0.540800
    11  C   -0.502072
    12  H    0.149963
    13  H    0.186745
    14  H    0.224014
    15  C   -0.470604
    16  H    0.175936
    17  H    0.134699
    18  H    0.202499
    19  N   -0.600212
    20  H    0.371369
    21  C   -0.054807
    22  H    0.195170
    23  C    0.631968
    24  C   -0.085126
    25  H    0.177913
    26  H    0.185537
    27  O   -0.529282
    28  O   -0.630589
    29  H    0.433803
    30  N   -0.578164
    31  H    0.345644
    32  C   -0.059808
    33  H    0.182997
    34  C    0.612097
    35  C   -0.469127
    36  H    0.182312
    37  H    0.180801
    38  H    0.170161
    39  O   -0.544713
    40  N   -0.591155
    41  H    0.353686
    42  C   -0.079316
    43  H    0.179710
    44  C    0.647043
    45  C   -0.306287
    46  H    0.125441
    47  H    0.161618
    48  O   -0.520826
    49  C   -0.076541
    50  H    0.186330
    51  C   -0.487477
    52  H    0.083277
    53  H    0.153987
    54  H    0.202785
    55  C   -0.452402
    56  H    0.116056
    57  H    0.152979
    58  H    0.150732
    59  N   -0.608880
    60  H    0.368310
    61  C   -0.047236
    62  H    0.171500
    63  C    0.628446
    64  C   -0.376155
    65  H    0.157725
    66  H    0.164471
    67  O   -0.569474
    68  C    0.150301
    69  C   -0.184468
    70  H    0.136180
    71  C   -0.205899
    72  H    0.129907
    73  C   -0.167679
    74  H    0.150537
    75  C   -0.178664
    76  H    0.126420
    77  O   -0.641367
    78  H    0.410248
    79  C    0.370169
    80  N   -0.593835
    81  H    0.355083
    82  C   -0.000943
    83  H    0.179034
    84  C    0.592272
    85  C   -0.278542
    86  H    0.157995
    87  H    0.154791
    88  O   -0.605909
    89  C   -0.285660
    90  H    0.137111
    91  H    0.167718
    92  C   -0.291083
    93  H    0.146106
    94  H    0.166931
    95  C   -0.139996
    96  H    0.143391
    97  H    0.159953
    98  N   -0.775326
    99  H    0.329488
   100  H    0.338481
   101  H    0.454921
   102  O   -0.518660
 Sum of Mulliken charges =   1.00000

 Dipole moment (field-independent basis, Debye):
    X=            -17.0735    Y=             -3.6935    Z=             10.5982  Tot=             20.4321
 Quadrupole moment (field-independent basis, Debye-Ang):
   XX=           -109.0578   YY=           -243.7536   ZZ=           -169.1686
   XY=              0.8238   XZ=           -136.2311   YZ=              5.8543

 Normal termination of Gaussian 16 at Thu Jul 14 14:15:03 2022.
