 Gaussian 16, Revision C.01,
 Gaussian 16:  ES64L-G16RevC.01  3-Jul-2019

 ----------------------------------------------------------------------
 # B3LYP/6-31G* empiricaldispersion=gd3bj guess=read geom=check nosymm
 integral(ultrafinegrid)
 ----------------------------------------------------------------------

 ------------------------------------------------------
 Candidate Structure: Conf:608 Charge calc in gas phase
 ------------------------------------------------------
 Structure from the checkpoint file:  "conf-608.chk"
 Charge =  1 Multiplicity = 1

                          Input orientation:
 ---------------------------------------------------------------------
 Center     Atomic      Atomic             Coordinates (Angstroms)
 Number     Number       Type             X           Y           Z
 ---------------------------------------------------------------------
      1          7           0       -9.613495    2.011839    5.326477
      2          1           0      -10.031199    1.078878    5.260249
      3          1           0      -10.347876    2.681630    5.570357
      4          1           0       -8.852130    1.983366    6.057776
      5          6           0       -8.847309    2.409494    4.078054
      6          1           0       -9.255473    1.850746    3.232091
      7          6           0       -7.407471    1.962877    4.426571
      8          6           0       -8.987827    3.931985    3.840165
      9          1           0       -8.621280    4.434467    4.746735
     10          8           0       -7.133043    1.862665    5.639790
     11          6           0       -8.122231    4.383687    2.654290
     12          1           0       -8.387409    3.843326    1.737525
     13          1           0       -8.291829    5.447614    2.468918
     14          1           0       -7.055566    4.244449    2.839662
     15          6           0      -10.455696    4.320333    3.599284
     16          1           0      -10.854621    3.817786    2.710799
     17          1           0      -11.125489    4.099110    4.441686
     18          1           0      -10.527328    5.398490    3.433358
     19          7           0       -6.598791    1.735614    3.410437
     20          1           0       -6.912192    1.795904    2.431995
     21          6           0       -5.169265    1.421531    3.456280
     22          1           0       -4.623586    2.255291    3.914398
     23          6           0       -4.787661    1.323492    1.957894
     24          6           0       -4.838738    0.151535    4.278498
     25          1           0       -3.879027   -0.249211    3.941609
     26          1           0       -5.605308   -0.609947    4.059105
     27          8           0       -5.663092    1.468362    1.093908
     28          8           0       -4.694703    0.414089    5.649392
     29          1           0       -5.519024    0.827021    5.963026
     30          7           0       -3.500670    1.093327    1.703077
     31          1           0       -2.803437    0.949411    2.433750
     32          6           0       -2.953793    0.925206    0.363952
     33          1           0       -3.602143    0.244652   -0.198658
     34          6           0       -1.571615    0.279394    0.578741
     35          6           0       -2.837062    2.261192   -0.385579
     36          1           0       -2.410278    2.113295   -1.382303
     37          1           0       -2.189343    2.948860    0.167186
     38          1           0       -3.827759    2.709132   -0.493752
     39          8           0       -1.079598    0.231870    1.709331
     40          7           0       -0.987501   -0.187337   -0.536475
     41          1           0       -1.372807    0.049237   -1.449056
     42          6           0        0.415217   -0.568233   -0.621215
     43          1           0        0.943258   -0.123386    0.227187
     44          6           0        0.922163    0.040677   -1.941579
     45          6           0        0.608586   -2.097518   -0.628221
     46          1           0        0.060869   -2.496527   -1.492024
     47          1           0        1.670863   -2.311642   -0.806556
     48          8           0        0.125582    0.439417   -2.796689
     49          6           0        0.158350   -2.819211    0.652112
     50          1           0       -0.885574   -2.539001    0.848946
     51          6           0        0.211096   -4.336332    0.430567
     52          1           0        1.237496   -4.665766    0.225092
     53          1           0       -0.137382   -4.874393    1.319009
     54          1           0       -0.413657   -4.641460   -0.417036
     55          6           0        0.999040   -2.413245    1.868775
     56          1           0        2.064095   -2.611544    1.690173
     57          1           0        0.700155   -2.990095    2.751163
     58          1           0        0.871835   -1.355188    2.112383
     59          7           0        2.256293    0.058533   -2.097490
     60          1           0        2.892862   -0.232322   -1.361621
     61          6           0        2.911493    0.556161   -3.293328
     62          1           0        2.353830    0.213522   -4.169487
     63          6           0        4.328153   -0.024451   -3.282247
     64          6           0        2.965791    2.114117   -3.305947
     65          1           0        3.343180    2.437941   -2.330289
     66          1           0        1.934858    2.468829   -3.404693
     67          8           0        4.908284   -0.223610   -2.210347
     68          6           0        3.855830    2.621928   -4.409669
     69          6           0        5.181629    2.984418   -4.140602
     70          1           0        5.522182    3.025069   -3.108873
     71          6           0        3.444404    2.569350   -5.746627
     72          1           0        2.416945    2.301130   -5.983076
     73          6           0        6.083940    3.245636   -5.166703
     74          1           0        7.116371    3.508222   -4.960041
     75          6           0        4.337013    2.822327   -6.784912
     76          1           0        4.009278    2.749570   -7.818862
     77          8           0        6.604823    3.344103   -7.466240
     78          1           0        6.270262    2.996417   -8.307639
     79          6           0        5.669964    3.134221   -6.497541
     80          7           0        4.880576   -0.256406   -4.486807
     81          1           0        4.417910    0.039195   -5.341968
     82          6           0        6.304811   -0.489280   -4.628886
     83          1           0        6.834833    0.254632   -4.021100
     84          6           0        6.661741   -0.219137   -6.096018
     85          6           0        6.743920   -1.913054   -4.170523
     86          1           0        5.832329   -2.483704   -3.980310
     87          1           0        7.244913   -2.420295   -5.001828
     88          8           0        7.958904   -0.192891   -6.369178
     89          6           0        7.651227   -1.914612   -2.919718
     90          1           0        7.130960   -2.392485   -2.084060
     91          1           0        7.811056   -0.881671   -2.592745
     92          6           0        9.011426   -2.607648   -3.103303
     93          1           0        9.599611   -2.459279   -2.187265
     94          1           0        8.873375   -3.691797   -3.202222
     95          6           0        9.837561   -2.140027   -4.307813
     96          1           0        9.435385   -2.558671   -5.237054
     97          1           0       10.861698   -2.523425   -4.205107
     98          7           0        9.813665   -0.666761   -4.461956
     99          1           0       10.603258   -0.365038   -5.032329
    100          1           0        8.541262   -0.289687   -5.543821
    101          1           0        9.925260   -0.210982   -3.557123
    102          8           0        5.811141   -0.053429   -6.948978
 ---------------------------------------------------------------------

 SCF Done:  E(RB3LYP) =  -2312.30500000     A.U. after    1 cycles

 Alpha  occ. eigenvalues --  -19.28203 -19.22667 -19.22418 -19.21117 -19.20750
 Alpha  occ. eigenvalues --  -19.19778 -19.18033 -19.16850 -19.16655 -14.61214
 Alpha  occ. eigenvalues --  -14.50347 -14.45678 -14.43001 -14.41959 -14.40373
 Alpha  occ. eigenvalues --  -14.40234 -10.44775 -10.41657 -10.39639 -10.36649
 Alpha  occ. eigenvalues --  -10.35474 -10.35027 -10.34999 -10.34969 -10.33665
 Alpha  occ. eigenvalues --  -10.33496 -10.32102 -10.32032 -10.30700 -10.29682
 Alpha  occ. eigenvalues --  -10.28746 -10.28641 -10.27887 -10.27067 -10.26020
 Alpha  occ. eigenvalues --  -10.24484 -10.24044 -10.24012 -10.23741 -10.23454
 Alpha  occ. eigenvalues --  -10.23198 -10.23134 -10.23051 -10.22915 -10.22837
 Alpha  occ. eigenvalues --  -10.22467 -10.22125 -10.21597  -1.20449  -1.15277
 Alpha  occ. eigenvalues --   -1.14540  -1.12448  -1.11686  -1.10518  -1.09963
 Alpha  occ. eigenvalues --   -1.09310  -1.08563  -1.07004  -1.04402  -1.02468
 Alpha  occ. eigenvalues --   -0.99979  -0.98595  -0.97340  -0.96343  -0.95862
 Alpha  occ. eigenvalues --   -0.89702  -0.89610  -0.87449  -0.86251  -0.85000
 Alpha  occ. eigenvalues --   -0.84160  -0.83588  -0.82410  -0.80545  -0.80017
 Alpha  occ. eigenvalues --   -0.78822  -0.77146  -0.76934  -0.76005  -0.75101
 Alpha  occ. eigenvalues --   -0.74863  -0.74032  -0.72869  -0.71959  -0.71260
 Alpha  occ. eigenvalues --   -0.71008  -0.70319  -0.68782  -0.67589  -0.67414
 Alpha  occ. eigenvalues --   -0.66150  -0.65789  -0.65046  -0.64772  -0.64320
 Alpha  occ. eigenvalues --   -0.63330  -0.62678  -0.62300  -0.62100  -0.61763
 Alpha  occ. eigenvalues --   -0.61089  -0.60582  -0.60057  -0.59212  -0.58158
 Alpha  occ. eigenvalues --   -0.57718  -0.57013  -0.56759  -0.56666  -0.55815
 Alpha  occ. eigenvalues --   -0.54770  -0.54564  -0.54363  -0.54042  -0.53392
 Alpha  occ. eigenvalues --   -0.53143  -0.52763  -0.52405  -0.52333  -0.51865
 Alpha  occ. eigenvalues --   -0.51736  -0.51521  -0.51258  -0.50816  -0.50718
 Alpha  occ. eigenvalues --   -0.50440  -0.50144  -0.49416  -0.49130  -0.48900
 Alpha  occ. eigenvalues --   -0.48729  -0.48546  -0.48387  -0.48205  -0.48022
 Alpha  occ. eigenvalues --   -0.47813  -0.47496  -0.46995  -0.46766  -0.46264
 Alpha  occ. eigenvalues --   -0.46159  -0.45770  -0.45438  -0.44950  -0.44593
 Alpha  occ. eigenvalues --   -0.44344  -0.44220  -0.44005  -0.43792  -0.43495
 Alpha  occ. eigenvalues --   -0.43190  -0.42934  -0.42506  -0.42247  -0.41885
 Alpha  occ. eigenvalues --   -0.41375  -0.40799  -0.40545  -0.39939  -0.39582
 Alpha  occ. eigenvalues --   -0.39492  -0.38511  -0.38118  -0.37725  -0.37647
 Alpha  occ. eigenvalues --   -0.37564  -0.37521  -0.37468  -0.37419  -0.36434
 Alpha  occ. eigenvalues --   -0.35846  -0.35109  -0.34054  -0.33844  -0.33136
 Alpha  occ. eigenvalues --   -0.32707  -0.32331  -0.31413  -0.30794  -0.30322
 Alpha  occ. eigenvalues --   -0.30025  -0.29240  -0.25426
 Alpha virt. eigenvalues --   -0.13841  -0.11976  -0.08291  -0.07456  -0.05418
 Alpha virt. eigenvalues --   -0.05203  -0.04882  -0.04326  -0.02944  -0.02738
 Alpha virt. eigenvalues --   -0.02535  -0.01986  -0.01549  -0.00566   0.00157

 Mulliken charges:
               1
     1  N   -0.755220
     2  H    0.419471
     3  H    0.412413
     4  H    0.434824
     5  C   -0.106764
     6  H    0.210281
     7  C    0.660764
     8  C   -0.110767
     9  H    0.173039
    10  O   -0.572836
    11  C   -0.471893
    12  H    0.172708
    13  H    0.191331
    14  H    0.182192
    15  C   -0.475119
    16  H    0.180218
    17  H    0.139857
    18  H    0.205517
    19  N   -0.617804
    20  H    0.383720
    21  C   -0.076761
    22  H    0.207505
    23  C    0.625810
    24  C   -0.031297
    25  H    0.180504
    26  H    0.135570
    27  O   -0.553841
    28  O   -0.620321
    29  H    0.423876
    30  N   -0.623176
    31  H    0.373803
    32  C   -0.047115
    33  H    0.187461
    34  C    0.619227
    35  C   -0.459203
    36  H    0.178694
    37  H    0.166296
    38  H    0.182387
    39  O   -0.540990
    40  N   -0.600550
    41  H    0.360196
    42  C   -0.083956
    43  H    0.183392
    44  C    0.630845
    45  C   -0.250699
    46  H    0.144361
    47  H    0.144016
    48  O   -0.553734
    49  C   -0.066502
    50  H    0.127922
    51  C   -0.444553
    52  H    0.145264
    53  H    0.146477
    54  H    0.141589
    55  C   -0.463191
    56  H    0.135706
    57  H    0.144977
    58  H    0.173153
    59  N   -0.618214
    60  H    0.354657
    61  C   -0.027448
    62  H    0.175084
    63  C    0.609285
    64  C   -0.352069
    65  H    0.152407
    66  H    0.174158
    67  O   -0.558593
    68  C    0.148323
    69  C   -0.186847
    70  H    0.133253
    71  C   -0.216766
    72  H    0.134581
    73  C   -0.170146
    74  H    0.140843
    75  C   -0.163857
    76  H    0.132381
    77  O   -0.642083
    78  H    0.417282
    79  C    0.366417
    80  N   -0.615301
    81  H    0.367653
    82  C   -0.043581
    83  H    0.172312
    84  C    0.600000
    85  C   -0.286275
    86  H    0.168594
    87  H    0.156544
    88  O   -0.619139
    89  C   -0.252386
    90  H    0.157836
    91  H    0.142483
    92  C   -0.293940
    93  H    0.142160
    94  H    0.153046
    95  C   -0.136712
    96  H    0.164257
    97  H    0.150558
    98  N   -0.782664
    99  H    0.337951
   100  H    0.478092
   101  H    0.327577
   102  O   -0.490786
 Sum of Mulliken charges =   1.00000

 Dipole moment (field-independent basis, Debye):
    X=            -29.6565    Y=              8.0694    Z=             14.5268  Tot=             33.9949
 Quadrupole moment (field-independent basis, Debye-Ang):
   XX=            179.4998   YY=           -247.2371   ZZ=           -215.8164
   XY=           -110.2339   XZ=           -196.5533   YZ=             47.6027

 Normal termination of Gaussian 16 at Thu Jul 14 14:14:23 2022.
