 Gaussian 16, Revision C.01,
 Gaussian 16:  ES64L-G16RevC.01  3-Jul-2019

 ----------------------------------------------------------------------
 # B3LYP/6-31G* empiricaldispersion=gd3bj guess=read geom=check nosymm
 integral(ultrafinegrid)
 ----------------------------------------------------------------------

 ------------------------------------------------------
 Candidate Structure: Conf:234 Charge calc in gas phase
 ------------------------------------------------------
 Structure from the checkpoint file:  "conf-234.chk"
 Charge =  1 Multiplicity = 1

                          Input orientation:
 ---------------------------------------------------------------------
 Center     Atomic      Atomic             Coordinates (Angstroms)
 Number     Number       Type             X           Y           Z
 ---------------------------------------------------------------------
      1          7           0       -7.526093   -1.460864    4.006905
      2          1           0       -8.147839   -1.228393    4.786321
      3          1           0       -7.767085   -2.392553    3.660086
      4          1           0       -7.633730   -0.719142    3.254734
      5          6           0       -6.055391   -1.325045    4.351396
      6          1           0       -5.939441   -1.434280    5.432972
      7          6           0       -5.751471    0.107445    3.858330
      8          6           0       -5.245468   -2.409276    3.599431
      9          1           0       -5.483746   -2.297284    2.532287
     10          8           0       -6.502633    0.581040    2.994964
     11          6           0       -3.734382   -2.190524    3.763716
     12          1           0       -3.448412   -2.168027    4.823615
     13          1           0       -3.200193   -3.025349    3.301923
     14          1           0       -3.409450   -1.272270    3.271802
     15          6           0       -5.643318   -3.815742    4.073950
     16          1           0       -5.412450   -3.950742    5.136956
     17          1           0       -6.705280   -4.059129    3.928906
     18          1           0       -5.079845   -4.565443    3.512132
     19          7           0       -4.695473    0.719629    4.381213
     20          1           0       -4.184529    0.320573    5.160223
     21          6           0       -4.120910    1.925134    3.805229
     22          1           0       -4.794468    2.772104    3.976168
     23          6           0       -3.855327    1.709730    2.304108
     24          6           0       -2.763309    2.163373    4.491262
     25          1           0       -2.417771    3.177438    4.265535
     26          1           0       -2.023595    1.465037    4.081751
     27          8           0       -3.662432    0.587784    1.849271
     28          8           0       -2.969628    1.952687    5.885146
     29          1           0       -2.113034    2.034236    6.331786
     30          7           0       -3.766525    2.843838    1.563972
     31          1           0       -3.746331    3.719707    2.072707
     32          6           0       -2.944633    2.806880    0.356118
     33          1           0       -3.375426    2.060776   -0.316442
     34          6           0       -1.520956    2.368910    0.770743
     35          6           0       -2.920545    4.181730   -0.310980
     36          1           0       -2.327217    4.146146   -1.228799
     37          1           0       -2.463370    4.922808    0.354695
     38          1           0       -3.933770    4.506789   -0.565222
     39          8           0       -1.084371    2.651553    1.888604
     40          7           0       -0.841287    1.680990   -0.160382
     41          1           0       -1.196201    1.570767   -1.106032
     42          6           0        0.523444    1.214104    0.009900
     43          1           0        1.011654    1.851907    0.751476
     44          6           0        1.195851    1.357501   -1.363888
     45          6           0        0.572363   -0.266795    0.450069
     46          1           0        0.119672   -0.859784   -0.355411
     47          1           0        1.625617   -0.572910    0.510201
     48          8           0        0.515244    1.386553   -2.392410
     49          6           0       -0.131939   -0.589730    1.778690
     50          1           0       -1.157895   -0.205173    1.719910
     51          6           0       -0.210190   -2.111421    1.960403
     52          1           0        0.791646   -2.557433    1.997698
     53          1           0       -0.718355   -2.367416    2.898098
     54          1           0       -0.757173   -2.585789    1.137121
     55          6           0        0.564241    0.065511    2.977717
     56          1           0        1.607327   -0.267055    3.056876
     57          1           0        0.061657   -0.214765    3.912847
     58          1           0        0.544265    1.155566    2.903360
     59          7           0        2.539520    1.388176   -1.349771
     60          1           0        3.075283    1.407933   -0.486788
     61          6           0        3.348570    1.472387   -2.550809
     62          1           0        2.937601    0.794866   -3.305461
     63          6           0        4.763455    1.052232   -2.142551
     64          6           0        3.355728    2.920731   -3.125226
     65          1           0        3.648129    3.594909   -2.313115
     66          1           0        2.322175    3.153323   -3.400441
     67          8           0        5.156930    1.234782   -0.987827
     68          6           0        4.291980    3.069105   -4.296519
     69          6           0        5.577605    3.600813   -4.123326
     70          1           0        5.865496    3.987627   -3.148858
     71          6           0        3.952770    2.565269   -5.556648
     72          1           0        2.959300    2.154062   -5.721900
     73          6           0        6.503151    3.618130   -5.160230
     74          1           0        7.504568    4.009280   -5.017894
     75          6           0        4.870806    2.570610   -6.605792
     76          1           0        4.593273    2.165193   -7.576413
     77          8           0        7.104892    3.101555   -7.383543
     78          1           0        6.762361    2.635349   -8.161672
     79          6           0        6.154627    3.086028   -6.405733
     80          7           0        5.523344    0.529217   -3.123950
     81          1           0        5.171327    0.495961   -4.074924
     82          6           0        6.967766    0.414034   -3.003233
     83          1           0        7.336418    1.216231   -2.360192
     84          6           0        7.576734    0.556016   -4.386554
     85          6           0        7.388892   -0.958294   -2.398395
     86          1           0        7.187395   -0.897207   -1.324659
     87          1           0        6.711897   -1.718082   -2.806359
     88          8           0        8.802536    1.057335   -4.334602
     89          6           0        8.852492   -1.372883   -2.662215
     90          1           0        9.188863   -2.011532   -1.838057
     91          1           0        9.490271   -0.484339   -2.641065
     92          6           0        9.047332   -2.144344   -3.996797
     93          1           0        9.043067   -3.218531   -3.779416
     94          1           0        8.189714   -1.978304   -4.658714
     95          6           0       10.329620   -1.823548   -4.787229
     96          1           0       10.671086   -2.724598   -5.315445
     97          1           0       11.134488   -1.527609   -4.105524
     98          7           0       10.127225   -0.707414   -5.746380
     99          1           0       10.998075   -0.495175   -6.230839
    100          1           0        9.452459   -0.987067   -6.458546
    101          1           0        9.369492    0.580363   -5.049872
    102          8           0        7.024799    0.131545   -5.391034
 ---------------------------------------------------------------------

 SCF Done:  E(RB3LYP) =  -2312.30780329     A.U. after    1 cycles

 Alpha  occ. eigenvalues --  -19.26298 -19.25496 -19.21624 -19.21578 -19.20246
 Alpha  occ. eigenvalues --  -19.18729 -19.17728 -19.17201 -19.16721 -14.59746
 Alpha  occ. eigenvalues --  -14.49266 -14.45187 -14.42866 -14.41787 -14.40569
 Alpha  occ. eigenvalues --  -14.39749 -10.43013 -10.40209 -10.38582 -10.35839
 Alpha  occ. eigenvalues --  -10.35041 -10.34803 -10.34518 -10.33827 -10.33801
 Alpha  occ. eigenvalues --  -10.33656 -10.31556 -10.30831 -10.29662 -10.28841
 Alpha  occ. eigenvalues --  -10.28736 -10.28571 -10.27373 -10.26931 -10.26561
 Alpha  occ. eigenvalues --  -10.24928 -10.24770 -10.24000 -10.23585 -10.23361
 Alpha  occ. eigenvalues --  -10.23218 -10.23179 -10.23157 -10.23085 -10.23059
 Alpha  occ. eigenvalues --  -10.22908 -10.22675 -10.22361  -1.19026  -1.14137
 Alpha  occ. eigenvalues --   -1.13312  -1.12702  -1.12580  -1.10702  -1.09757
 Alpha  occ. eigenvalues --   -1.09647  -1.08463  -1.05885  -1.04055  -1.01844
 Alpha  occ. eigenvalues --   -0.99565  -0.98449  -0.97386  -0.95280  -0.94837
 Alpha  occ. eigenvalues --   -0.89666  -0.89118  -0.87460  -0.85718  -0.84963
 Alpha  occ. eigenvalues --   -0.84186  -0.83554  -0.80981  -0.80768  -0.79785
 Alpha  occ. eigenvalues --   -0.78892  -0.77061  -0.75470  -0.74807  -0.74212
 Alpha  occ. eigenvalues --   -0.74087  -0.73905  -0.73586  -0.72848  -0.71409
 Alpha  occ. eigenvalues --   -0.69935  -0.69495  -0.68012  -0.67353  -0.66339
 Alpha  occ. eigenvalues --   -0.66086  -0.64978  -0.64750  -0.64360  -0.63669
 Alpha  occ. eigenvalues --   -0.63547  -0.63084  -0.62712  -0.62335  -0.61482
 Alpha  occ. eigenvalues --   -0.60920  -0.60273  -0.58521  -0.58345  -0.57969
 Alpha  occ. eigenvalues --   -0.57490  -0.56662  -0.56067  -0.55758  -0.54846
 Alpha  occ. eigenvalues --   -0.54639  -0.54492  -0.54280  -0.53622  -0.53164
 Alpha  occ. eigenvalues --   -0.52764  -0.52692  -0.52172  -0.51556  -0.51343
 Alpha  occ. eigenvalues --   -0.51226  -0.50953  -0.50855  -0.50503  -0.50451
 Alpha  occ. eigenvalues --   -0.49885  -0.49618  -0.49238  -0.49163  -0.48998
 Alpha  occ. eigenvalues --   -0.48638  -0.48165  -0.47870  -0.47599  -0.47489
 Alpha  occ. eigenvalues --   -0.47052  -0.46665  -0.46361  -0.46345  -0.46165
 Alpha  occ. eigenvalues --   -0.46075  -0.46008  -0.45574  -0.45383  -0.45255
 Alpha  occ. eigenvalues --   -0.44892  -0.44527  -0.44426  -0.44096  -0.43976
 Alpha  occ. eigenvalues --   -0.43157  -0.42933  -0.42779  -0.41921  -0.41482
 Alpha  occ. eigenvalues --   -0.40890  -0.40766  -0.40493  -0.40118  -0.39738
 Alpha  occ. eigenvalues --   -0.39104  -0.38824  -0.38470  -0.38347  -0.38139
 Alpha  occ. eigenvalues --   -0.37853  -0.37829  -0.37655  -0.37424  -0.36808
 Alpha  occ. eigenvalues --   -0.36016  -0.34915  -0.33811  -0.33112  -0.32479
 Alpha  occ. eigenvalues --   -0.32115  -0.31956  -0.31320  -0.31081  -0.30262
 Alpha  occ. eigenvalues --   -0.29606  -0.29290  -0.25541
 Alpha virt. eigenvalues --   -0.12194  -0.10685  -0.08213  -0.06286  -0.04986
 Alpha virt. eigenvalues --   -0.04781  -0.04460  -0.04133  -0.03358  -0.02518
 Alpha virt. eigenvalues --   -0.02320  -0.01863  -0.01647  -0.01226  -0.00367

 Mulliken charges:
               1
     1  N   -0.755929
     2  H    0.414845
     3  H    0.409935
     4  H    0.432666
     5  C   -0.117281
     6  H    0.199668
     7  C    0.681841
     8  C   -0.102575
     9  H    0.177129
    10  O   -0.542427
    11  C   -0.498393
    12  H    0.143368
    13  H    0.184001
    14  H    0.226214
    15  C   -0.470729
    16  H    0.174119
    17  H    0.133156
    18  H    0.200813
    19  N   -0.596897
    20  H    0.366454
    21  C   -0.060357
    22  H    0.188811
    23  C    0.652399
    24  C   -0.078356
    25  H    0.175965
    26  H    0.190853
    27  O   -0.525001
    28  O   -0.634464
    29  H    0.421164
    30  N   -0.576594
    31  H    0.338298
    32  C   -0.058112
    33  H    0.183362
    34  C    0.639590
    35  C   -0.478195
    36  H    0.183607
    37  H    0.167985
    38  H    0.177451
    39  O   -0.559379
    40  N   -0.595889
    41  H    0.353823
    42  C   -0.076166
    43  H    0.179156
    44  C    0.631390
    45  C   -0.251107
    46  H    0.145101
    47  H    0.145486
    48  O   -0.552816
    49  C   -0.088885
    50  H    0.156630
    51  C   -0.447819
    52  H    0.149011
    53  H    0.129421
    54  H    0.141134
    55  C   -0.464249
    56  H    0.141348
    57  H    0.117918
    58  H    0.180170
    59  N   -0.619621
    60  H    0.354446
    61  C   -0.032399
    62  H    0.172158
    63  C    0.608143
    64  C   -0.353294
    65  H    0.154517
    66  H    0.177484
    67  O   -0.553226
    68  C    0.146454
    69  C   -0.189164
    70  H    0.137313
    71  C   -0.212272
    72  H    0.135290
    73  C   -0.166534
    74  H    0.152275
    75  C   -0.179760
    76  H    0.125327
    77  O   -0.640394
    78  H    0.409920
    79  C    0.371508
    80  N   -0.605962
    81  H    0.358400
    82  C   -0.001194
    83  H    0.182931
    84  C    0.590513
    85  C   -0.279603
    86  H    0.167781
    87  H    0.148336
    88  O   -0.605456
    89  C   -0.286833
    90  H    0.142862
    91  H    0.169343
    92  C   -0.291791
    93  H    0.147288
    94  H    0.164803
    95  C   -0.140801
    96  H    0.144186
    97  H    0.162564
    98  N   -0.776153
    99  H    0.330810
   100  H    0.338435
   101  H    0.456411
   102  O   -0.517701
 Sum of Mulliken charges =   1.00000

 Dipole moment (field-independent basis, Debye):
    X=            -17.3742    Y=             -5.7921    Z=             12.2440  Tot=             22.0301
 Quadrupole moment (field-independent basis, Debye-Ang):
   XX=            -24.1559   YY=           -252.0806   ZZ=           -152.3050
   XY=             10.7391   XZ=           -164.4656   YZ=             -9.6092

 Normal termination of Gaussian 16 at Thu Jul 14 14:14:30 2022.
