 Gaussian 16, Revision C.01,
 Gaussian 16:  ES64L-G16RevC.01  3-Jul-2019

 ----------------------------------------------------------------------
 # B3LYP/6-31G* empiricaldispersion=gd3bj guess=read geom=check nosymm
 integral(ultrafinegrid)
 ----------------------------------------------------------------------

 ------------------------------------------------------
 Candidate Structure: Conf:879 Charge calc in gas phase
 ------------------------------------------------------
 Structure from the checkpoint file:  "conf-879.chk"
 Charge =  1 Multiplicity = 1

                          Input orientation:
 ---------------------------------------------------------------------
 Center     Atomic      Atomic             Coordinates (Angstroms)
 Number     Number       Type             X           Y           Z
 ---------------------------------------------------------------------
      1          7           0       -5.619157    2.733588    6.279161
      2          1           0       -5.181789    2.638568    7.198195
      3          1           0       -6.608132    2.961558    6.409029
      4          1           0       -5.129719    3.500710    5.714699
      5          6           0       -5.409942    1.531076    5.381977
      6          1           0       -4.860141    0.781492    5.956377
      7          6           0       -4.518502    2.111262    4.252894
      8          6           0       -6.746643    0.947555    4.882106
      9          1           0       -6.461651    0.119302    4.221542
     10          8           0       -4.288281    3.332446    4.271301
     11          6           0       -7.567151    0.363803    6.039814
     12          1           0       -7.918889    1.140196    6.732953
     13          1           0       -8.459204   -0.135706    5.652141
     14          1           0       -6.993688   -0.370930    6.615015
     15          6           0       -7.550122    1.958607    4.052219
     16          1           0       -7.899707    2.810575    4.651379
     17          1           0       -6.972643    2.352495    3.210707
     18          1           0       -8.444515    1.476142    3.649465
     19          7           0       -4.090763    1.252098    3.343555
     20          1           0       -4.334837    0.257976    3.350551
     21          6           0       -3.283282    1.593537    2.180403
     22          1           0       -3.663734    2.508071    1.716221
     23          6           0       -3.412011    0.380801    1.250561
     24          6           0       -1.794252    1.820382    2.574275
     25          1           0       -1.422830    0.909156    3.062262
     26          1           0       -1.764176    2.642186    3.296126
     27          8           0       -3.859330   -0.678883    1.697577
     28          8           0       -1.022844    2.180102    1.460292
     29          1           0       -0.702851    1.349992    1.037746
     30          7           0       -2.986716    0.563388   -0.017739
     31          1           0       -2.473274    1.420697   -0.206881
     32          6           0       -2.600344   -0.586079   -0.825141
     33          1           0       -3.186400   -1.430029   -0.451254
     34          6           0       -1.106860   -0.873332   -0.548384
     35          6           0       -2.885105   -0.358061   -2.316858
     36          1           0       -2.914496   -1.309795   -2.856912
     37          1           0       -2.123915    0.273418   -2.780929
     38          1           0       -3.857862    0.123632   -2.439166
     39          8           0       -0.479240   -0.276783    0.333728
     40          7           0       -0.535829   -1.819860   -1.324713
     41          1           0       -1.031723   -2.087494   -2.166040
     42          6           0        0.924088   -1.892792   -1.443144
     43          1           0        1.330091   -1.728659   -0.444779
     44          6           0        1.339807   -0.768691   -2.404110
     45          6           0        1.343379   -3.257408   -1.995039
     46          1           0        1.017366   -4.030927   -1.287748
     47          1           0        0.801960   -3.422398   -2.935544
     48          8           0        0.855203   -0.710880   -3.533085
     49          6           0        2.851598   -3.400802   -2.267384
     50          1           0        3.126673   -2.654051   -3.025687
     51          6           0        3.708180   -3.151930   -1.018319
     52          1           0        3.384103   -3.790168   -0.186265
     53          1           0        4.759167   -3.382040   -1.223106
     54          1           0        3.674690   -2.109306   -0.687069
     55          6           0        3.134559   -4.789367   -2.853807
     56          1           0        2.892368   -5.576450   -2.128492
     57          1           0        4.192282   -4.894626   -3.117951
     58          1           0        2.541097   -4.970633   -3.757152
     59          7           0        2.220860    0.121827   -1.901518
     60          1           0        2.678726   -0.053378   -1.013944
     61          6           0        2.854692    1.143405   -2.705454
     62          1           0        2.680926    0.889884   -3.754998
     63          6           0        4.352249    1.102698   -2.365077
     64          6           0        2.291963    2.553431   -2.400154
     65          1           0        2.785224    3.267710   -3.072235
     66          1           0        2.593353    2.824213   -1.381881
     67          8           0        4.736758    0.641569   -1.288642
     68          6           0        0.789523    2.663445   -2.525617
     69          6           0        0.135564    2.413452   -3.742102
     70          1           0        0.708040    2.086633   -4.604517
     71          6           0        0.011895    3.051620   -1.433744
     72          1           0        0.479058    3.239009   -0.471651
     73          6           0       -1.239804    2.564749   -3.872494
     74          1           0       -1.740255    2.373327   -4.815822
     75          6           0       -1.371585    3.217683   -1.548966
     76          1           0       -1.941359    3.557502   -0.686399
     77          8           0       -3.353162    3.097039   -2.947729
     78          1           0       -3.735281    3.511939   -2.159183
     79          6           0       -1.999117    2.978998   -2.772639
     80          7           0        5.173186    1.647664   -3.282682
     81          1           0        4.831913    1.963812   -4.183889
     82          6           0        6.610768    1.748777   -3.098496
     83          1           0        6.820046    2.077403   -2.078359
     84          6           0        7.137957    2.775060   -4.084886
     85          6           0        7.315260    0.377448   -3.349018
     86          1           0        7.152263   -0.221411   -2.448622
     87          1           0        6.775285   -0.121207   -4.163075
     88          8           0        8.268354    3.325317   -3.670955
     89          6           0        8.815922    0.450109   -3.699752
     90          1           0        9.293458   -0.481556   -3.376853
     91          1           0        9.285902    1.251711   -3.123093
     92          6           0        9.086704    0.644609   -5.217056
     93          1           0        9.272589   -0.338355   -5.664442
     94          1           0        8.188509    1.025030   -5.717469
     95          6           0       10.263827    1.567177   -5.583890
     96          1           0       10.735731    1.213954   -6.510767
     97          1           0       11.030299    1.537748   -4.801951
     98          7           0        9.833181    2.981955   -5.730744
     99          1           0       10.637013    3.579541   -5.917897
    100          1           0        9.208349    3.067998   -6.532762
    101          1           0        8.887904    3.449360   -4.490898
    102          8           0        6.613123    2.957299   -5.174241
 ---------------------------------------------------------------------

 SCF Done:  E(RB3LYP) =  -2312.32053249     A.U. after    1 cycles

 Alpha  occ. eigenvalues --  -19.27191 -19.24131 -19.22108 -19.22036 -19.20833
 Alpha  occ. eigenvalues --  -19.20748 -19.17907 -19.17239 -19.16998 -14.59929
 Alpha  occ. eigenvalues --  -14.49668 -14.45045 -14.43833 -14.41614 -14.41547
 Alpha  occ. eigenvalues --  -14.40330 -10.43760 -10.40756 -10.38852 -10.37270
 Alpha  occ. eigenvalues --  -10.35720 -10.34908 -10.34326 -10.34169 -10.33997
 Alpha  occ. eigenvalues --  -10.32677 -10.31734 -10.31299 -10.31152 -10.30912
 Alpha  occ. eigenvalues --  -10.29405 -10.29087 -10.28169 -10.27362 -10.25588
 Alpha  occ. eigenvalues --  -10.25186 -10.24849 -10.24802 -10.24756 -10.24669
 Alpha  occ. eigenvalues --  -10.24506 -10.24327 -10.24188 -10.23747 -10.23598
 Alpha  occ. eigenvalues --  -10.23110 -10.22253 -10.22145  -1.19632  -1.14390
 Alpha  occ. eigenvalues --   -1.13780  -1.13174  -1.12341  -1.12075  -1.09924
 Alpha  occ. eigenvalues --   -1.09540  -1.08651  -1.06362  -1.04693  -1.02004
 Alpha  occ. eigenvalues --   -1.00431  -0.98468  -0.98061  -0.95825  -0.95814
 Alpha  occ. eigenvalues --   -0.91177  -0.88962  -0.87479  -0.85834  -0.85490
 Alpha  occ. eigenvalues --   -0.84284  -0.83797  -0.82408  -0.80869  -0.80549
 Alpha  occ. eigenvalues --   -0.80277  -0.78167  -0.75948  -0.74754  -0.74556
 Alpha  occ. eigenvalues --   -0.74142  -0.73724  -0.73285  -0.72332  -0.71813
 Alpha  occ. eigenvalues --   -0.70975  -0.69678  -0.68325  -0.68051  -0.67850
 Alpha  occ. eigenvalues --   -0.66778  -0.65876  -0.65524  -0.64719  -0.64478
 Alpha  occ. eigenvalues --   -0.63887  -0.62835  -0.62449  -0.61848  -0.61636
 Alpha  occ. eigenvalues --   -0.61350  -0.60263  -0.59659  -0.59074  -0.58090
 Alpha  occ. eigenvalues --   -0.58011  -0.57119  -0.56347  -0.56260  -0.55655
 Alpha  occ. eigenvalues --   -0.55303  -0.55037  -0.54228  -0.54027  -0.53740
 Alpha  occ. eigenvalues --   -0.53520  -0.53138  -0.52663  -0.52469  -0.52341
 Alpha  occ. eigenvalues --   -0.51878  -0.51432  -0.51326  -0.51136  -0.50632
 Alpha  occ. eigenvalues --   -0.50505  -0.50435  -0.49690  -0.49386  -0.49105
 Alpha  occ. eigenvalues --   -0.48820  -0.48590  -0.48434  -0.48197  -0.48009
 Alpha  occ. eigenvalues --   -0.47850  -0.47755  -0.47645  -0.47293  -0.46645
 Alpha  occ. eigenvalues --   -0.46488  -0.46269  -0.46129  -0.46033  -0.45619
 Alpha  occ. eigenvalues --   -0.45180  -0.44787  -0.44656  -0.44147  -0.43353
 Alpha  occ. eigenvalues --   -0.42898  -0.42738  -0.42131  -0.41857  -0.41641
 Alpha  occ. eigenvalues --   -0.41552  -0.41399  -0.41325  -0.40923  -0.40273
 Alpha  occ. eigenvalues --   -0.40165  -0.39300  -0.38796  -0.38433  -0.38338
 Alpha  occ. eigenvalues --   -0.38301  -0.37915  -0.37888  -0.37625  -0.36510
 Alpha  occ. eigenvalues --   -0.35717  -0.35237  -0.34666  -0.34302  -0.33712
 Alpha  occ. eigenvalues --   -0.32587  -0.32153  -0.31773  -0.31316  -0.30645
 Alpha  occ. eigenvalues --   -0.30264  -0.30070  -0.27675
 Alpha virt. eigenvalues --   -0.12558  -0.11492  -0.08031  -0.07075  -0.06733
 Alpha virt. eigenvalues --   -0.06337  -0.05160  -0.04376  -0.03891  -0.03275
 Alpha virt. eigenvalues --   -0.02570  -0.02366  -0.01027  -0.00813   0.00008

 Mulliken charges:
               1
     1  N   -0.763730
     2  H    0.416398
     3  H    0.409233
     4  H    0.436995
     5  C   -0.100034
     6  H    0.216118
     7  C    0.656258
     8  C   -0.126501
     9  H    0.191607
    10  O   -0.549591
    11  C   -0.462464
    12  H    0.139173
    13  H    0.200710
    14  H    0.173677
    15  C   -0.476950
    16  H    0.142344
    17  H    0.187059
    18  H    0.200283
    19  N   -0.615880
    20  H    0.377678
    21  C   -0.078580
    22  H    0.188471
    23  C    0.611508
    24  C   -0.032514
    25  H    0.152238
    26  H    0.169996
    27  O   -0.540958
    28  O   -0.647534
    29  H    0.457793
    30  N   -0.600641
    31  H    0.363017
    32  C   -0.091771
    33  H    0.212382
    34  C    0.649737
    35  C   -0.492152
    36  H    0.160644
    37  H    0.206489
    38  H    0.181802
    39  O   -0.559728
    40  N   -0.588152
    41  H    0.349222
    42  C   -0.066626
    43  H    0.175098
    44  C    0.631240
    45  C   -0.270177
    46  H    0.146903
    47  H    0.148899
    48  O   -0.552851
    49  C   -0.086567
    50  H    0.142597
    51  C   -0.456006
    52  H    0.140749
    53  H    0.154350
    54  H    0.149340
    55  C   -0.444554
    56  H    0.143678
    57  H    0.149651
    58  H    0.147477
    59  N   -0.589306
    60  H    0.359216
    61  C   -0.075201
    62  H    0.180950
    63  C    0.634556
    64  C   -0.360132
    65  H    0.164177
    66  H    0.160825
    67  O   -0.547098
    68  C    0.185346
    69  C   -0.154000
    70  H    0.145089
    71  C   -0.203432
    72  H    0.152336
    73  C   -0.172777
    74  H    0.151902
    75  C   -0.243834
    76  H    0.127072
    77  O   -0.643747
    78  H    0.403644
    79  C    0.356642
    80  N   -0.619813
    81  H    0.349212
    82  C   -0.001037
    83  H    0.187572
    84  C    0.573088
    85  C   -0.283099
    86  H    0.174296
    87  H    0.145633
    88  O   -0.601665
    89  C   -0.285227
    90  H    0.145108
    91  H    0.170197
    92  C   -0.292778
    93  H    0.150545
    94  H    0.162977
    95  C   -0.142121
    96  H    0.148032
    97  H    0.164107
    98  N   -0.778868
    99  H    0.333406
   100  H    0.341808
   101  H    0.458014
   102  O   -0.508469
 Sum of Mulliken charges =   1.00000

 Dipole moment (field-independent basis, Debye):
    X=            -14.8446    Y=              6.7076    Z=             15.7035  Tot=             22.6263
 Quadrupole moment (field-independent basis, Debye-Ang):
   XX=            -40.8424   YY=           -260.9211   ZZ=           -109.3429
   XY=            -35.3970   XZ=           -195.7612   YZ=             41.6023

 Normal termination of Gaussian 16 at Thu Jul 14 14:14:30 2022.
