 Gaussian 16, Revision C.01,
 Gaussian 16:  ES64L-G16RevC.01  3-Jul-2019

 ----------------------------------------------------------------------
 # B3LYP/6-31G* empiricaldispersion=gd3 guess=read geom=check nosymm in
 tegral(ultrafinegrid)
 ----------------------------------------------------------------------

 ------------------------------------------------------
 Candidate Structure: Conf:961 Charge calc in gas phase
 ------------------------------------------------------
 Structure from the checkpoint file:  "conf-961.chk"
 Charge =  1 Multiplicity = 1

                          Input orientation:
 ---------------------------------------------------------------------
 Center     Atomic      Atomic             Coordinates (Angstroms)
 Number     Number       Type             X           Y           Z
 ---------------------------------------------------------------------
      1          7           0       -1.927532   -0.737381   -3.950214
      2          1           0       -2.163170   -1.656337   -3.574623
      3          1           0       -2.768589   -0.167515   -3.842825
      4          1           0       -0.941391   -0.932538   -5.455927
      5          6           0       -0.833664   -0.134265   -3.167237
      6          1           0        0.044604   -0.774853   -3.315265
      7          6           0       -1.129539    0.023596   -1.667279
      8          6           0       -0.534652    1.283772   -3.702229
      9          1           0        0.406289    1.627533   -3.255858
     10          1           0       -1.320584    1.956765   -3.344893
     11          8           0       -2.107433    0.658258   -1.290710
     12          6           0       -0.452459    1.387532   -5.242603
     13          1           0       -1.449523    1.281612   -5.679352
     14          1           0       -0.057780    2.364824   -5.529086
     15          6           0        0.461459    0.316147   -5.796586
     16          8           0       -0.039866   -0.899951   -5.912949
     17          8           0        1.643400    0.537522   -6.066437
     18          7           0       -0.189666   -0.511436   -0.842933
     19          1           0        0.596399   -1.012181   -1.240015
     20          6           0        0.010863   -0.079695    0.544154
     21          1           0       -0.722652    0.707964    0.729444
     22          6           0        1.448473    0.460145    0.536544
     23          6           0       -0.153979   -1.228150    1.545932
     24          1           0        0.505593   -2.046653    1.232583
     25          1           0       -1.186969   -1.590723    1.469938
     26          8           0        2.384085   -0.288071    0.248755
     27          6           0        0.165741   -0.849955    3.005349
     28          1           0        1.225924   -0.557248    3.050971
     29          6           0       -0.680641    0.330027    3.507899
     30          1           0       -1.751748    0.121673    3.392497
     31          1           0       -0.490084    0.517896    4.569876
     32          1           0       -0.459915    1.262622    2.974702
     33          6           0       -0.019989   -2.076884    3.909128
     34          1           0       -1.067950   -2.402311    3.912631
     35          1           0        0.592989   -2.920090    3.570290
     36          1           0        0.261433   -1.848961    4.942927
     37          7           0        1.601823    1.794359    0.728042
     38          1           0        0.843207    2.354873    1.100233
     39          6           0        2.913745    2.417924    0.703603
     40          1           0        3.650943    1.681128    1.040568
     41          6           0        2.893957    3.583071    1.686878
     42          6           0        3.320504    2.918672   -0.706832
     43          1           0        4.326293    3.348980   -0.631798
     44          1           0        2.644313    3.731998   -1.003160
     45          8           0        1.894735    4.004776    2.224629
     46          6           0        3.284184    1.809501   -1.766196
     47          1           0        3.865952    0.946863   -1.425627
     48          1           0        2.257885    1.445504   -1.880805
     49          6           0        3.783204    2.297725   -3.133186
     50          1           0        4.830189    2.625289   -3.086832
     51          1           0        3.214134    3.172189   -3.461142
     52          7           0        3.626026    1.294278   -4.194757
     53          1           0        2.844795    1.384350   -4.847768
     54          7           0        5.461852   -0.021026   -3.601968
     55          1           0        5.891315   -0.933700   -3.561727
     56          1           0        5.757331    0.647978   -2.908405
     57          7           0        3.954362   -0.756724   -5.206501
     58          1           0        4.593431   -1.478559   -5.506871
     59          1           0        3.107813   -0.587266   -5.759855
     60          6           0        4.345619    0.177736   -4.329433
     61          8           0        4.123629    4.101337    1.852952
     62          1           0        4.045589    4.850612    2.474969
 ---------------------------------------------------------------------

 SCF Done:  E(RB3LYP) =  -1447.51571860     A.U. after    3 cycles

 Alpha  occ. eigenvalues --  -19.30178 -19.29744 -19.26338 -19.24703 -19.21853
 Alpha  occ. eigenvalues --  -19.21565 -14.52118 -14.51092 -14.50299 -14.46735
 Alpha  occ. eigenvalues --  -14.46503 -14.45837 -10.47841 -10.44217 -10.42734
 Alpha  occ. eigenvalues --  -10.38945 -10.38804 -10.36535 -10.34820 -10.34619
 Alpha  occ. eigenvalues --  -10.32645 -10.31714 -10.31622 -10.31136 -10.31026
 Alpha  occ. eigenvalues --  -10.26580 -10.26548 -10.24549 -10.23965  -1.21592
 Alpha  occ. eigenvalues --   -1.21183  -1.16295  -1.14233  -1.13375  -1.13200
 Alpha  occ. eigenvalues --   -1.12364  -1.05635  -1.04270  -1.03234  -1.02780
 Alpha  occ. eigenvalues --   -1.01970  -0.92390  -0.91086  -0.89400  -0.87421
 Alpha  occ. eigenvalues --   -0.84494  -0.81919  -0.81196  -0.77986  -0.75475
 Alpha  occ. eigenvalues --   -0.74850  -0.73993  -0.73703  -0.73011  -0.71774
 Alpha  occ. eigenvalues --   -0.70583  -0.70043  -0.69110  -0.68635  -0.65132
 Alpha  occ. eigenvalues --   -0.65021  -0.64554  -0.63945  -0.63214  -0.62101
 Alpha  occ. eigenvalues --   -0.61627  -0.61194  -0.60223  -0.58737  -0.58281
 Alpha  occ. eigenvalues --   -0.57865  -0.57444  -0.57273  -0.56884  -0.55868
 Alpha  occ. eigenvalues --   -0.55766  -0.55403  -0.54707  -0.54064  -0.53376
 Alpha  occ. eigenvalues --   -0.52235  -0.51448  -0.51322  -0.50533  -0.50408
 Alpha  occ. eigenvalues --   -0.50227  -0.49459  -0.48942  -0.48553  -0.47986
 Alpha  occ. eigenvalues --   -0.47322  -0.47160  -0.46893  -0.45972  -0.45685
 Alpha  occ. eigenvalues --   -0.45247  -0.44696  -0.43649  -0.43162  -0.42535
 Alpha  occ. eigenvalues --   -0.42294  -0.40930  -0.40379  -0.40175  -0.40062
 Alpha  occ. eigenvalues --   -0.39803  -0.39709  -0.38362  -0.36598  -0.36306
 Alpha  occ. eigenvalues --   -0.35023  -0.34292
 Alpha virt. eigenvalues --   -0.11799  -0.11719  -0.09909  -0.09488  -0.08126
 Alpha virt. eigenvalues --   -0.06852  -0.05444  -0.04425  -0.02727  -0.02225
 Alpha virt. eigenvalues --   -0.01843  -0.01248  -0.01073   0.00643   0.01660

 Mulliken charges:
               1
     1  N   -0.766029
     2  H    0.345066
     3  H    0.348924
     4  H    0.461782
     5  C   -0.086965
     6  H    0.147670
     7  C    0.607883
     8  C   -0.303183
     9  H    0.154176
    10  H    0.204451
    11  O   -0.510779
    12  C   -0.370889
    13  H    0.193282
    14  H    0.189042
    15  C    0.617243
    16  O   -0.559814
    17  O   -0.520341
    18  N   -0.603658
    19  H    0.339679
    20  C   -0.057500
    21  H    0.185772
    22  C    0.621433
    23  C   -0.251431
    24  H    0.150029
    25  H    0.155488
    26  O   -0.551361
    27  C   -0.090476
    28  H    0.134490
    29  C   -0.452262
    30  H    0.155780
    31  H    0.162022
    32  H    0.128600
    33  C   -0.445407
    34  H    0.150399
    35  H    0.148169
    36  H    0.155320
    37  N   -0.614832
    38  H    0.366522
    39  C   -0.042029
    40  H    0.206624
    41  C    0.587623
    42  C   -0.273160
    43  H    0.172807
    44  H    0.157634
    45  O   -0.450476
    46  C   -0.285079
    47  H    0.171479
    48  H    0.164030
    49  C   -0.177475
    50  H    0.174809
    51  H    0.189854
    52  N   -0.619875
    53  H    0.399167
    54  N   -0.756876
    55  H    0.380345
    56  H    0.382417
    57  N   -0.785182
    58  H    0.369427
    59  H    0.417072
    60  C    0.807120
    61  O   -0.561374
    62  H    0.432828
 Sum of Mulliken charges =   1.00000

 Dipole moment (field-independent basis, Debye):
    X=             14.2180    Y=              3.0701    Z=            -13.8478  Tot=             20.0834
 Quadrupole moment (field-independent basis, Debye-Ang):
   XX=            -88.7180   YY=           -144.4500   ZZ=           -101.4645
   XY=             17.5224   XZ=            -34.8494   YZ=              2.6322

 Normal termination of Gaussian 16 at Wed Jun  1 02:12:11 2022.
