 Gaussian 16, Revision C.01,
 Gaussian 16:  ES64L-G16RevC.01  3-Jul-2019

 ----------------------------------------------------------------------
 # B3LYP/6-31G* empiricaldispersion=gd3 guess=read geom=check nosymm in
 tegral(ultrafinegrid)
 ----------------------------------------------------------------------

 -----------------------------------------------------
 Candidate Structure: Conf:34 Charge calc in gas phase
 -----------------------------------------------------
 Structure from the checkpoint file:  "conf-34.chk"
 Charge =  1 Multiplicity = 1

                          Input orientation:
 ---------------------------------------------------------------------
 Center     Atomic      Atomic             Coordinates (Angstroms)
 Number     Number       Type             X           Y           Z
 ---------------------------------------------------------------------
      1          7           0       -3.307505   -0.152193   -3.794849
      2          1           0       -3.890103   -0.991948   -3.728938
      3          1           0       -3.557332    0.492598   -2.992639
      4          1           0       -3.473212    0.296944   -4.699820
      5          6           0       -1.832713   -0.420425   -3.536600
      6          1           0       -1.633779   -1.474077   -3.746626
      7          6           0       -1.694835   -0.056488   -2.036931
      8          6           0       -0.972865    0.517640   -4.406900
      9          1           0       -1.015904    1.532128   -3.995042
     10          1           0       -1.401840    0.548039   -5.418838
     11          8           0       -2.575228    0.665461   -1.544272
     12          6           0        0.500224    0.104400   -4.519372
     13          1           0        0.905753   -0.201567   -3.548767
     14          1           0        0.633362   -0.721051   -5.223457
     15          6           0        1.379095    1.309029   -4.931647
     16          8           0        1.163182    2.376805   -4.284720
     17          8           0        2.241976    1.105042   -5.817407
     18          7           0       -0.611414   -0.496879   -1.402721
     19          1           0        0.113270   -0.995915   -1.914280
     20          6           0       -0.125262    0.071484   -0.143606
     21          1           0       -0.672198    1.001083    0.032423
     22          6           0        1.370331    0.353233   -0.378832
     23          6           0       -0.300087   -0.896657    1.043301
     24          1           0        0.181882   -0.445504    1.921760
     25          1           0        0.263884   -1.810498    0.814574
     26          8           0        1.997607   -0.279726   -1.228141
     27          6           0       -1.759092   -1.249889    1.385741
     28          1           0       -2.229098   -1.652598    0.476098
     29          6           0       -1.781646   -2.348111    2.459074
     30          1           0       -1.319812   -1.993393    3.389097
     31          1           0       -2.809803   -2.644994    2.692439
     32          1           0       -1.236998   -3.242270    2.134186
     33          6           0       -2.563356   -0.022776    1.839386
     34          1           0       -2.090923    0.451478    2.709673
     35          1           0       -2.661457    0.722546    1.044021
     36          1           0       -3.575902   -0.316900    2.136636
     37          7           0        1.915120    1.294366    0.422893
     38          1           0        1.341818    1.727370    1.134553
     39          6           0        3.347471    1.568180    0.449928
     40          1           0        3.841683    0.698561    0.003111
     41          6           0        3.883017    1.691633    1.874994
     42          6           0        3.735457    2.822253   -0.362450
     43          1           0        4.807131    2.989072   -0.206853
     44          1           0        3.211332    3.693310    0.055222
     45          8           0        5.036436    1.940595    2.126793
     46          6           0        3.418568    2.674703   -1.852282
     47          1           0        3.921208    1.788697   -2.258327
     48          1           0        2.346737    2.515186   -2.010252
     49          6           0        3.857875    3.907484   -2.655785
     50          1           0        4.942558    4.037900   -2.577128
     51          1           0        3.385525    4.812669   -2.251634
     52          7           0        3.483083    3.742307   -4.059469
     53          1           0        2.547850    3.289076   -4.228441
     54          7           0        5.487848    4.465093   -5.015066
     55          1           0        6.127279    4.448044   -5.795889
     56          1           0        5.549884    5.268790   -4.407537
     57          7           0        3.986848    3.132686   -6.214576
     58          1           0        4.487579    3.303626   -7.073977
     59          1           0        3.270405    2.358352   -6.161300
     60          6           0        4.312279    3.783090   -5.098941
     61          8           0        2.928715    1.513615    2.821683
     62          1           0        3.367905    1.623773    3.687172
 ---------------------------------------------------------------------

 SCF Done:  E(RB3LYP) =  -1447.49616059     A.U. after    1 cycles

 Alpha  occ. eigenvalues --  -19.29308 -19.26559 -19.22975 -19.22575 -19.16785
 Alpha  occ. eigenvalues --  -19.16744 -14.59696 -14.49336 -14.46941 -14.46928
 Alpha  occ. eigenvalues --  -14.44201 -14.43992 -10.43314 -10.41788 -10.41405
 Alpha  occ. eigenvalues --  -10.39998 -10.39655 -10.34978 -10.34591 -10.33629
 Alpha  occ. eigenvalues --  -10.31627 -10.31495 -10.28590 -10.28173 -10.27798
 Alpha  occ. eigenvalues --  -10.27421 -10.26947 -10.25195 -10.25134  -1.19895
 Alpha  occ. eigenvalues --   -1.18988  -1.14623  -1.13454  -1.10918  -1.10582
 Alpha  occ. eigenvalues --   -1.09708  -1.06069  -1.03485  -1.01446  -0.99715
 Alpha  occ. eigenvalues --   -0.98176  -0.93123  -0.90651  -0.89158  -0.85929
 Alpha  occ. eigenvalues --   -0.84139  -0.82653  -0.77817  -0.76472  -0.76037
 Alpha  occ. eigenvalues --   -0.75198  -0.73530  -0.72448  -0.72027  -0.70785
 Alpha  occ. eigenvalues --   -0.70348  -0.69404  -0.69281  -0.67056  -0.66218
 Alpha  occ. eigenvalues --   -0.64659  -0.64281  -0.62879  -0.62213  -0.60128
 Alpha  occ. eigenvalues --   -0.59784  -0.59389  -0.58225  -0.57867  -0.57354
 Alpha  occ. eigenvalues --   -0.56934  -0.56396  -0.56106  -0.55416  -0.54562
 Alpha  occ. eigenvalues --   -0.53789  -0.53424  -0.52979  -0.52513  -0.52073
 Alpha  occ. eigenvalues --   -0.51489  -0.50588  -0.50340  -0.49550  -0.49328
 Alpha  occ. eigenvalues --   -0.49058  -0.48191  -0.47838  -0.47495  -0.47168
 Alpha  occ. eigenvalues --   -0.46615  -0.46294  -0.45354  -0.45149  -0.44841
 Alpha  occ. eigenvalues --   -0.43868  -0.43000  -0.42382  -0.41833  -0.41398
 Alpha  occ. eigenvalues --   -0.41172  -0.40919  -0.40726  -0.39088  -0.37959
 Alpha  occ. eigenvalues --   -0.37613  -0.36323  -0.35185  -0.34177  -0.32310
 Alpha  occ. eigenvalues --   -0.31766  -0.31053
 Alpha virt. eigenvalues --   -0.11915  -0.10592  -0.08360  -0.08137  -0.06541
 Alpha virt. eigenvalues --   -0.06111  -0.03933  -0.03030  -0.02726  -0.02078
 Alpha virt. eigenvalues --   -0.01359   0.00049   0.00395   0.00493   0.01379

 Mulliken charges:
               1
     1  N   -0.751623
     2  H    0.414452
     3  H    0.430673
     4  H    0.413403
     5  C   -0.116572
     6  H    0.209714
     7  C    0.652079
     8  C   -0.301473
     9  H    0.212539
    10  H    0.161115
    11  O   -0.539568
    12  C   -0.369779
    13  H    0.175222
    14  H    0.167381
    15  C    0.606039
    16  O   -0.604496
    17  O   -0.573775
    18  N   -0.579398
    19  H    0.372305
    20  C   -0.101922
    21  H    0.191845
    22  C    0.645594
    23  C   -0.257970
    24  H    0.154096
    25  H    0.157234
    26  O   -0.533301
    27  C   -0.069549
    28  H    0.118528
    29  C   -0.446095
    30  H    0.151747
    31  H    0.156979
    32  H    0.148957
    33  C   -0.467328
    34  H    0.142755
    35  H    0.164908
    36  H    0.157887
    37  N   -0.600472
    38  H    0.352356
    39  C   -0.070805
    40  H    0.221572
    41  C    0.596800
    42  C   -0.270014
    43  H    0.181756
    44  H    0.144671
    45  O   -0.438723
    46  C   -0.288476
    47  H    0.169069
    48  H    0.177861
    49  C   -0.151084
    50  H    0.159901
    51  H    0.163158
    52  N   -0.622305
    53  H    0.422703
    54  N   -0.755453
    55  H    0.360288
    56  H    0.365165
    57  N   -0.787401
    58  H    0.342892
    59  H    0.430576
    60  C    0.756142
    61  O   -0.582152
    62  H    0.429370
 Sum of Mulliken charges =   1.00000

 Dipole moment (field-independent basis, Debye):
    X=             -1.0279    Y=              6.1126    Z=            -13.4154  Tot=             14.7782
 Quadrupole moment (field-independent basis, Debye-Ang):
   XX=            -90.5628   YY=           -126.9927   ZZ=            -81.7733
   XY=             57.2727   XZ=             -1.9324   YZ=            -28.2764

 Normal termination of Gaussian 16 at Wed Jun  1 02:11:58 2022.
