 Gaussian 16, Revision C.01,
 Gaussian 16:  ES64L-G16RevC.01  3-Jul-2019

 ----------------------------------------------------------------------
 # B3LYP/6-31G* empiricaldispersion=gd3 guess=read geom=check nosymm in
 tegral(ultrafinegrid)
 ----------------------------------------------------------------------

 ------------------------------------------------------
 Candidate Structure: Conf:102 Charge calc in gas phase
 ------------------------------------------------------
 Structure from the checkpoint file:  "conf-102.chk"
 Charge =  1 Multiplicity = 1

                          Input orientation:
 ---------------------------------------------------------------------
 Center     Atomic      Atomic             Coordinates (Angstroms)
 Number     Number       Type             X           Y           Z
 ---------------------------------------------------------------------
      1          7           0       -3.404166   -1.476444   -3.340991
      2          1           0       -3.455517   -2.417952   -2.940700
      3          1           0       -3.781258   -0.794383   -2.630525
      4          1           0       -3.946717   -1.456689   -4.208808
      5          6           0       -1.969161   -0.993002   -3.521523
      6          1           0       -1.313512   -1.844542   -3.692080
      7          6           0       -1.696237   -0.304494   -2.160206
      8          6           0       -1.946144   -0.028542   -4.718766
      9          1           0       -2.750423    0.707942   -4.582510
     10          1           0       -2.176817   -0.609877   -5.621771
     11          8           0       -2.682611    0.144388   -1.549505
     12          6           0       -0.621892    0.720575   -4.924279
     13          1           0       -0.702706    1.338165   -5.821514
     14          1           0       -0.457621    1.399378   -4.076478
     15          6           0        0.628666   -0.172112   -5.040860
     16          8           0        0.776887   -1.065561   -4.131621
     17          8           0        1.428209    0.078934   -5.961334
     18          7           0       -0.431282   -0.274819   -1.752164
     19          1           0        0.275665   -0.629016   -2.420364
     20          6           0       -0.028785    0.293104   -0.462029
     21          1           0       -0.684683    1.141139   -0.245465
     22          6           0        1.433938    0.727595   -0.568549
     23          6           0       -0.083262   -0.745595    0.687915
     24          1           0        0.389536   -0.286539    1.568566
     25          1           0        0.558085   -1.582822    0.387869
     26          8           0        2.269422   -0.036512   -1.059953
     27          6           0       -1.476107   -1.258229    1.096300
     28          1           0       -1.972088   -1.661018    0.202378
     29          6           0       -1.311794   -2.406080    2.104702
     30          1           0       -0.814148   -2.055015    3.017367
     31          1           0       -2.286832   -2.811717    2.396038
     32          1           0       -0.712965   -3.226146    1.691221
     33          6           0       -2.358559   -0.144166    1.674922
     34          1           0       -1.879442    0.314893    2.549397
     35          1           0       -2.567080    0.635205    0.936844
     36          1           0       -3.322395   -0.548538    2.003364
     37          7           0        1.758742    1.921196   -0.029308
     38          1           0        1.061210    2.450735    0.484660
     39          6           0        3.142692    2.294910    0.246240
     40          1           0        3.731721    1.377067    0.339088
     41          6           0        3.149247    3.011387    1.594935
     42          6           0        3.760890    3.210206   -0.838756
     43          1           0        4.745974    3.535563   -0.484350
     44          1           0        3.137404    4.109173   -0.912789
     45          8           0        2.150559    3.379940    2.173521
     46          6           0        3.885620    2.574418   -2.230846
     47          1           0        2.930474    2.129192   -2.530102
     48          1           0        4.097926    3.372855   -2.952830
     49          6           0        4.996884    1.516206   -2.347949
     50          1           0        4.825778    0.677831   -1.667302
     51          1           0        5.966826    1.943419   -2.076445
     52          7           0        5.127782    0.998242   -3.716007
     53          1           0        5.660671    1.575716   -4.352365
     54          7           0        3.391432   -0.542521   -3.539351
     55          1           0        2.555054   -0.992620   -3.950300
     56          1           0        3.286399   -0.357838   -2.546704
     57          7           0        4.158546    0.042206   -5.629024
     58          1           0        3.216153   -0.204290   -5.981077
     59          1           0        4.661666    0.711100   -6.196090
     60          6           0        4.206844    0.182829   -4.290226
     61          8           0        4.401135    3.204511    2.038411
     62          1           0        4.345660    3.687384    2.885893
 ---------------------------------------------------------------------

 SCF Done:  E(RB3LYP) =  -1447.51756886     A.U. after    2 cycles

 Alpha  occ. eigenvalues --  -19.30410 -19.25196 -19.25012 -19.23835 -19.18900
 Alpha  occ. eigenvalues --  -19.18249 -14.59079 -14.48041 -14.47932 -14.47746
 Alpha  occ. eigenvalues --  -14.45074 -14.44322 -10.43029 -10.42605 -10.41871
 Alpha  occ. eigenvalues --  -10.40864 -10.38439 -10.36617 -10.35123 -10.34696
 Alpha  occ. eigenvalues --  -10.33655 -10.32328 -10.30171 -10.29629 -10.28513
 Alpha  occ. eigenvalues --  -10.28428 -10.27731 -10.25191 -10.24899  -1.21482
 Alpha  occ. eigenvalues --   -1.17645  -1.15809  -1.12717  -1.12677  -1.11969
 Alpha  occ. eigenvalues --   -1.11168  -1.04780  -1.04432  -1.02828  -1.01402
 Alpha  occ. eigenvalues --   -0.98455  -0.92716  -0.91437  -0.90009  -0.86611
 Alpha  occ. eigenvalues --   -0.84995  -0.82788  -0.79531  -0.76596  -0.76009
 Alpha  occ. eigenvalues --   -0.75341  -0.73791  -0.72874  -0.72476  -0.71427
 Alpha  occ. eigenvalues --   -0.70379  -0.69588  -0.69123  -0.68768  -0.66755
 Alpha  occ. eigenvalues --   -0.64768  -0.64037  -0.62189  -0.61772  -0.60971
 Alpha  occ. eigenvalues --   -0.60080  -0.59365  -0.59042  -0.58424  -0.58228
 Alpha  occ. eigenvalues --   -0.57601  -0.57167  -0.56469  -0.56227  -0.55693
 Alpha  occ. eigenvalues --   -0.55271  -0.54051  -0.53494  -0.53043  -0.52459
 Alpha  occ. eigenvalues --   -0.52232  -0.51482  -0.51133  -0.50824  -0.50204
 Alpha  occ. eigenvalues --   -0.49704  -0.49656  -0.48986  -0.48661  -0.48049
 Alpha  occ. eigenvalues --   -0.47559  -0.47153  -0.46352  -0.46108  -0.45801
 Alpha  occ. eigenvalues --   -0.45094  -0.44783  -0.44506  -0.42496  -0.41712
 Alpha  occ. eigenvalues --   -0.41252  -0.40994  -0.39585  -0.39022  -0.38265
 Alpha  occ. eigenvalues --   -0.37731  -0.37023  -0.36765  -0.36487  -0.34137
 Alpha  occ. eigenvalues --   -0.33655  -0.32383
 Alpha virt. eigenvalues --   -0.11445  -0.10194  -0.09833  -0.09380  -0.07622
 Alpha virt. eigenvalues --   -0.05071  -0.04405  -0.03848  -0.02439  -0.01510
 Alpha virt. eigenvalues --   -0.01157  -0.00573  -0.00258   0.00714   0.01266

 Mulliken charges:
               1
     1  N   -0.752548
     2  H    0.414292
     3  H    0.424829
     4  H    0.410318
     5  C   -0.105830
     6  H    0.241280
     7  C    0.628962
     8  C   -0.297646
     9  H    0.165995
    10  H    0.176407
    11  O   -0.556453
    12  C   -0.356443
    13  H    0.185292
    14  H    0.158560
    15  C    0.607578
    16  O   -0.628559
    17  O   -0.559226
    18  N   -0.619182
    19  H    0.406334
    20  C   -0.045572
    21  H    0.180205
    22  C    0.616042
    23  C   -0.260282
    24  H    0.150098
    25  H    0.165723
    26  O   -0.557847
    27  C   -0.067783
    28  H    0.106260
    29  C   -0.447181
    30  H    0.153495
    31  H    0.154616
    32  H    0.146513
    33  C   -0.459704
    34  H    0.145491
    35  H    0.165790
    36  H    0.153591
    37  N   -0.596344
    38  H    0.364821
    39  C   -0.058180
    40  H    0.204570
    41  C    0.589666
    42  C   -0.277619
    43  H    0.178703
    44  H    0.165963
    45  O   -0.454470
    46  C   -0.266920
    47  H    0.160641
    48  H    0.155232
    49  C   -0.180617
    50  H    0.191419
    51  H    0.179497
    52  N   -0.588237
    53  H    0.344218
    54  N   -0.796190
    55  H    0.405736
    56  H    0.414740
    57  N   -0.756006
    58  H    0.404698
    59  H    0.341511
    60  C    0.750966
    61  O   -0.555651
    62  H    0.434440
 Sum of Mulliken charges =   1.00000

 Dipole moment (field-independent basis, Debye):
    X=              1.4057    Y=              2.3011    Z=            -11.1350  Tot=             11.4569
 Quadrupole moment (field-independent basis, Debye-Ang):
   XX=            -77.5750   YY=           -145.7282   ZZ=           -117.5722
   XY=             53.6013   XZ=             14.7654   YZ=              0.9951

 Normal termination of Gaussian 16 at Wed Jun  1 02:12:50 2022.
