 Gaussian 16, Revision C.01,
 Gaussian 16:  ES64L-G16RevC.01  3-Jul-2019

 ----------------------------------------------------------------------
 # B3LYP/6-31G* empiricaldispersion=gd3 guess=read geom=check nosymm in
 tegral(ultrafinegrid)
 ----------------------------------------------------------------------

 ------------------------------------------------------
 Candidate Structure: Conf:966 Charge calc in gas phase
 ------------------------------------------------------
 Structure from the checkpoint file:  "conf-966.chk"
 Charge =  1 Multiplicity = 1

                          Input orientation:
 ---------------------------------------------------------------------
 Center     Atomic      Atomic             Coordinates (Angstroms)
 Number     Number       Type             X           Y           Z
 ---------------------------------------------------------------------
      1          7           0       -2.462155   -0.026633   -3.753210
      2          1           0       -2.435038   -1.046319   -3.736691
      3          1           0       -3.357375    0.233143   -3.335857
      4          1           0       -1.696964    0.543844   -5.371248
      5          6           0       -1.374956    0.519528   -2.931157
      6          1           0       -0.436085    0.195097   -3.397768
      7          6           0       -1.387431    0.089806   -1.459858
      8          6           0       -1.444592    2.062223   -2.933826
      9          1           0       -0.559118    2.446786   -2.416430
     10          1           0       -2.317917    2.371228   -2.348901
     11          8           0       -2.421018    0.080258   -0.804746
     12          6           0       -1.534646    2.684714   -4.346637
     13          1           0       -2.539129    2.547321   -4.755929
     14          1           0       -1.332857    3.757069   -4.290862
     15          6           0       -0.514508    2.036757   -5.265709
     16          8           0       -0.864559    0.883925   -5.815000
     17          8           0        0.612366    2.494301   -5.445977
     18          7           0       -0.147375   -0.175627   -0.958474
     19          1           0        0.658002   -0.081990   -1.564047
     20          6           0        0.165040   -0.162720    0.459919
     21          1           0       -0.769762    0.060636    0.980613
     22          6           0        1.207116    0.953035    0.674929
     23          6           0        0.724668   -1.527923    0.920230
     24          1           0        1.635150   -1.730101    0.340407
     25          1           0       -0.014179   -2.284006    0.626467
     26          8           0        2.046806    1.190469   -0.207160
     27          6           0        1.029216   -1.670092    2.424039
     28          1           0        1.767255   -0.903895    2.704957
     29          6           0       -0.223573   -1.483418    3.294674
     30          1           0       -0.995124   -2.214209    3.023462
     31          1           0        0.015220   -1.627063    4.353603
     32          1           0       -0.676713   -0.488069    3.198713
     33          6           0        1.664059   -3.043310    2.690652
     34          1           0        0.968811   -3.850711    2.429651
     35          1           0        2.577932   -3.183031    2.102075
     36          1           0        1.923475   -3.156164    3.748724
     37          7           0        1.115156    1.590406    1.861447
     38          1           0        0.377462    1.271804    2.478173
     39          6           0        2.044274    2.537978    2.504692
     40          1           0        2.620048    1.974222    3.255019
     41          6           0        1.228317    3.563393    3.305509
     42          6           0        3.040989    3.228207    1.571042
     43          1           0        3.673935    2.452908    1.134097
     44          1           0        3.675179    3.858598    2.202203
     45          8           0        1.493970    4.736724    3.395416
     46          6           0        2.399453    4.075211    0.461227
     47          1           0        1.505491    3.575868    0.077275
     48          1           0        2.080687    5.042667    0.860588
     49          6           0        3.383506    4.268810   -0.699016
     50          1           0        3.858443    3.318440   -0.960209
     51          1           0        4.187619    4.958926   -0.427450
     52          7           0        2.753334    4.794833   -1.915338
     53          1           0        2.611408    5.794323   -1.977532
     54          7           0        2.076670    2.713101   -2.729685
     55          1           0        1.785247    2.181902   -3.542698
     56          1           0        2.162360    2.230704   -1.832877
     57          7           0        1.695075    4.619788   -3.976764
     58          1           0        1.250157    4.015929   -4.681418
     59          1           0        2.042241    5.522781   -4.268023
     60          6           0        2.179912    4.041692   -2.866278
     61          8           0        0.193426    2.970097    3.942471
     62          1           0       -0.272884    3.654715    4.459886
 ---------------------------------------------------------------------

 SCF Done:  E(RB3LYP) =  -1447.51897686     A.U. after    1 cycles

 Alpha  occ. eigenvalues --  -19.31269 -19.28931 -19.25544 -19.25280 -19.24740
 Alpha  occ. eigenvalues --  -19.22075 -14.51489 -14.50038 -14.49524 -14.49200
 Alpha  occ. eigenvalues --  -14.46846 -14.45153 -10.47044 -10.43641 -10.43403
 Alpha  occ. eigenvalues --  -10.41706 -10.39173 -10.36452 -10.35403 -10.34443
 Alpha  occ. eigenvalues --  -10.34218 -10.31596 -10.31342 -10.30332 -10.30195
 Alpha  occ. eigenvalues --  -10.28518 -10.28435 -10.26455 -10.25484  -1.22086
 Alpha  occ. eigenvalues --   -1.20706  -1.16257  -1.15489  -1.13991  -1.13281
 Alpha  occ. eigenvalues --   -1.12360  -1.05515  -1.05122  -1.03534  -1.02942
 Alpha  occ. eigenvalues --   -1.01634  -0.92657  -0.91023  -0.90455  -0.87942
 Alpha  occ. eigenvalues --   -0.85348  -0.81973  -0.81268  -0.77521  -0.77093
 Alpha  occ. eigenvalues --   -0.75679  -0.74526  -0.73963  -0.73030  -0.71684
 Alpha  occ. eigenvalues --   -0.70811  -0.69398  -0.68914  -0.68113  -0.66717
 Alpha  occ. eigenvalues --   -0.65094  -0.64267  -0.63866  -0.63539  -0.62613
 Alpha  occ. eigenvalues --   -0.61885  -0.61577  -0.60224  -0.59395  -0.58836
 Alpha  occ. eigenvalues --   -0.58288  -0.57722  -0.57227  -0.57117  -0.56737
 Alpha  occ. eigenvalues --   -0.55640  -0.55364  -0.54621  -0.53903  -0.53457
 Alpha  occ. eigenvalues --   -0.53038  -0.52708  -0.51937  -0.51721  -0.51370
 Alpha  occ. eigenvalues --   -0.50476  -0.49916  -0.49760  -0.48836  -0.48150
 Alpha  occ. eigenvalues --   -0.47734  -0.47467  -0.46804  -0.46606  -0.46471
 Alpha  occ. eigenvalues --   -0.45823  -0.45601  -0.44917  -0.43364  -0.42528
 Alpha  occ. eigenvalues --   -0.42289  -0.41856  -0.41819  -0.41462  -0.40443
 Alpha  occ. eigenvalues --   -0.39841  -0.39373  -0.38884  -0.38465  -0.37131
 Alpha  occ. eigenvalues --   -0.36044  -0.35137
 Alpha virt. eigenvalues --   -0.11506  -0.11188  -0.10892  -0.10290  -0.08532
 Alpha virt. eigenvalues --   -0.06814  -0.04828  -0.04440  -0.02511  -0.02044
 Alpha virt. eigenvalues --   -0.01775  -0.00559  -0.00299   0.00507   0.00950

 Mulliken charges:
               1
     1  N   -0.755939
     2  H    0.343166
     3  H    0.344895
     4  H    0.457002
     5  C   -0.101205
     6  H    0.153654
     7  C    0.605243
     8  C   -0.291945
     9  H    0.152671
    10  H    0.191294
    11  O   -0.508966
    12  C   -0.368383
    13  H    0.191240
    14  H    0.179062
    15  C    0.601942
    16  O   -0.550881
    17  O   -0.503573
    18  N   -0.591080
    19  H    0.332742
    20  C   -0.089182
    21  H    0.193363
    22  C    0.642811
    23  C   -0.252015
    24  H    0.149273
    25  H    0.167883
    26  O   -0.579852
    27  C   -0.093879
    28  H    0.121675
    29  C   -0.458542
    30  H    0.166187
    31  H    0.166407
    32  H    0.127332
    33  C   -0.445347
    34  H    0.156001
    35  H    0.151616
    36  H    0.159005
    37  N   -0.617685
    38  H    0.377919
    39  C   -0.057360
    40  H    0.208978
    41  C    0.607138
    42  C   -0.273713
    43  H    0.176835
    44  H    0.182338
    45  O   -0.437134
    46  C   -0.271245
    47  H    0.146208
    48  H    0.181593
    49  C   -0.177863
    50  H    0.192053
    51  H    0.193115
    52  N   -0.597612
    53  H    0.359965
    54  N   -0.819663
    55  H    0.385850
    56  H    0.432355
    57  N   -0.796665
    58  H    0.422700
    59  H    0.364901
    60  C    0.795976
    61  O   -0.579039
    62  H    0.436379
 Sum of Mulliken charges =   1.00000

 Dipole moment (field-independent basis, Debye):
    X=              4.6951    Y=             13.0698    Z=             -4.2044  Tot=             14.5100
 Quadrupole moment (field-independent basis, Debye-Ang):
   XX=           -146.6761   YY=            -98.3081   ZZ=           -127.2345
   XY=             25.3598   XZ=              5.9463   YZ=            -28.9397

 Normal termination of Gaussian 16 at Wed Jun  1 02:11:56 2022.
