 Gaussian 16, Revision C.01,
 Gaussian 16:  ES64L-G16RevC.01  3-Jul-2019

 ----------------------------------------------------------------------
 # B3LYP/6-31G* empiricaldispersion=gd3 guess=read geom=check nosymm in
 tegral(ultrafinegrid)
 ----------------------------------------------------------------------

 -----------------------------------------------------
 Candidate Structure: Conf:18 Charge calc in gas phase
 -----------------------------------------------------
 Structure from the checkpoint file:  "conf-18.chk"
 Charge =  1 Multiplicity = 1

                          Input orientation:
 ---------------------------------------------------------------------
 Center     Atomic      Atomic             Coordinates (Angstroms)
 Number     Number       Type             X           Y           Z
 ---------------------------------------------------------------------
      1          7           0       -1.409889   -0.306198   -4.292448
      2          1           0       -2.077403   -1.068794   -4.440672
      3          1           0       -1.895103    0.460515   -3.749888
      4          1           0       -1.081494    0.032546   -5.201091
      5          6           0       -0.264766   -0.676980   -3.360622
      6          1           0       -0.123178   -1.759755   -3.403385
      7          6           0       -0.791313   -0.181020   -1.990777
      8          6           0        0.996463    0.099361   -3.787601
      9          1           0        0.852237    1.168562   -3.592934
     10          1           0        1.119242   -0.016724   -4.874118
     11          8           0       -1.667556    0.695820   -2.003997
     12          6           0        2.294931   -0.336007   -3.099152
     13          1           0        2.154408   -0.548134   -2.035395
     14          1           0        2.710563   -1.241432   -3.551312
     15          6           0        3.363716    0.788857   -3.123611
     16          8           0        2.982430    1.962275   -3.310689
     17          8           0        4.543764    0.382071   -2.881012
     18          7           0       -0.230237   -0.702073   -0.898503
     19          1           0        0.563223   -1.328773   -1.008063
     20          6           0       -0.230388   -0.018854    0.405820
     21          1           0       -0.862149    0.865056    0.304674
     22          6           0        1.244448    0.370516    0.622027
     23          6           0       -0.734866   -0.931537    1.533680
     24          1           0       -0.691167   -0.355475    2.468378
     25          1           0       -0.025078   -1.761643    1.644999
     26          8           0        2.133825   -0.398950    0.251023
     27          6           0       -2.159457   -1.481188    1.333477
     28          1           0       -2.155493   -2.085550    0.414267
     29          6           0       -2.523597   -2.402542    2.506500
     30          1           0       -2.554160   -1.840635    3.448451
     31          1           0       -3.510426   -2.853857    2.357099
     32          1           0       -1.795439   -3.213637    2.623379
     33          6           0       -3.200219   -0.363642    1.166886
     34          1           0       -3.184710    0.315083    2.029740
     35          1           0       -3.032163    0.229619    0.261228
     36          1           0       -4.208956   -0.785887    1.100577
     37          7           0        1.488486    1.567638    1.186683
     38          1           0        0.743229    2.169824    1.515898
     39          6           0        2.847970    2.085450    1.266229
     40          1           0        3.519898    1.242240    1.447900
     41          6           0        2.901871    3.050061    2.438130
     42          6           0        3.257620    2.794543   -0.056514
     43          1           0        2.897021    3.832392   -0.033342
     44          1           0        2.733419    2.305087   -0.881424
     45          8           0        1.926789    3.532695    2.971906
     46          6           0        4.762220    2.747499   -0.343355
     47          1           0        5.329668    3.109298    0.523225
     48          1           0        5.053857    1.707667   -0.532303
     49          6           0        5.096268    3.591495   -1.579349
     50          1           0        4.787265    4.632011   -1.424683
     51          1           0        4.554077    3.214953   -2.452408
     52          7           0        6.533860    3.621586   -1.875145
     53          1           0        7.120948    4.125481   -1.223070
     54          7           0        6.581700    1.855581   -3.399008
     55          1           0        7.088226    1.413688   -4.154921
     56          1           0        5.645054    1.348332   -3.113553
     57          7           0        8.507287    3.101319   -2.943104
     58          1           0        9.034699    2.517799   -3.576298
     59          1           0        8.830749    4.055680   -2.864769
     60          6           0        7.179296    2.836857   -2.754761
     61          8           0        4.169957    3.349175    2.780934
     62          1           0        4.124249    3.999734    3.508319
 ---------------------------------------------------------------------

 SCF Done:  E(RB3LYP) =  -1447.48343651     A.U. after    2 cycles

 Alpha  occ. eigenvalues --  -19.28817 -19.26063 -19.23143 -19.21318 -19.16209
 Alpha  occ. eigenvalues --  -19.15686 -14.59298 -14.48869 -14.47484 -14.47266
 Alpha  occ. eigenvalues --  -14.45876 -14.44364 -10.42897 -10.42820 -10.41160
 Alpha  occ. eigenvalues --  -10.39509 -10.38537 -10.34193 -10.33769 -10.32713
 Alpha  occ. eigenvalues --  -10.30771 -10.30301 -10.27737 -10.27166 -10.27115
 Alpha  occ. eigenvalues --  -10.26562 -10.26437 -10.24710 -10.24456  -1.19721
 Alpha  occ. eigenvalues --   -1.18468  -1.13652  -1.12975  -1.11383  -1.10824
 Alpha  occ. eigenvalues --   -1.09237  -1.05482  -1.02295  -1.01133  -1.00683
 Alpha  occ. eigenvalues --   -0.98633  -0.92406  -0.89882  -0.88606  -0.85257
 Alpha  occ. eigenvalues --   -0.83673  -0.82012  -0.77631  -0.75900  -0.75465
 Alpha  occ. eigenvalues --   -0.74375  -0.73156  -0.72879  -0.72165  -0.70263
 Alpha  occ. eigenvalues --   -0.69854  -0.68926  -0.68157  -0.67559  -0.66014
 Alpha  occ. eigenvalues --   -0.65501  -0.63621  -0.62304  -0.61001  -0.60747
 Alpha  occ. eigenvalues --   -0.59296  -0.58445  -0.57906  -0.57551  -0.56818
 Alpha  occ. eigenvalues --   -0.56407  -0.56040  -0.55336  -0.54694  -0.54193
 Alpha  occ. eigenvalues --   -0.53407  -0.53019  -0.52629  -0.52184  -0.51829
 Alpha  occ. eigenvalues --   -0.51224  -0.50539  -0.49557  -0.48924  -0.48682
 Alpha  occ. eigenvalues --   -0.48176  -0.47581  -0.47206  -0.47026  -0.46438
 Alpha  occ. eigenvalues --   -0.45814  -0.45585  -0.45220  -0.44386  -0.44228
 Alpha  occ. eigenvalues --   -0.43067  -0.42079  -0.41522  -0.40948  -0.40845
 Alpha  occ. eigenvalues --   -0.40596  -0.40546  -0.40017  -0.38738  -0.38103
 Alpha  occ. eigenvalues --   -0.36912  -0.35965  -0.35004  -0.34531  -0.31675
 Alpha  occ. eigenvalues --   -0.31260  -0.29946
 Alpha virt. eigenvalues --   -0.11785  -0.10123  -0.08092  -0.07527  -0.07291
 Alpha virt. eigenvalues --   -0.05506  -0.04451  -0.03391  -0.01395  -0.01091
 Alpha virt. eigenvalues --   -0.00736  -0.00306   0.00191   0.00627   0.00694

 Mulliken charges:
               1
     1  N   -0.749073
     2  H    0.413364
     3  H    0.430036
     4  H    0.413309
     5  C   -0.119525
     6  H    0.205624
     7  C    0.651644
     8  C   -0.290493
     9  H    0.208418
    10  H    0.156548
    11  O   -0.536995
    12  C   -0.401000
    13  H    0.192442
    14  H    0.164497
    15  C    0.620694
    16  O   -0.566952
    17  O   -0.623723
    18  N   -0.573520
    19  H    0.365349
    20  C   -0.102652
    21  H    0.193521
    22  C    0.643537
    23  C   -0.265636
    24  H    0.156943
    25  H    0.159995
    26  O   -0.533373
    27  C   -0.069292
    28  H    0.120223
    29  C   -0.445589
    30  H    0.152507
    31  H    0.155543
    32  H    0.149331
    33  C   -0.470291
    34  H    0.148326
    35  H    0.158681
    36  H    0.156685
    37  N   -0.612601
    38  H    0.356699
    39  C   -0.034890
    40  H    0.211588
    41  C    0.583289
    42  C   -0.291950
    43  H    0.146513
    44  H    0.197009
    45  O   -0.459956
    46  C   -0.279178
    47  H    0.148866
    48  H    0.181065
    49  C   -0.188940
    50  H    0.159259
    51  H    0.241075
    52  N   -0.598058
    53  H    0.345916
    54  N   -0.781122
    55  H    0.341578
    56  H    0.464331
    57  N   -0.764451
    58  H    0.361323
    59  H    0.361401
    60  C    0.776325
    61  O   -0.560133
    62  H    0.425937
 Sum of Mulliken charges =   1.00000

 Dipole moment (field-independent basis, Debye):
    X=             10.8640    Y=              4.9504    Z=            -13.3837  Tot=             17.9348
 Quadrupole moment (field-independent basis, Debye-Ang):
   XX=            -24.9165   YY=           -134.4623   ZZ=            -90.6486
   XY=             74.7350   XZ=            -17.6796   YZ=              4.0317

 Normal termination of Gaussian 16 at Wed Jun  1 02:12:12 2022.
