 Gaussian 16, Revision C.01,
 Gaussian 16:  ES64L-G16RevC.01  3-Jul-2019

 ----------------------------------------------------------------------
 # B3LYP/6-31G* empiricaldispersion=gd3 guess=read geom=check nosymm in
 tegral(ultrafinegrid)
 ----------------------------------------------------------------------

 ------------------------------------------------------
 Candidate Structure: Conf:746 Charge calc in gas phase
 ------------------------------------------------------
 Structure from the checkpoint file:  "conf-746.chk"
 Charge =  1 Multiplicity = 1

                          Input orientation:
 ---------------------------------------------------------------------
 Center     Atomic      Atomic             Coordinates (Angstroms)
 Number     Number       Type             X           Y           Z
 ---------------------------------------------------------------------
      1          7           0       -2.171761    0.478137   -4.241566
      2          1           0       -2.978124    0.141943   -4.763177
      3          1           0       -2.413964    1.353007   -3.774962
      4          1           0       -0.919357    0.751454   -5.119839
      5          6           0       -1.727908   -0.515780   -3.243049
      6          1           0       -2.568814   -1.143758   -2.918632
      7          6           0       -1.194831    0.248758   -2.020484
      8          6           0       -0.639147   -1.435511   -3.848574
      9          1           0       -1.012580   -1.816957   -4.807112
     10          1           0       -0.528482   -2.312435   -3.199887
     11          8           0       -0.995034    1.462320   -2.059479
     12          6           0        0.763150   -0.822229   -4.020222
     13          1           0        1.128536   -0.422967   -3.064148
     14          1           0        1.468873   -1.618935   -4.276296
     15          6           0        0.991395    0.256246   -5.070006
     16          8           0        2.152307    0.508658   -5.423395
     17          8           0       -0.003539    0.928017   -5.591352
     18          7           0       -0.958788   -0.498255   -0.916842
     19          1           0       -1.004368   -1.506599   -0.977516
     20          6           0       -0.307811    0.082858    0.250437
     21          1           0       -0.917899    0.930007    0.578654
     22          6           0        1.100183    0.571504   -0.133118
     23          6           0       -0.211568   -0.982847    1.358880
     24          1           0        0.404054   -1.806360    0.971337
     25          1           0       -1.221000   -1.381349    1.531979
     26          8           0        1.819893   -0.074199   -0.891370
     27          6           0        0.375362   -0.504133    2.701357
     28          1           0        1.372795   -0.084114    2.517176
     29          6           0       -0.484319    0.583613    3.361974
     30          1           0       -1.501296    0.217232    3.550519
     31          1           0       -0.053246    0.882734    4.322988
     32          1           0       -0.568768    1.491124    2.752349
     33          6           0        0.536597   -1.705586    3.644449
     34          1           0       -0.435487   -2.164067    3.866046
     35          1           0        1.180369   -2.476196    3.205162
     36          1           0        0.982848   -1.397208    4.595958
     37          7           0        1.496052    1.723206    0.466378
     38          1           0        0.868053    2.182769    1.110699
     39          6           0        2.868598    2.197295    0.393564
     40          1           0        3.489005    1.318972    0.172934
     41          6           0        3.363275    2.744712    1.732094
     42          6           0        3.097939    3.240067   -0.717396
     43          1           0        4.137821    3.575409   -0.639848
     44          1           0        2.462467    4.114950   -0.525585
     45          8           0        4.383322    3.378708    1.855263
     46          6           0        2.813297    2.673937   -2.111311
     47          1           0        3.379200    1.744562   -2.250564
     48          1           0        1.752592    2.414461   -2.207745
     49          6           0        3.194139    3.668907   -3.210047
     50          1           0        4.241960    3.979482   -3.092440
     51          1           0        2.564868    4.565902   -3.145468
     52          7           0        3.002750    3.040026   -4.518379
     53          1           0        2.869269    2.027293   -4.556936
     54          7           0        3.113507    4.995203   -5.773256
     55          1           0        2.945143    5.495176   -6.633251
     56          1           0        3.635330    5.474447   -5.055458
     57          7           0        2.447958    2.986171   -6.750556
     58          1           0        2.543743    3.355078   -7.684431
     59          1           0        2.192715    2.000911   -6.609985
     60          6           0        2.866271    3.672133   -5.682388
     61          8           0        2.545276    2.434392    2.766571
     62          1           0        2.953419    2.809776    3.570735
 ---------------------------------------------------------------------

 SCF Done:  E(RB3LYP) =  -1447.53172485     A.U. after    1 cycles

 Alpha  occ. eigenvalues --  -19.29604 -19.26547 -19.23392 -19.22945 -19.22738
 Alpha  occ. eigenvalues --  -19.21367 -14.50455 -14.48834 -14.48287 -14.46834
 Alpha  occ. eigenvalues --  -14.46163 -14.45715 -10.45774 -10.41776 -10.41676
 Alpha  occ. eigenvalues --  -10.39594 -10.38445 -10.34496 -10.34419 -10.33894
 Alpha  occ. eigenvalues --  -10.33281 -10.30477 -10.29270 -10.29125 -10.29016
 Alpha  occ. eigenvalues --  -10.28276 -10.27468 -10.25640 -10.24835  -1.20241
 Alpha  occ. eigenvalues --   -1.18631  -1.14825  -1.14377  -1.13171  -1.11261
 Alpha  occ. eigenvalues --   -1.09770  -1.03721  -1.03282  -1.02779  -1.02398
 Alpha  occ. eigenvalues --   -1.01853  -0.91211  -0.90196  -0.89285  -0.86336
 Alpha  occ. eigenvalues --   -0.84210  -0.80844  -0.79615  -0.76431  -0.76255
 Alpha  occ. eigenvalues --   -0.74866  -0.73678  -0.72868  -0.70961  -0.70157
 Alpha  occ. eigenvalues --   -0.69143  -0.68889  -0.68428  -0.68144  -0.64649
 Alpha  occ. eigenvalues --   -0.64420  -0.63157  -0.62591  -0.62295  -0.61297
 Alpha  occ. eigenvalues --   -0.60501  -0.59934  -0.58895  -0.58507  -0.58242
 Alpha  occ. eigenvalues --   -0.57643  -0.56972  -0.56557  -0.55685  -0.54700
 Alpha  occ. eigenvalues --   -0.54640  -0.54410  -0.53540  -0.52921  -0.52049
 Alpha  occ. eigenvalues --   -0.51387  -0.51303  -0.50475  -0.49950  -0.49444
 Alpha  occ. eigenvalues --   -0.49201  -0.48791  -0.48464  -0.47823  -0.46601
 Alpha  occ. eigenvalues --   -0.46562  -0.46308  -0.46054  -0.45824  -0.45396
 Alpha  occ. eigenvalues --   -0.44931  -0.44350  -0.43963  -0.41578  -0.41427
 Alpha  occ. eigenvalues --   -0.40967  -0.40937  -0.40730  -0.40125  -0.38702
 Alpha  occ. eigenvalues --   -0.38150  -0.37786  -0.37231  -0.36443  -0.36343
 Alpha  occ. eigenvalues --   -0.35044  -0.34641
 Alpha virt. eigenvalues --   -0.09610  -0.09244  -0.08678  -0.08543  -0.07461
 Alpha virt. eigenvalues --   -0.05958  -0.04096  -0.03094  -0.02514  -0.01582
 Alpha virt. eigenvalues --   -0.00447  -0.00130   0.00105   0.01557   0.02037

 Mulliken charges:
               1
     1  N   -0.800040
     2  H    0.347776
     3  H    0.363130
     4  H    0.482602
     5  C   -0.068863
     6  H    0.173559
     7  C    0.629541
     8  C   -0.296797
     9  H    0.172934
    10  H    0.162924
    11  O   -0.538048
    12  C   -0.407334
    13  H    0.240946
    14  H    0.201990
    15  C    0.605973
    16  O   -0.544564
    17  O   -0.588415
    18  N   -0.604904
    19  H    0.343422
    20  C   -0.031804
    21  H    0.171140
    22  C    0.646310
    23  C   -0.302027
    24  H    0.158351
    25  H    0.155252
    26  O   -0.543344
    27  C   -0.094245
    28  H    0.146828
    29  C   -0.445752
    30  H    0.154103
    31  H    0.159889
    32  H    0.124621
    33  C   -0.446243
    34  H    0.149936
    35  H    0.151977
    36  H    0.156925
    37  N   -0.599451
    38  H    0.354102
    39  C   -0.064006
    40  H    0.217598
    41  C    0.592757
    42  C   -0.265457
    43  H    0.181898
    44  H    0.150970
    45  O   -0.441892
    46  C   -0.324450
    47  H    0.177950
    48  H    0.190278
    49  C   -0.133950
    50  H    0.172126
    51  H    0.172679
    52  N   -0.638201
    53  H    0.411191
    54  N   -0.765926
    55  H    0.374873
    56  H    0.381682
    57  N   -0.779905
    58  H    0.361451
    59  H    0.416991
    60  C    0.812719
    61  O   -0.573168
    62  H    0.429391
 Sum of Mulliken charges =   1.00000

 Dipole moment (field-independent basis, Debye):
    X=              3.5316    Y=             10.1770    Z=            -15.1366  Tot=             18.5785
 Quadrupole moment (field-independent basis, Debye-Ang):
   XX=           -141.4136   YY=           -105.4156   ZZ=            -47.9566
   XY=             42.5929   XZ=            -25.1391   YZ=            -58.5465

 Normal termination of Gaussian 16 at Wed Jun  1 02:11:54 2022.
