 Gaussian 16, Revision C.01,
 Gaussian 16:  ES64L-G16RevC.01  3-Jul-2019

 ----------------------------------------------------------------------
 # B3LYP/6-31G* empiricaldispersion=gd3 guess=read geom=check nosymm in
 tegral(ultrafinegrid)
 ----------------------------------------------------------------------

 ------------------------------------------------------
 Candidate Structure: Conf:315 Charge calc in gas phase
 ------------------------------------------------------
 Structure from the checkpoint file:  "conf-315.chk"
 Charge =  1 Multiplicity = 1

                          Input orientation:
 ---------------------------------------------------------------------
 Center     Atomic      Atomic             Coordinates (Angstroms)
 Number     Number       Type             X           Y           Z
 ---------------------------------------------------------------------
      1          7           0       -2.133771    1.281375   -4.246548
      2          1           0       -2.611546    1.097153   -5.126887
      3          1           0       -2.799316    1.706242   -3.598327
      4          1           0       -0.742498    2.158334   -4.159073
      5          6           0       -1.635928    0.032560   -3.628812
      6          1           0       -2.441410   -0.710653   -3.526619
      7          6           0       -1.302128    0.417245   -2.166028
      8          6           0       -0.530404   -0.600626   -4.499213
      9          1           0       -1.013839   -1.223389   -5.260414
     10          1           0        0.061154   -1.302078   -3.901984
     11          8           0       -2.045406    1.208990   -1.590774
     12          6           0        0.404529    0.368944   -5.263093
     13          1           0        1.209713   -0.204388   -5.726678
     14          1           0       -0.162183    0.845600   -6.072216
     15          6           0        1.040416    1.496280   -4.461520
     16          8           0        2.261858    1.591624   -4.331710
     17          8           0        0.240022    2.403230   -3.953249
     18          7           0       -0.259866   -0.207123   -1.565927
     19          1           0        0.456728   -0.648321   -2.127828
     20          6           0        0.193497    0.172173   -0.232952
     21          1           0       -0.499948    0.933777    0.129122
     22          6           0        1.599053    0.763479   -0.388597
     23          6           0        0.222936   -1.028905    0.732756
     24          1           0        0.576691   -0.668865    1.709198
     25          1           0        0.975730   -1.742952    0.371920
     26          8           0        2.367748    0.356285   -1.263051
     27          6           0       -1.130210   -1.742260    0.908195
     28          1           0       -1.434118   -2.121346   -0.077891
     29          6           0       -0.960656   -2.943186    1.849808
     30          1           0       -0.669535   -2.613270    2.855269
     31          1           0       -1.898305   -3.501784    1.942962
     32          1           0       -0.190632   -3.634964    1.487983
     33          6           0       -2.228168   -0.794903    1.414873
     34          1           0       -1.932191   -0.328432    2.364243
     35          1           0       -2.454311   -0.000410    0.695863
     36          1           0       -3.156466   -1.347378    1.597178
     37          7           0        1.940992    1.725976    0.503268
     38          1           0        1.259355    2.081512    1.159762
     39          6           0        3.226332    2.402321    0.398629
     40          1           0        3.996344    1.638852    0.247480
     41          6           0        3.599021    3.162552    1.660169
     42          6           0        3.244085    3.350033   -0.825834
     43          1           0        2.536074    4.171529   -0.661544
     44          1           0        2.852641    2.749392   -1.651163
     45          8           0        4.696871    3.633662    1.844706
     46          6           0        4.633216    3.893320   -1.189007
     47          1           0        4.887166    4.767157   -0.581589
     48          1           0        5.398292    3.139858   -0.966569
     49          6           0        4.713280    4.263843   -2.677652
     50          1           0        5.668507    4.743823   -2.922967
     51          1           0        3.937432    4.985799   -2.946201
     52          7           0        4.504774    3.102544   -3.555795
     53          1           0        3.541322    2.869598   -3.816463
     54          7           0        6.640731    2.205891   -3.260412
     55          1           0        7.320975    1.493318   -3.479898
     56          1           0        7.008317    3.102910   -2.981982
     57          7           0        4.963788    0.957927   -4.276988
     58          1           0        5.580401    0.163130   -4.348454
     59          1           0        3.961790    0.822372   -4.426813
     60          6           0        5.367289    2.091795   -3.691309
     61          8           0        2.564568    3.305419    2.519318
     62          1           0        2.885308    3.827257    3.279985
 ---------------------------------------------------------------------

 SCF Done:  E(RB3LYP) =  -1447.52297859     A.U. after    1 cycles

 Alpha  occ. eigenvalues --  -19.29989 -19.27852 -19.25058 -19.23754 -19.21646
 Alpha  occ. eigenvalues --  -19.21401 -14.51078 -14.49369 -14.49280 -14.46296
 Alpha  occ. eigenvalues --  -14.45836 -14.45140 -10.46561 -10.43006 -10.42199
 Alpha  occ. eigenvalues --  -10.38859 -10.38553 -10.34859 -10.34200 -10.34134
 Alpha  occ. eigenvalues --  -10.32269 -10.31365 -10.31182 -10.29479 -10.29161
 Alpha  occ. eigenvalues --  -10.27076 -10.26273 -10.23960 -10.23765  -1.20644
 Alpha  occ. eigenvalues --   -1.20076  -1.15089  -1.13949  -1.13158  -1.11660
 Alpha  occ. eigenvalues --   -1.11625  -1.04291  -1.03303  -1.02877  -1.02329
 Alpha  occ. eigenvalues --   -1.01287  -0.91017  -0.90273  -0.88876  -0.86373
 Alpha  occ. eigenvalues --   -0.83768  -0.81234  -0.79933  -0.77254  -0.75069
 Alpha  occ. eigenvalues --   -0.74708  -0.73427  -0.72993  -0.72211  -0.70544
 Alpha  occ. eigenvalues --   -0.70021  -0.68877  -0.68182  -0.67931  -0.65007
 Alpha  occ. eigenvalues --   -0.64083  -0.63245  -0.63164  -0.62785  -0.61977
 Alpha  occ. eigenvalues --   -0.60592  -0.60128  -0.58456  -0.57816  -0.57618
 Alpha  occ. eigenvalues --   -0.57342  -0.56900  -0.56684  -0.55922  -0.55595
 Alpha  occ. eigenvalues --   -0.54784  -0.53801  -0.53402  -0.53023  -0.52760
 Alpha  occ. eigenvalues --   -0.52083  -0.51765  -0.50988  -0.49977  -0.49671
 Alpha  occ. eigenvalues --   -0.48922  -0.48755  -0.48152  -0.47710  -0.47383
 Alpha  occ. eigenvalues --   -0.46402  -0.46306  -0.45941  -0.45566  -0.45374
 Alpha  occ. eigenvalues --   -0.44905  -0.44542  -0.43426  -0.41897  -0.41777
 Alpha  occ. eigenvalues --   -0.41308  -0.40148  -0.39714  -0.39662  -0.39339
 Alpha  occ. eigenvalues --   -0.38745  -0.38085  -0.37738  -0.36224  -0.35799
 Alpha  occ. eigenvalues --   -0.35146  -0.34009
 Alpha virt. eigenvalues --   -0.10648  -0.10048  -0.09248  -0.08181  -0.07193
 Alpha virt. eigenvalues --   -0.06955  -0.03840  -0.03523  -0.02423  -0.01085
 Alpha virt. eigenvalues --   -0.00261   0.00228   0.00792   0.01751   0.02115

 Mulliken charges:
               1
     1  N   -0.789147
     2  H    0.337969
     3  H    0.369030
     4  H    0.470235
     5  C   -0.082094
     6  H    0.193896
     7  C    0.631403
     8  C   -0.309274
     9  H    0.179370
    10  H    0.167756
    11  O   -0.521718
    12  C   -0.372744
    13  H    0.181302
    14  H    0.187282
    15  C    0.619704
    16  O   -0.522536
    17  O   -0.569859
    18  N   -0.601501
    19  H    0.345830
    20  C   -0.093987
    21  H    0.192543
    22  C    0.647830
    23  C   -0.258135
    24  H    0.143870
    25  H    0.145636
    26  O   -0.558088
    27  C   -0.066577
    28  H    0.127315
    29  C   -0.444844
    30  H    0.147148
    31  H    0.155938
    32  H    0.143511
    33  C   -0.472647
    34  H    0.138361
    35  H    0.172298
    36  H    0.156036
    37  N   -0.620544
    38  H    0.361376
    39  C   -0.039037
    40  H    0.199903
    41  C    0.595228
    42  C   -0.291822
    43  H    0.161385
    44  H    0.184852
    45  O   -0.449169
    46  C   -0.271339
    47  H    0.185510
    48  H    0.157382
    49  C   -0.192907
    50  H    0.168041
    51  H    0.196430
    52  N   -0.603568
    53  H    0.405686
    54  N   -0.755747
    55  H    0.374392
    56  H    0.382125
    57  N   -0.777572
    58  H    0.363628
    59  H    0.415243
    60  C    0.803299
    61  O   -0.575908
    62  H    0.432023
 Sum of Mulliken charges =   1.00000

 Dipole moment (field-independent basis, Debye):
    X=             14.0484    Y=              6.2501    Z=            -14.6907  Tot=             21.2659
 Quadrupole moment (field-independent basis, Debye-Ang):
   XX=            -63.7198   YY=           -139.0727   ZZ=            -86.5651
   XY=             36.9236   XZ=            -41.6625   YZ=             -8.4444

 Normal termination of Gaussian 16 at Wed Jun  1 02:11:51 2022.
