 Gaussian 16, Revision C.01,
 Gaussian 16:  ES64L-G16RevC.01  3-Jul-2019

 ----------------------------------------------------------------------
 # B3LYP/6-31G* empiricaldispersion=gd3 guess=read geom=check nosymm in
 tegral(ultrafinegrid)
 ----------------------------------------------------------------------

 ------------------------------------------------------
 Candidate Structure: Conf:477 Charge calc in gas phase
 ------------------------------------------------------
 Structure from the checkpoint file:  "conf-477.chk"
 Charge =  1 Multiplicity = 1

                          Input orientation:
 ---------------------------------------------------------------------
 Center     Atomic      Atomic             Coordinates (Angstroms)
 Number     Number       Type             X           Y           Z
 ---------------------------------------------------------------------
      1          7           0       -2.986365   -0.725606   -4.036150
      2          1           0       -3.699049   -1.403058   -4.315239
      3          1           0       -3.314662   -0.097957   -3.243952
      4          1           0       -2.746942   -0.142894   -4.845684
      5          6           0       -1.744992   -1.356018   -3.426956
      6          1           0       -2.099656   -2.262505   -2.923890
      7          6           0       -1.403388   -0.364854   -2.276031
      8          6           0       -0.710325   -1.721871   -4.485067
      9          1           0       -1.176777   -2.445271   -5.165326
     10          1           0        0.093335   -2.258729   -3.971513
     11          8           0       -2.347582    0.348356   -1.884792
     12          6           0       -0.103402   -0.541625   -5.266761
     13          1           0       -0.147974   -0.709026   -6.345456
     14          1           0       -0.642700    0.402193   -5.083637
     15          6           0        1.371272   -0.253210   -4.882999
     16          8           0        2.054811    0.309228   -5.793357
     17          8           0        1.759678   -0.568826   -3.734732
     18          7           0       -0.201525   -0.448216   -1.720916
     19          1           0        0.593362   -0.792798   -2.287529
     20          6           0        0.106580    0.251048   -0.460705
     21          1           0       -0.490036    1.166885   -0.428975
     22          6           0        1.609923    0.550340   -0.458831
     23          6           0       -0.185243   -0.637494    0.769305
     24          1           0        0.202271   -0.109926    1.653056
     25          1           0        0.423095   -1.542130    0.655004
     26          8           0        2.422090   -0.347128   -0.649721
     27          6           0       -1.657218   -1.007084    1.025001
     28          1           0       -2.066010   -1.460716    0.110174
     29          6           0       -1.728180   -2.060696    2.141224
     30          1           0       -1.322969   -1.661095    3.079345
     31          1           0       -2.764541   -2.361730    2.330386
     32          1           0       -1.154606   -2.959371    1.885562
     33          6           0       -2.512440    0.217764    1.377719
     34          1           0       -2.122529    0.714893    2.275285
     35          1           0       -2.542646    0.944033    0.560630
     36          1           0       -3.545241   -0.080944    1.589587
     37          7           0        1.954337    1.841414   -0.210228
     38          1           0        1.254784    2.516250    0.077471
     39          6           0        3.337392    2.232966    0.011961
     40          1           0        3.880826    1.368408    0.408955
     41          6           0        3.340515    3.344297    1.053919
     42          6           0        4.039465    2.711440   -1.282376
     43          1           0        5.058269    3.023667   -1.023403
     44          1           0        3.513001    3.601703   -1.653527
     45          8           0        2.349029    3.925113    1.439451
     46          6           0        4.053766    1.626980   -2.361109
     47          1           0        4.586978    0.738868   -2.003102
     48          1           0        3.039175    1.283806   -2.576423
     49          6           0        4.663839    2.109695   -3.682099
     50          1           0        5.736061    2.328827   -3.595142
     51          1           0        4.193667    3.043249   -4.007478
     52          7           0        4.431566    1.137856   -4.748497
     53          1           0        3.453430    1.051226   -5.106709
     54          7           0        6.292099   -0.228762   -4.313394
     55          1           0        6.929405   -0.909682   -4.700844
     56          1           0        6.705845    0.474832   -3.721077
     57          7           0        4.667781   -0.853161   -5.863692
     58          1           0        4.988745   -1.809747   -5.810969
     59          1           0        3.688000   -0.709319   -6.131908
     60          6           0        5.128939    0.029361   -4.952948
     61          8           0        4.588749    3.626149    1.467485
     62          1           0        4.524883    4.359068    2.109864
 ---------------------------------------------------------------------

 SCF Done:  E(RB3LYP) =  -1447.49816461     A.U. after    1 cycles

 Alpha  occ. eigenvalues --  -19.28827 -19.25104 -19.23367 -19.20255 -19.18703
 Alpha  occ. eigenvalues --  -19.18565 -14.58735 -14.48740 -14.47111 -14.46482
 Alpha  occ. eigenvalues --  -14.46238 -14.45172 -10.43695 -10.41799 -10.41332
 Alpha  occ. eigenvalues --  -10.39363 -10.37664 -10.36897 -10.32999 -10.32802
 Alpha  occ. eigenvalues --  -10.32784 -10.31839 -10.29377 -10.28410 -10.27135
 Alpha  occ. eigenvalues --  -10.26826 -10.26652 -10.24213 -10.23980  -1.19842
 Alpha  occ. eigenvalues --   -1.17589  -1.12737  -1.12633  -1.12327  -1.11675
 Alpha  occ. eigenvalues --   -1.10976  -1.04035  -1.03012  -1.01806  -1.01681
 Alpha  occ. eigenvalues --   -1.00557  -0.92596  -0.89773  -0.88744  -0.85512
 Alpha  occ. eigenvalues --   -0.84474  -0.82513  -0.78434  -0.76194  -0.75076
 Alpha  occ. eigenvalues --   -0.74241  -0.74011  -0.73069  -0.71515  -0.70458
 Alpha  occ. eigenvalues --   -0.69681  -0.69310  -0.67846  -0.67538  -0.66205
 Alpha  occ. eigenvalues --   -0.65543  -0.63307  -0.62115  -0.61175  -0.60022
 Alpha  occ. eigenvalues --   -0.59481  -0.59056  -0.58985  -0.58323  -0.57332
 Alpha  occ. eigenvalues --   -0.56774  -0.56195  -0.55956  -0.55436  -0.54707
 Alpha  occ. eigenvalues --   -0.54345  -0.53708  -0.53036  -0.52779  -0.51852
 Alpha  occ. eigenvalues --   -0.51355  -0.50490  -0.50418  -0.49531  -0.49081
 Alpha  occ. eigenvalues --   -0.48767  -0.48485  -0.47999  -0.47361  -0.46685
 Alpha  occ. eigenvalues --   -0.46320  -0.46309  -0.45259  -0.45097  -0.44960
 Alpha  occ. eigenvalues --   -0.44415  -0.43663  -0.42628  -0.40908  -0.40573
 Alpha  occ. eigenvalues --   -0.40012  -0.39869  -0.39439  -0.39408  -0.37502
 Alpha  occ. eigenvalues --   -0.37053  -0.36088  -0.34607  -0.34368  -0.33887
 Alpha  occ. eigenvalues --   -0.33291  -0.32721
 Alpha virt. eigenvalues --   -0.11928  -0.09050  -0.08505  -0.07940  -0.06641
 Alpha virt. eigenvalues --   -0.05689  -0.05134  -0.03662  -0.02305  -0.01502
 Alpha virt. eigenvalues --   -0.00908  -0.00407   0.00613   0.01058   0.01466

 Mulliken charges:
               1
     1  N   -0.749350
     2  H    0.410777
     3  H    0.430841
     4  H    0.408526
     5  C   -0.133199
     6  H    0.227179
     7  C    0.646039
     8  C   -0.290034
     9  H    0.163220
    10  H    0.212347
    11  O   -0.557580
    12  C   -0.383181
    13  H    0.185568
    14  H    0.143557
    15  C    0.594942
    16  O   -0.609066
    17  O   -0.556437
    18  N   -0.623893
    19  H    0.418553
    20  C   -0.053561
    21  H    0.174678
    22  C    0.614269
    23  C   -0.254707
    24  H    0.149927
    25  H    0.166846
    26  O   -0.521156
    27  C   -0.074162
    28  H    0.107530
    29  C   -0.445345
    30  H    0.152506
    31  H    0.151491
    32  H    0.145122
    33  C   -0.458574
    34  H    0.145487
    35  H    0.163981
    36  H    0.149966
    37  N   -0.613976
    38  H    0.355173
    39  C   -0.043226
    40  H    0.204690
    41  C    0.584548
    42  C   -0.271722
    43  H    0.165925
    44  H    0.149311
    45  O   -0.459325
    46  C   -0.273977
    47  H    0.162086
    48  H    0.198064
    49  C   -0.186531
    50  H    0.151087
    51  H    0.182450
    52  N   -0.587476
    53  H    0.409139
    54  N   -0.755902
    55  H    0.369297
    56  H    0.372771
    57  N   -0.768395
    58  H    0.353007
    59  H    0.401106
    60  C    0.779242
    61  O   -0.559434
    62  H    0.428959
 Sum of Mulliken charges =   1.00000

 Dipole moment (field-independent basis, Debye):
    X=              5.2596    Y=             -1.5224    Z=            -17.1389  Tot=             17.9923
 Quadrupole moment (field-independent basis, Debye-Ang):
   XX=            -50.6191   YY=           -147.9041   ZZ=            -88.1135
   XY=             23.6795   XZ=             -7.9519   YZ=             25.3554

 Normal termination of Gaussian 16 at Wed Jun  1 02:11:52 2022.
