 Gaussian 16, Revision C.01,
 Gaussian 16:  ES64L-G16RevC.01  3-Jul-2019

 ----------------------------------------------------------------------
 # B3LYP/6-31G* empiricaldispersion=gd3 guess=read geom=check nosymm in
 tegral(ultrafinegrid)
 ----------------------------------------------------------------------

 ------------------------------------------------------
 Candidate Structure: Conf:962 Charge calc in gas phase
 ------------------------------------------------------
 Structure from the checkpoint file:  "conf-962.chk"
 Charge =  1 Multiplicity = 1

                          Input orientation:
 ---------------------------------------------------------------------
 Center     Atomic      Atomic             Coordinates (Angstroms)
 Number     Number       Type             X           Y           Z
 ---------------------------------------------------------------------
      1          7           0       -2.095907    0.865644   -4.315648
      2          1           0       -2.435174    0.510858   -5.207297
      3          1           0       -2.888488    1.205593   -3.769877
      4          1           0       -0.985720    2.014321   -4.240619
      5          6           0       -1.401258   -0.192016   -3.558606
      6          1           0       -1.979063   -1.128952   -3.560899
      7          6           0       -1.314622    0.264770   -2.084112
      8          6           0       -0.034092   -0.494064   -4.209506
      9          1           0       -0.236351   -0.716409   -5.263555
     10          1           0        0.349751   -1.433211   -3.798075
     11          8           0       -1.956554    1.232526   -1.681105
     12          6           0        1.108881    0.568715   -4.114861
     13          1           0        1.931982    0.165850   -3.523648
     14          1           0        1.499011    0.764777   -5.121221
     15          6           0        0.844809    1.945354   -3.515796
     16          8           0       -0.238938    2.622514   -3.859542
     17          8           0        1.675325    2.475457   -2.777796
     18          7           0       -0.517706   -0.504335   -1.300240
     19          1           0        0.126754   -1.138773   -1.757289
     20          6           0       -0.057810   -0.075407    0.012229
     21          1           0       -0.563734    0.868347    0.230692
     22          6           0        1.458488    0.174408   -0.100817
     23          6           0       -0.371591   -1.113007    1.108803
     24          1           0        0.004028   -0.728546    2.067763
     25          1           0        0.203270   -2.024980    0.897541
     26          8           0        2.120693   -0.276148   -1.033562
     27          6           0       -1.864236   -1.462990    1.251238
     28          1           0       -2.195232   -1.891564    0.294993
     29          6           0       -2.041758   -2.529885    2.340992
     30          1           0       -1.736861   -2.142238    3.321587
     31          1           0       -3.089815   -2.838935    2.417928
     32          1           0       -1.441582   -3.423401    2.132716
     33          6           0       -2.727536   -0.226395    1.542926
     34          1           0       -2.378382    0.287827    2.449016
     35          1           0       -2.718349    0.488317    0.712961
     36          1           0       -3.769410   -0.518571    1.714201
     37          7           0        1.995837    0.918773    0.896677
     38          1           0        1.418382    1.200401    1.675992
     39          6           0        3.395963    1.326902    0.877559
     40          1           0        3.987145    0.462690    0.548815
     41          6           0        3.892510    1.689114    2.274815
     42          6           0        3.644761    2.483535   -0.112285
     43          1           0        3.435381    2.105629   -1.116402
     44          1           0        4.702661    2.758226   -0.053865
     45          8           0        4.866138    2.373675    2.481831
     46          6           0        2.750154    3.693126    0.177854
     47          1           0        1.703095    3.368296    0.171075
     48          1           0        2.962667    4.101110    1.174496
     49          6           0        2.923576    4.797594   -0.871981
     50          1           0        2.885014    4.382925   -1.882271
     51          1           0        3.891611    5.294985   -0.770858
     52          7           0        1.897396    5.852257   -0.763665
     53          1           0        2.078952    6.592853   -0.099088
     54          7           0        0.237279    4.637630   -1.844619
     55          1           0       -0.685550    4.564578   -2.251064
     56          1           0        0.876131    3.870125   -2.123166
     57          7           0       -0.269698    6.678863   -0.856190
     58          1           0       -1.195677    6.650632   -1.258713
     59          1           0        0.054208    7.593492   -0.574926
     60          6           0        0.625062    5.709994   -1.170392
     61          8           0        3.131671    1.155430    3.259940
     62          1           0        3.544059    1.414418    4.106726
 ---------------------------------------------------------------------

 SCF Done:  E(RB3LYP) =  -1447.51963761     A.U. after    1 cycles

 Alpha  occ. eigenvalues --  -19.29552 -19.27238 -19.24087 -19.23466 -19.22393
 Alpha  occ. eigenvalues --  -19.21677 -14.51122 -14.50960 -14.48915 -14.46244
 Alpha  occ. eigenvalues --  -14.46032 -14.45654 -10.46949 -10.42337 -10.41802
 Alpha  occ. eigenvalues --  -10.39451 -10.38594 -10.34496 -10.34322 -10.33721
 Alpha  occ. eigenvalues --  -10.32787 -10.30927 -10.29960 -10.29266 -10.27907
 Alpha  occ. eigenvalues --  -10.27573 -10.26679 -10.24424 -10.24279  -1.20276
 Alpha  occ. eigenvalues --   -1.19393  -1.15371  -1.14407  -1.13412  -1.11284
 Alpha  occ. eigenvalues --   -1.10704  -1.04870  -1.03114  -1.03024  -1.02708
 Alpha  occ. eigenvalues --   -1.01810  -0.90861  -0.89990  -0.88780  -0.86298
 Alpha  occ. eigenvalues --   -0.83868  -0.81028  -0.80112  -0.76765  -0.75561
 Alpha  occ. eigenvalues --   -0.75040  -0.73217  -0.73203  -0.72697  -0.70295
 Alpha  occ. eigenvalues --   -0.69414  -0.68985  -0.68146  -0.67638  -0.65078
 Alpha  occ. eigenvalues --   -0.64358  -0.63461  -0.62981  -0.62382  -0.61536
 Alpha  occ. eigenvalues --   -0.59691  -0.59356  -0.58857  -0.58349  -0.57597
 Alpha  occ. eigenvalues --   -0.57262  -0.57002  -0.56376  -0.55934  -0.55766
 Alpha  occ. eigenvalues --   -0.54646  -0.54085  -0.53016  -0.52807  -0.52378
 Alpha  occ. eigenvalues --   -0.51631  -0.51240  -0.51050  -0.50467  -0.49496
 Alpha  occ. eigenvalues --   -0.49120  -0.48886  -0.48314  -0.47738  -0.47510
 Alpha  occ. eigenvalues --   -0.46626  -0.46370  -0.45728  -0.45296  -0.44975
 Alpha  occ. eigenvalues --   -0.44397  -0.43984  -0.43645  -0.41540  -0.41369
 Alpha  occ. eigenvalues --   -0.40925  -0.40725  -0.40166  -0.40130  -0.39357
 Alpha  occ. eigenvalues --   -0.38734  -0.37747  -0.37348  -0.36394  -0.36100
 Alpha  occ. eigenvalues --   -0.35480  -0.34445
 Alpha virt. eigenvalues --   -0.10761  -0.10457  -0.08918  -0.07683  -0.07578
 Alpha virt. eigenvalues --   -0.07245  -0.03911  -0.03577  -0.02843  -0.02258
 Alpha virt. eigenvalues --   -0.00748  -0.00269   0.00753   0.01073   0.01964

 Mulliken charges:
               1
     1  N   -0.781169
     2  H    0.342946
     3  H    0.359041
     4  H    0.469559
     5  C   -0.099583
     6  H    0.188307
     7  C    0.619348
     8  C   -0.298909
     9  H    0.169802
    10  H    0.177881
    11  O   -0.534437
    12  C   -0.383436
    13  H    0.227598
    14  H    0.197870
    15  C    0.614995
    16  O   -0.613337
    17  O   -0.515388
    18  N   -0.578744
    19  H    0.349405
    20  C   -0.103841
    21  H    0.185940
    22  C    0.645291
    23  C   -0.261712
    24  H    0.140211
    25  H    0.151016
    26  O   -0.536432
    27  C   -0.065449
    28  H    0.133064
    29  C   -0.445709
    30  H    0.145549
    31  H    0.156356
    32  H    0.148382
    33  C   -0.472269
    34  H    0.133121
    35  H    0.167612
    36  H    0.156844
    37  N   -0.617176
    38  H    0.349094
    39  C   -0.044468
    40  H    0.220570
    41  C    0.580476
    42  C   -0.287919
    43  H    0.205411
    44  H    0.176901
    45  O   -0.447702
    46  C   -0.277313
    47  H    0.147230
    48  H    0.155454
    49  C   -0.189258
    50  H    0.212456
    51  H    0.190007
    52  N   -0.596197
    53  H    0.356523
    54  N   -0.798913
    55  H    0.370714
    56  H    0.451526
    57  N   -0.763057
    58  H    0.374621
    59  H    0.373080
    60  C    0.812285
    61  O   -0.572310
    62  H    0.428243
 Sum of Mulliken charges =   1.00000

 Dipole moment (field-independent basis, Debye):
    X=             -0.4664    Y=             15.9229    Z=             -6.4648  Tot=             17.1916
 Quadrupole moment (field-independent basis, Debye-Ang):
   XX=           -160.2983   YY=            -49.5128   ZZ=           -118.6193
   XY=              9.8779   XZ=             17.7622   YZ=             -7.9815

 Normal termination of Gaussian 16 at Wed Jun  1 02:11:54 2022.
