 Gaussian 16, Revision C.01,
 Gaussian 16:  ES64L-G16RevC.01  3-Jul-2019

 ----------------------------------------------------------------------
 # B3LYP/6-31G* empiricaldispersion=gd3 guess=read geom=check nosymm in
 tegral(ultrafinegrid)
 ----------------------------------------------------------------------

 ------------------------------------------------------
 Candidate Structure: Conf:879 Charge calc in gas phase
 ------------------------------------------------------
 Structure from the checkpoint file:  "conf-879.chk"
 Charge =  1 Multiplicity = 1

                          Input orientation:
 ---------------------------------------------------------------------
 Center     Atomic      Atomic             Coordinates (Angstroms)
 Number     Number       Type             X           Y           Z
 ---------------------------------------------------------------------
      1          7           0       -1.267166   -0.286006   -4.405254
      2          1           0       -2.021110   -0.958797   -4.572918
      3          1           0       -1.674328    0.554883   -3.909362
      4          1           0       -0.849875   -0.024512   -5.302927
      5          6           0       -0.232946   -0.778063   -3.403280
      6          1           0       -0.260321   -1.870377   -3.392015
      7          6           0       -0.729156   -0.140010   -2.082758
      8          6           0        1.162723   -0.246570   -3.790582
      9          1           0        1.218325    0.827388   -3.580060
     10          1           0        1.293412   -0.380239   -4.874681
     11          8           0       -1.489366    0.836068   -2.172720
     12          6           0        2.324159   -0.951475   -3.079236
     13          1           0        2.189425   -0.940711   -1.993272
     14          1           0        2.422438   -1.986604   -3.418854
     15          6           0        3.651412   -0.195009   -3.333564
     16          8           0        3.614380    1.047978   -3.006378
     17          8           0        4.615670   -0.821779   -3.795384
     18          7           0       -0.262514   -0.657148   -0.945847
     19          1           0        0.451553   -1.379163   -0.992477
     20          6           0       -0.247771    0.086494    0.324841
     21          1           0       -0.812968    1.005286    0.161061
     22          6           0        1.244223    0.376257    0.576161
     23          6           0       -0.851693   -0.734501    1.473799
     24          1           0       -0.799588   -0.117600    2.381581
     25          1           0       -0.204060   -1.603157    1.649289
     26          8           0        2.074805   -0.501372    0.342095
     27          6           0       -2.303115   -1.196338    1.246251
     28          1           0       -2.309103   -1.847080    0.359307
     29          6           0       -2.771496   -2.028317    2.448706
     30          1           0       -2.796606   -1.417118    3.359625
     31          1           0       -3.781090   -2.419762    2.283579
     32          1           0       -2.105589   -2.879050    2.634101
     33          6           0       -3.257580   -0.021581    0.983811
     34          1           0       -3.227376    0.697584    1.812911
     35          1           0       -3.015782    0.513303    0.058401
     36          1           0       -4.289891   -0.377814    0.897078
     37          7           0        1.558711    1.610207    1.028649
     38          1           0        0.835476    2.303900    1.163458
     39          6           0        2.950176    2.048659    1.083494
     40          1           0        3.558965    1.154542    1.234953
     41          6           0        3.215776    2.989317    2.246674
     42          6           0        3.369817    2.724026   -0.249540
     43          1           0        2.949508    3.739424   -0.285121
     44          1           0        2.926468    2.147451   -1.067664
     45          8           0        4.320414    3.247967    2.663486
     46          6           0        4.886187    2.744392   -0.465898
     47          1           0        5.404960    3.138938    0.414621
     48          1           0        5.220896    1.710998   -0.613779
     49          6           0        5.253834    3.569557   -1.707203
     50          1           0        5.124806    4.639830   -1.519373
     51          1           0        4.602966    3.311440   -2.546351
     52          7           0        6.648515    3.377904   -2.131898
     53          1           0        7.349659    3.838692   -1.566368
     54          7           0        6.195210    1.437823   -3.321529
     55          1           0        6.474887    0.577783   -3.781300
     56          1           0        5.136937    1.431620   -3.145964
     57          7           0        8.402704    2.065756   -2.909375
     58          1           0        8.718863    1.354223   -3.553724
     59          1           0        9.029875    2.852318   -2.810802
     60          6           0        7.060350    2.275962   -2.800324
     61          8           0        2.085025    3.572345    2.713914
     62          1           0        2.352346    4.187419    3.423693
 ---------------------------------------------------------------------

 SCF Done:  E(RB3LYP) =  -1447.47965713     A.U. after    1 cycles

 Alpha  occ. eigenvalues --  -19.28993 -19.26583 -19.22855 -19.21721 -19.16307
 Alpha  occ. eigenvalues --  -19.15106 -14.59717 -14.49412 -14.47664 -14.47593
 Alpha  occ. eigenvalues --  -14.46514 -14.44090 -10.43334 -10.43031 -10.41162
 Alpha  occ. eigenvalues --  -10.39939 -10.39001 -10.34228 -10.33927 -10.33021
 Alpha  occ. eigenvalues --  -10.31864 -10.31635 -10.28098 -10.27596 -10.27509
 Alpha  occ. eigenvalues --  -10.27074 -10.26750 -10.25199 -10.24785  -1.19647
 Alpha  occ. eigenvalues --   -1.18965  -1.14024  -1.13398  -1.11674  -1.10662
 Alpha  occ. eigenvalues --   -1.08947  -1.05992  -1.02875  -1.01532  -1.00141
 Alpha  occ. eigenvalues --   -0.98808  -0.92955  -0.90316  -0.89067  -0.85731
 Alpha  occ. eigenvalues --   -0.84071  -0.82397  -0.78166  -0.76267  -0.75787
 Alpha  occ. eigenvalues --   -0.74644  -0.73570  -0.73465  -0.72056  -0.70897
 Alpha  occ. eigenvalues --   -0.70175  -0.69062  -0.68876  -0.68461  -0.66227
 Alpha  occ. eigenvalues --   -0.65840  -0.64060  -0.62861  -0.62184  -0.60819
 Alpha  occ. eigenvalues --   -0.58816  -0.58569  -0.58095  -0.57577  -0.57078
 Alpha  occ. eigenvalues --   -0.56582  -0.56284  -0.55760  -0.55282  -0.54633
 Alpha  occ. eigenvalues --   -0.53708  -0.53272  -0.52911  -0.52597  -0.51927
 Alpha  occ. eigenvalues --   -0.51597  -0.50683  -0.50214  -0.49407  -0.48948
 Alpha  occ. eigenvalues --   -0.48587  -0.47946  -0.47739  -0.47391  -0.46621
 Alpha  occ. eigenvalues --   -0.46442  -0.45976  -0.45822  -0.44728  -0.44312
 Alpha  occ. eigenvalues --   -0.43658  -0.42506  -0.42374  -0.41385  -0.41263
 Alpha  occ. eigenvalues --   -0.40958  -0.40812  -0.40513  -0.39194  -0.38011
 Alpha  occ. eigenvalues --   -0.37231  -0.36326  -0.35485  -0.34252  -0.31606
 Alpha  occ. eigenvalues --   -0.31248  -0.29316
 Alpha virt. eigenvalues --   -0.12172  -0.10586  -0.08276  -0.07739  -0.07332
 Alpha virt. eigenvalues --   -0.06027  -0.04494  -0.03720  -0.02335  -0.01486
 Alpha virt. eigenvalues --   -0.01241  -0.00429   0.00121   0.00439   0.01331

 Mulliken charges:
               1
     1  N   -0.751023
     2  H    0.414973
     3  H    0.429628
     4  H    0.413345
     5  C   -0.113971
     6  H    0.209933
     7  C    0.648691
     8  C   -0.301072
     9  H    0.201197
    10  H    0.163053
    11  O   -0.540052
    12  C   -0.377884
    13  H    0.185382
    14  H    0.159606
    15  C    0.596380
    16  O   -0.637879
    17  O   -0.562517
    18  N   -0.571240
    19  H    0.367557
    20  C   -0.103351
    21  H    0.188637
    22  C    0.648163
    23  C   -0.266529
    24  H    0.156277
    25  H    0.163556
    26  O   -0.528189
    27  C   -0.069873
    28  H    0.120747
    29  C   -0.445684
    30  H    0.152034
    31  H    0.156372
    32  H    0.151159
    33  C   -0.469081
    34  H    0.147289
    35  H    0.155418
    36  H    0.158205
    37  N   -0.609527
    38  H    0.352244
    39  C   -0.058956
    40  H    0.220425
    41  C    0.595862
    42  C   -0.297767
    43  H    0.138439
    44  H    0.205463
    45  O   -0.445381
    46  C   -0.274070
    47  H    0.172637
    48  H    0.168764
    49  C   -0.183071
    50  H    0.170729
    51  H    0.208419
    52  N   -0.597131
    53  H    0.347317
    54  N   -0.798176
    55  H    0.365056
    56  H    0.457809
    57  N   -0.761431
    58  H    0.368017
    59  H    0.360990
    60  C    0.794831
    61  O   -0.578337
    62  H    0.427591
 Sum of Mulliken charges =   1.00000

 Dipole moment (field-independent basis, Debye):
    X=              7.0753    Y=              6.3545    Z=            -12.7738  Tot=             15.9251
 Quadrupole moment (field-independent basis, Debye-Ang):
   XX=            -50.6990   YY=           -137.2797   ZZ=            -99.1007
   XY=             60.1607   XZ=            -16.7398   YZ=              0.7593

 Normal termination of Gaussian 16 at Wed Jun  1 02:11:52 2022.
