 Gaussian 16, Revision C.01,
 Gaussian 16:  ES64L-G16RevC.01  3-Jul-2019

 ----------------------------------------------------------------------
 # B3LYP/6-31G* empiricaldispersion=gd3 guess=read geom=check nosymm in
 tegral(ultrafinegrid)
 ----------------------------------------------------------------------

 ------------------------------------------------------
 Candidate Structure: Conf:549 Charge calc in gas phase
 ------------------------------------------------------
 Structure from the checkpoint file:  "conf-549.chk"
 Charge =  1 Multiplicity = 1

                          Input orientation:
 ---------------------------------------------------------------------
 Center     Atomic      Atomic             Coordinates (Angstroms)
 Number     Number       Type             X           Y           Z
 ---------------------------------------------------------------------
      1          7           0       -3.239456    0.588020   -3.849460
      2          1           0       -3.983800    0.057114   -4.307588
      3          1           0       -3.538809    0.964217   -2.911198
      4          1           0       -2.975100    1.374376   -4.453441
      5          6           0       -2.024267   -0.254928   -3.490437
      6          1           0       -2.433995   -1.230283   -3.204032
      7          6           0       -1.563434    0.387504   -2.149895
      8          6           0       -1.080838   -0.420404   -4.675519
      9          1           0       -1.656224   -0.876065   -5.491285
     10          1           0       -0.328814   -1.159534   -4.383641
     11          8           0       -2.459714    0.961924   -1.503259
     12          6           0       -0.362520    0.856106   -5.150654
     13          1           0       -0.442992    0.981616   -6.232962
     14          1           0       -0.794865    1.768586   -4.708449
     15          6           0        1.143020    0.888266   -4.788593
     16          8           0        1.847255    1.674395   -5.451350
     17          8           0        1.519611    0.130906   -3.835376
     18          7           0       -0.313202    0.188541   -1.745618
     19          1           0        0.423147   -0.064360   -2.437153
     20          6           0        0.076456    0.494822   -0.358466
     21          1           0       -0.656974    1.203690    0.031583
     22          6           0        1.480004    1.106016   -0.349529
     23          6           0        0.107810   -0.785040    0.505099
     24          1           0        0.486275   -0.506065    1.499011
     25          1           0        0.855118   -1.453621    0.062841
     26          8           0        2.447682    0.454553   -0.747263
     27          6           0       -1.236526   -1.515331    0.670345
     28          1           0       -1.633377   -1.731638   -0.333578
     29          6           0       -1.001162   -2.859289    1.376860
     30          1           0       -0.598820   -2.702715    2.385543
     31          1           0       -1.938294   -3.417612    1.477489
     32          1           0       -0.290163   -3.485873    0.826084
     33          6           0       -2.272870   -0.674487    1.430197
     34          1           0       -1.896607   -0.405930    2.425700
     35          1           0       -2.530120    0.245023    0.895924
     36          1           0       -3.199154   -1.242348    1.572391
     37          7           0        1.595097    2.352434    0.162295
     38          1           0        0.801375    2.838257    0.564078
     39          6           0        2.902113    2.957355    0.373035
     40          1           0        3.619695    2.156978    0.577771
     41          6           0        2.784816    3.853639    1.600618
     42          6           0        3.360663    3.774693   -0.869072
     43          1           0        2.796202    4.714680   -0.883340
     44          1           0        3.042842    3.216785   -1.754679
     45          8           0        1.733999    4.268986    2.036733
     46          6           0        4.871982    4.061967   -0.925076
     47          1           0        5.048953    4.937097   -1.562451
     48          1           0        5.244529    4.325228    0.069939
     49          6           0        5.711323    2.891926   -1.474790
     50          1           0        5.461848    1.947399   -0.982070
     51          1           0        6.772648    3.064442   -1.272815
     52          7           0        5.575031    2.724168   -2.925000
     53          1           0        6.053839    3.413772   -3.488144
     54          7           0        3.956057    1.032707   -2.950891
     55          1           0        3.128891    0.589482   -3.404037
     56          1           0        3.917624    0.958783   -1.941844
     57          7           0        4.500810    2.112056   -4.904713
     58          1           0        3.568467    1.825495   -5.269910
     59          1           0        4.908276    2.923735   -5.348764
     60          6           0        4.658741    1.966129   -3.575214
     61          8           0        3.988754    4.156728    2.118281
     62          1           0        3.841194    4.761076    2.872185
 ---------------------------------------------------------------------

 SCF Done:  E(RB3LYP) =  -1447.51063394     A.U. after    1 cycles

 Alpha  occ. eigenvalues --  -19.30472 -19.25434 -19.24810 -19.22614 -19.19572
 Alpha  occ. eigenvalues --  -19.18487 -14.59377 -14.47860 -14.47825 -14.47215
 Alpha  occ. eigenvalues --  -14.44482 -14.43876 -10.42870 -10.42394 -10.42377
 Alpha  occ. eigenvalues --  -10.39775 -10.39770 -10.37144 -10.34779 -10.33897
 Alpha  occ. eigenvalues --  -10.33717 -10.31866 -10.29862 -10.29516 -10.29302
 Alpha  occ. eigenvalues --  -10.27633 -10.27425 -10.24763 -10.24714  -1.21395
 Alpha  occ. eigenvalues --   -1.18006  -1.14701  -1.13066  -1.12528  -1.12344
 Alpha  occ. eigenvalues --   -1.10924  -1.04701  -1.03672  -1.03417  -1.01100
 Alpha  occ. eigenvalues --   -0.97931  -0.92973  -0.91025  -0.89636  -0.86232
 Alpha  occ. eigenvalues --   -0.84979  -0.83156  -0.79360  -0.76575  -0.75759
 Alpha  occ. eigenvalues --   -0.75099  -0.73892  -0.73562  -0.72650  -0.71555
 Alpha  occ. eigenvalues --   -0.70767  -0.69018  -0.68862  -0.68338  -0.66550
 Alpha  occ. eigenvalues --   -0.64240  -0.63990  -0.62908  -0.61414  -0.60318
 Alpha  occ. eigenvalues --   -0.60069  -0.59416  -0.58899  -0.58345  -0.57745
 Alpha  occ. eigenvalues --   -0.57267  -0.56590  -0.56373  -0.56264  -0.55543
 Alpha  occ. eigenvalues --   -0.55261  -0.54328  -0.53567  -0.53276  -0.52630
 Alpha  occ. eigenvalues --   -0.52094  -0.51443  -0.50904  -0.50580  -0.50046
 Alpha  occ. eigenvalues --   -0.49898  -0.49574  -0.48802  -0.48480  -0.48185
 Alpha  occ. eigenvalues --   -0.47066  -0.46662  -0.46347  -0.45848  -0.45323
 Alpha  occ. eigenvalues --   -0.45029  -0.44971  -0.44392  -0.42357  -0.41160
 Alpha  occ. eigenvalues --   -0.40722  -0.40671  -0.39754  -0.38863  -0.38064
 Alpha  occ. eigenvalues --   -0.36918  -0.36357  -0.36196  -0.35839  -0.34518
 Alpha  occ. eigenvalues --   -0.34377  -0.32769
 Alpha virt. eigenvalues --   -0.12530  -0.09842  -0.09368  -0.08579  -0.06799
 Alpha virt. eigenvalues --   -0.06009  -0.03780  -0.03542  -0.02892  -0.02244
 Alpha virt. eigenvalues --   -0.01306  -0.00967  -0.00272   0.00531   0.01052

 Mulliken charges:
               1
     1  N   -0.744678
     2  H    0.412801
     3  H    0.430207
     4  H    0.410231
     5  C   -0.136564
     6  H    0.229795
     7  C    0.643464
     8  C   -0.291182
     9  H    0.164018
    10  H    0.220841
    11  O   -0.556989
    12  C   -0.388032
    13  H    0.194037
    14  H    0.139888
    15  C    0.621580
    16  O   -0.564893
    17  O   -0.607561
    18  N   -0.628947
    19  H    0.421516
    20  C   -0.070180
    21  H    0.183717
    22  C    0.631741
    23  C   -0.253943
    24  H    0.150263
    25  H    0.171567
    26  O   -0.545514
    27  C   -0.076686
    28  H    0.105946
    29  C   -0.445457
    30  H    0.153184
    31  H    0.153854
    32  H    0.149224
    33  C   -0.466040
    34  H    0.147249
    35  H    0.166137
    36  H    0.152837
    37  N   -0.611916
    38  H    0.363564
    39  C   -0.042921
    40  H    0.196196
    41  C    0.589226
    42  C   -0.291229
    43  H    0.167013
    44  H    0.173920
    45  O   -0.453199
    46  C   -0.274959
    47  H    0.153373
    48  H    0.185160
    49  C   -0.177885
    50  H    0.182554
    51  H    0.188138
    52  N   -0.596087
    53  H    0.343753
    54  N   -0.797621
    55  H    0.425736
    56  H    0.383738
    57  N   -0.772021
    58  H    0.413577
    59  H    0.338025
    60  C    0.761231
    61  O   -0.557149
    62  H    0.432352
 Sum of Mulliken charges =   1.00000

 Dipole moment (field-independent basis, Debye):
    X=              1.2861    Y=              8.8519    Z=            -11.9840  Tot=             14.9542
 Quadrupole moment (field-independent basis, Debye-Ang):
   XX=            -76.1592   YY=           -132.4780   ZZ=           -111.0888
   XY=             50.7319   XZ=             29.7908   YZ=            -14.0788

 Normal termination of Gaussian 16 at Wed Jun  1 02:11:51 2022.
