 Gaussian 16, Revision C.01,
 Gaussian 16:  ES64L-G16RevC.01  3-Jul-2019

 ----------------------------------------------------------------------
 # B3LYP/6-31G* empiricaldispersion=gd3 guess=read geom=check nosymm in
 tegral(ultrafinegrid)
 ----------------------------------------------------------------------

 ------------------------------------------------------
 Candidate Structure: Conf:797 Charge calc in gas phase
 ------------------------------------------------------
 Structure from the checkpoint file:  "conf-797.chk"
 Charge =  1 Multiplicity = 1

                          Input orientation:
 ---------------------------------------------------------------------
 Center     Atomic      Atomic             Coordinates (Angstroms)
 Number     Number       Type             X           Y           Z
 ---------------------------------------------------------------------
      1          7           0       -2.581009   -2.513787   -2.816357
      2          1           0       -3.244429   -2.108164   -2.139460
      3          1           0       -2.165472   -1.689689   -3.408225
      4          1           0       -3.026829   -3.233649   -3.386989
      5          6           0       -1.398145   -3.014162   -2.022434
      6          1           0       -1.773620   -3.792979   -1.350076
      7          6           0       -1.073975   -1.801952   -1.112356
      8          6           0       -0.310847   -3.578720   -2.948275
      9          1           0       -0.594414   -4.599213   -3.226396
     10          1           0        0.614805   -3.679301   -2.370743
     11          8           0       -2.037930   -1.177560   -0.657549
     12          6           0       -0.024912   -2.764842   -4.237040
     13          1           0        0.924318   -3.097010   -4.658784
     14          1           0       -0.810216   -2.956879   -4.978148
     15          6           0        0.069545   -1.261085   -3.962697
     16          8           0        1.200240   -0.763344   -3.828227
     17          8           0       -1.045911   -0.635587   -3.793274
     18          7           0        0.204448   -1.519055   -0.837631
     19          1           0        0.989171   -1.943674   -1.324202
     20          6           0        0.561212   -0.373226   -0.003759
     21          1           0       -0.144677    0.432707   -0.222857
     22          6           0        1.981700    0.032336   -0.421164
     23          6           0        0.465107   -0.764168    1.490979
     24          1           0        1.182551   -1.574342    1.672103
     25          1           0       -0.539382   -1.184271    1.627288
     26          8           0        2.746362   -0.780577   -0.934337
     27          6           0        0.677793    0.357980    2.522662
     28          1           0        1.694404    0.754012    2.413303
     29          6           0       -0.315311    1.516422    2.339441
     30          1           0       -1.349355    1.156551    2.407017
     31          1           0       -0.170754    2.276408    3.114402
     32          1           0       -0.210926    2.022617    1.370381
     33          6           0        0.557681   -0.227046    3.938001
     34          1           0       -0.447837   -0.630175    4.111677
     35          1           0        1.277204   -1.038130    4.096890
     36          1           0        0.744339    0.541278    4.696178
     37          7           0        2.324576    1.324390   -0.166173
     38          1           0        1.659825    1.913308    0.316105
     39          6           0        3.706787    1.787942   -0.223331
     40          1           0        4.340349    0.895918   -0.261534
     41          6           0        4.121222    2.557384    1.032307
     42          6           0        4.015190    2.664748   -1.456440
     43          1           0        4.996790    3.115976   -1.288517
     44          1           0        3.294150    3.492883   -1.463408
     45          8           0        5.237890    2.978087    1.207354
     46          6           0        4.008617    1.900932   -2.800871
     47          1           0        4.989116    2.002372   -3.279301
     48          1           0        3.851865    0.829296   -2.635863
     49          6           0        2.956095    2.381882   -3.809958
     50          1           0        3.185653    1.976740   -4.799893
     51          1           0        2.966458    3.473542   -3.914045
     52          7           0        1.612133    1.911863   -3.476521
     53          1           0        1.453594    0.891173   -3.639293
     54          7           0        0.745344    3.852946   -2.471738
     55          1           0       -0.101470    4.388084   -2.333232
     56          1           0        1.531946    4.392896   -2.802701
     57          7           0       -0.504240    1.893591   -2.587415
     58          1           0       -1.281431    2.387752   -2.174878
     59          1           0       -0.706963    0.969624   -3.021142
     60          6           0        0.630157    2.554584   -2.873158
     61          8           0        3.103458    2.755929    1.906875
     62          1           0        3.471067    3.261395    2.657300
 ---------------------------------------------------------------------

 SCF Done:  E(RB3LYP) =  -1447.52432181     A.U. after    1 cycles

 Alpha  occ. eigenvalues --  -19.30065 -19.23618 -19.23382 -19.22623 -19.22380
 Alpha  occ. eigenvalues --  -19.21328 -14.55391 -14.50027 -14.47886 -14.47773
 Alpha  occ. eigenvalues --  -14.47420 -14.46803 -10.45355 -10.42011 -10.41068
 Alpha  occ. eigenvalues --  -10.39422 -10.39414 -10.38170 -10.34128 -10.34032
 Alpha  occ. eigenvalues --  -10.33632 -10.32536 -10.29911 -10.29245 -10.28687
 Alpha  occ. eigenvalues --  -10.27839 -10.27584 -10.26387 -10.25108  -1.20621
 Alpha  occ. eigenvalues --   -1.16199  -1.15001  -1.14307  -1.13658  -1.11599
 Alpha  occ. eigenvalues --   -1.10147  -1.06078  -1.03976  -1.03380  -1.03125
 Alpha  occ. eigenvalues --   -1.01732  -0.92280  -0.90752  -0.89676  -0.86465
 Alpha  occ. eigenvalues --   -0.85019  -0.82661  -0.79712  -0.76928  -0.76109
 Alpha  occ. eigenvalues --   -0.75296  -0.74717  -0.72255  -0.71152  -0.70724
 Alpha  occ. eigenvalues --   -0.70570  -0.69836  -0.69258  -0.68380  -0.67443
 Alpha  occ. eigenvalues --   -0.65342  -0.64261  -0.63576  -0.62445  -0.61668
 Alpha  occ. eigenvalues --   -0.60799  -0.59659  -0.58891  -0.58619  -0.57798
 Alpha  occ. eigenvalues --   -0.57466  -0.57075  -0.56734  -0.56057  -0.55282
 Alpha  occ. eigenvalues --   -0.55020  -0.54754  -0.53449  -0.53302  -0.53045
 Alpha  occ. eigenvalues --   -0.52619  -0.52076  -0.51896  -0.51113  -0.51037
 Alpha  occ. eigenvalues --   -0.50004  -0.49927  -0.49804  -0.48531  -0.47595
 Alpha  occ. eigenvalues --   -0.46996  -0.46909  -0.46232  -0.45947  -0.45740
 Alpha  occ. eigenvalues --   -0.45099  -0.44697  -0.44523  -0.42334  -0.41900
 Alpha  occ. eigenvalues --   -0.41439  -0.40867  -0.40643  -0.38547  -0.37930
 Alpha  occ. eigenvalues --   -0.37816  -0.37376  -0.37137  -0.36845  -0.35837
 Alpha  occ. eigenvalues --   -0.35317  -0.35085
 Alpha virt. eigenvalues --   -0.10394  -0.09549  -0.09010  -0.08250  -0.07265
 Alpha virt. eigenvalues --   -0.06821  -0.06565  -0.03795  -0.02925  -0.01658
 Alpha virt. eigenvalues --   -0.01009  -0.00537   0.00174   0.00344   0.01261

 Mulliken charges:
               1
     1  N   -0.755573
     2  H    0.408651
     3  H    0.437222
     4  H    0.392251
     5  C   -0.122643
     6  H    0.219755
     7  C    0.659127
     8  C   -0.314590
     9  H    0.180479
    10  H    0.193442
    11  O   -0.555574
    12  C   -0.355814
    13  H    0.199710
    14  H    0.156921
    15  C    0.613170
    16  O   -0.544420
    17  O   -0.628703
    18  N   -0.622932
    19  H    0.376455
    20  C   -0.061185
    21  H    0.179002
    22  C    0.620248
    23  C   -0.255361
    24  H    0.154816
    25  H    0.166069
    26  O   -0.524579
    27  C   -0.103757
    28  H    0.146639
    29  C   -0.450507
    30  H    0.161591
    31  H    0.159750
    32  H    0.110526
    33  C   -0.446202
    34  H    0.150678
    35  H    0.153633
    36  H    0.153207
    37  N   -0.616820
    38  H    0.359694
    39  C   -0.069547
    40  H    0.225550
    41  C    0.591616
    42  C   -0.280809
    43  H    0.198323
    44  H    0.127030
    45  O   -0.435066
    46  C   -0.283600
    47  H    0.171634
    48  H    0.205068
    49  C   -0.183306
    50  H    0.196315
    51  H    0.152080
    52  N   -0.612884
    53  H    0.430097
    54  N   -0.761042
    55  H    0.363951
    56  H    0.369656
    57  N   -0.806448
    58  H    0.352046
    59  H    0.432380
    60  C    0.770135
    61  O   -0.577182
    62  H    0.429632
 Sum of Mulliken charges =   1.00000

 Dipole moment (field-independent basis, Debye):
    X=             -2.7552    Y=              2.1599    Z=             -9.7334  Tot=             10.3439
 Quadrupole moment (field-independent basis, Debye-Ang):
   XX=           -154.0664   YY=            -98.2537   ZZ=           -126.2336
   XY=             28.2897   XZ=             10.5770   YZ=              3.9253

 Normal termination of Gaussian 16 at Wed Jun  1 02:11:55 2022.
