 Gaussian 16, Revision C.01,
 Gaussian 16:  ES64L-G16RevC.01  3-Jul-2019

 ----------------------------------------------------------------------
 # B3LYP/6-31G* empiricaldispersion=gd3 guess=read geom=check nosymm in
 tegral(ultrafinegrid)
 ----------------------------------------------------------------------

 ------------------------------------------------------
 Candidate Structure: Conf:684 Charge calc in gas phase
 ------------------------------------------------------
 Structure from the checkpoint file:  "conf-684.chk"
 Charge =  1 Multiplicity = 1

                          Input orientation:
 ---------------------------------------------------------------------
 Center     Atomic      Atomic             Coordinates (Angstroms)
 Number     Number       Type             X           Y           Z
 ---------------------------------------------------------------------
      1          7           0       -2.944085   -0.153147   -3.721150
      2          1           0       -3.500241   -1.010551   -3.790149
      3          1           0       -3.285969    0.401033   -2.885246
      4          1           0       -3.044461    0.379223   -4.589704
      5          6           0       -1.491862   -0.407069   -3.350575
      6          1           0       -1.222422   -1.415303   -3.673595
      7          6           0       -1.513544   -0.223912   -1.813110
      8          6           0       -0.595617    0.673848   -3.989225
      9          1           0       -0.748712    1.613682   -3.446859
     10          1           0       -0.914181    0.827696   -5.029877
     11          8           0       -2.446645    0.438276   -1.335162
     12          6           0        0.906319    0.342103   -3.978911
     13          1           0        1.192943   -0.207679   -3.077411
     14          1           0        1.186094   -0.257094   -4.848486
     15          6           0        1.752372    1.635050   -3.924215
     16          8           0        1.444770    2.436169   -2.989619
     17          8           0        2.662089    1.756282   -4.776494
     18          7           0       -0.488535   -0.725800   -1.129698
     19          1           0        0.276742   -1.182232   -1.620528
     20          6           0       -0.094989   -0.241425    0.197301
     21          1           0       -0.717833    0.626638    0.422770
     22          6           0        1.386630    0.149135    0.037948
     23          6           0       -0.276582   -1.338926    1.265411
     24          1           0        0.327788   -2.203162    0.961229
     25          1           0       -1.328044   -1.653417    1.234485
     26          8           0        2.107548   -0.478991   -0.737799
     27          6           0        0.093771   -0.932372    2.705764
     28          1           0        1.143450   -0.609921    2.719962
     29          6           0       -0.770937    0.226149    3.226669
     30          1           0       -1.834360   -0.043541    3.212704
     31          1           0       -0.501833    0.474013    4.258619
     32          1           0       -0.662115    1.145697    2.637185
     33          6           0       -0.034761   -2.152453    3.629728
     34          1           0       -1.069832   -2.515758    3.657834
     35          1           0        0.603047   -2.977719    3.293348
     36          1           0        0.256754   -1.898270    4.654458
     37          7           0        1.819972    1.169371    0.805500
     38          1           0        1.187196    1.596394    1.467065
     39          6           0        3.226604    1.560276    0.830288
     40          1           0        3.811251    0.642830    0.683336
     41          6           0        3.625462    2.105632    2.198959
     42          6           0        3.598458    2.541384   -0.294732
     43          1           0        3.414493    2.034361   -1.245583
     44          1           0        4.672550    2.739739   -0.213040
     45          8           0        4.603347    2.787047    2.390846
     46          6           0        2.812208    3.856605   -0.243377
     47          1           0        1.755712    3.662092   -0.462292
     48          1           0        2.870937    4.297132    0.759804
     49          6           0        3.350004    4.904941   -1.223632
     50          1           0        4.402838    5.109098   -0.991250
     51          1           0        2.791609    5.844266   -1.101220
     52          7           0        3.244591    4.425793   -2.599796
     53          1           0        2.523892    3.683427   -2.803557
     54          7           0        4.939817    5.796707   -3.425398
     55          1           0        5.570518    6.037312   -4.175555
     56          1           0        4.723249    6.536001   -2.773888
     57          7           0        4.061384    4.063844   -4.720074
     58          1           0        4.551139    4.404004   -5.533922
     59          1           0        3.526470    3.154547   -4.776203
     60          6           0        4.067352    4.764443   -3.587211
     61          8           0        2.773398    1.729073    3.185860
     62          1           0        3.126064    2.099490    4.018012
 ---------------------------------------------------------------------

 SCF Done:  E(RB3LYP) =  -1447.49868081     A.U. after    1 cycles

 Alpha  occ. eigenvalues --  -19.29285 -19.26228 -19.23111 -19.21951 -19.17129
 Alpha  occ. eigenvalues --  -19.16954 -14.59670 -14.49027 -14.46989 -14.46492
 Alpha  occ. eigenvalues --  -14.44272 -14.43890 -10.43021 -10.41806 -10.41411
 Alpha  occ. eigenvalues --  -10.39912 -10.39013 -10.35204 -10.34145 -10.33240
 Alpha  occ. eigenvalues --  -10.31776 -10.31664 -10.28163 -10.27587 -10.27441
 Alpha  occ. eigenvalues --  -10.27434 -10.26857 -10.25937 -10.24916  -1.19909
 Alpha  occ. eigenvalues --   -1.18735  -1.14118  -1.13329  -1.10941  -1.10692
 Alpha  occ. eigenvalues --   -1.09899  -1.05777  -1.03010  -1.01671  -0.99767
 Alpha  occ. eigenvalues --   -0.98264  -0.92994  -0.90509  -0.88723  -0.85697
 Alpha  occ. eigenvalues --   -0.84104  -0.82506  -0.77559  -0.76589  -0.76049
 Alpha  occ. eigenvalues --   -0.74903  -0.73442  -0.73092  -0.71760  -0.71442
 Alpha  occ. eigenvalues --   -0.70431  -0.69239  -0.67751  -0.67008  -0.65778
 Alpha  occ. eigenvalues --   -0.64932  -0.64306  -0.62799  -0.62014  -0.59948
 Alpha  occ. eigenvalues --   -0.59696  -0.58917  -0.58185  -0.57787  -0.57304
 Alpha  occ. eigenvalues --   -0.56907  -0.56338  -0.55891  -0.55611  -0.54440
 Alpha  occ. eigenvalues --   -0.53498  -0.53141  -0.52829  -0.52056  -0.51788
 Alpha  occ. eigenvalues --   -0.51178  -0.51013  -0.50554  -0.50085  -0.49785
 Alpha  occ. eigenvalues --   -0.48511  -0.48433  -0.48062  -0.47565  -0.47191
 Alpha  occ. eigenvalues --   -0.46609  -0.46097  -0.45238  -0.44837  -0.43932
 Alpha  occ. eigenvalues --   -0.43472  -0.42784  -0.42563  -0.42327  -0.41440
 Alpha  occ. eigenvalues --   -0.41223  -0.40875  -0.40564  -0.38457  -0.37575
 Alpha  occ. eigenvalues --   -0.37171  -0.35836  -0.35078  -0.34295  -0.32517
 Alpha  occ. eigenvalues --   -0.32112  -0.31271
 Alpha virt. eigenvalues --   -0.11777  -0.10513  -0.08467  -0.07786  -0.06165
 Alpha virt. eigenvalues --   -0.06072  -0.03786  -0.03115  -0.02987  -0.02163
 Alpha virt. eigenvalues --   -0.01139  -0.00425   0.00170   0.00626   0.01564

 Mulliken charges:
               1
     1  N   -0.750383
     2  H    0.414694
     3  H    0.429699
     4  H    0.412102
     5  C   -0.120624
     6  H    0.209428
     7  C    0.650501
     8  C   -0.300343
     9  H    0.209632
    10  H    0.160218
    11  O   -0.539108
    12  C   -0.363086
    13  H    0.173133
    14  H    0.170535
    15  C    0.606554
    16  O   -0.610383
    17  O   -0.571061
    18  N   -0.582086
    19  H    0.370368
    20  C   -0.098513
    21  H    0.191178
    22  C    0.649846
    23  C   -0.250603
    24  H    0.157079
    25  H    0.155680
    26  O   -0.537635
    27  C   -0.100193
    28  H    0.147920
    29  C   -0.452062
    30  H    0.157138
    31  H    0.163711
    32  H    0.123096
    33  C   -0.446218
    34  H    0.149491
    35  H    0.153534
    36  H    0.157494
    37  N   -0.606734
    38  H    0.358607
    39  C   -0.060085
    40  H    0.220029
    41  C    0.583569
    42  C   -0.261835
    43  H    0.193006
    44  H    0.168043
    45  O   -0.445112
    46  C   -0.308387
    47  H    0.169298
    48  H    0.154989
    49  C   -0.148289
    50  H    0.169578
    51  H    0.160262
    52  N   -0.637082
    53  H    0.428424
    54  N   -0.763833
    55  H    0.360574
    56  H    0.367177
    57  N   -0.801360
    58  H    0.342712
    59  H    0.435296
    60  C    0.777320
    61  O   -0.574734
    62  H    0.427835
 Sum of Mulliken charges =   1.00000

 Dipole moment (field-independent basis, Debye):
    X=             -1.3192    Y=              8.1624    Z=            -11.2388  Tot=             13.9526
 Quadrupole moment (field-independent basis, Debye-Ang):
   XX=           -113.7481   YY=            -99.7017   ZZ=            -91.7355
   XY=             57.3075   XZ=             14.9264   YZ=            -26.0390

 Normal termination of Gaussian 16 at Wed Jun  1 02:11:52 2022.
