 Gaussian 16, Revision C.01,
 Gaussian 16:  ES64L-G16RevC.01  3-Jul-2019

 ----------------------------------------------------------------------
 # B3LYP/6-31G* empiricaldispersion=gd3 guess=read geom=check nosymm in
 tegral(ultrafinegrid)
 ----------------------------------------------------------------------

 ------------------------------------------------------
 Candidate Structure: Conf:234 Charge calc in gas phase
 ------------------------------------------------------
 Structure from the checkpoint file:  "conf-234.chk"
 Charge =  1 Multiplicity = 1

                          Input orientation:
 ---------------------------------------------------------------------
 Center     Atomic      Atomic             Coordinates (Angstroms)
 Number     Number       Type             X           Y           Z
 ---------------------------------------------------------------------
      1          7           0       -3.775513   -0.964573   -3.294036
      2          1           0       -4.133571   -1.916346   -3.167710
      3          1           0       -4.145007   -0.365552   -2.511309
      4          1           0       -4.080587   -0.610562   -4.205781
      5          6           0       -2.271200   -0.851524   -3.102832
      6          1           0       -1.809418   -1.800688   -3.385498
      7          6           0       -2.137700   -0.533622   -1.598861
      8          6           0       -1.755668    0.320489   -3.955498
      9          1           0       -2.411842    1.184892   -3.785725
     10          1           0       -1.818820    0.069125   -5.020388
     11          8           0       -3.086920    0.037970   -1.047834
     12          6           0       -0.316566    0.729466   -3.639343
     13          1           0       -0.237031    1.168710   -2.642917
     14          1           0        0.360484   -0.135239   -3.655059
     15          6           0        0.213425    1.763805   -4.658943
     16          8           0        1.183127    2.475194   -4.214513
     17          8           0       -0.312506    1.833556   -5.774881
     18          7           0       -0.967817   -0.845272   -1.038350
     19          1           0       -0.221405   -1.226890   -1.618833
     20          6           0       -0.432845   -0.171541    0.150053
     21          1           0       -1.064430    0.697387    0.350650
     22          6           0        0.988879    0.253700   -0.271327
     23          6           0       -0.408546   -1.115807    1.369446
     24          1           0        0.201190   -1.988915    1.103922
     25          1           0       -1.435372   -1.473702    1.519884
     26          8           0        1.612934   -0.416323   -1.097427
     27          6           0        0.112867   -0.496876    2.681844
     28          1           0        1.138140   -0.137807    2.516048
     29          6           0       -0.742878    0.690516    3.150103
     30          1           0       -1.783655    0.380918    3.307492
     31          1           0       -0.363235    1.089659    4.096002
     32          1           0       -0.755464    1.522856    2.435213
     33          6           0        0.168614   -1.579081    3.770149
     34          1           0       -0.833773   -1.971809    3.982383
     35          1           0        0.802640   -2.420132    3.466895
     36          1           0        0.571620   -1.172342    4.703719
     37          7           0        1.486537    1.367485    0.300745
     38          1           0        0.999617    1.831426    1.059436
     39          6           0        2.866635    1.769175    0.069201
     40          1           0        3.467052    0.858472   -0.040395
     41          6           0        3.327301    2.502885    1.321305
     42          6           0        3.037366    2.625644   -1.217782
     43          1           0        2.870995    3.685400   -0.984792
     44          1           0        2.247043    2.330271   -1.915381
     45          8           0        2.606367    2.783108    2.254740
     46          6           0        4.418451    2.423813   -1.861644
     47          1           0        5.203388    2.561022   -1.111365
     48          1           0        4.495349    1.389771   -2.222554
     49          6           0        4.722861    3.385804   -3.012690
     50          1           0        5.737712    3.177319   -3.379781
     51          1           0        4.707980    4.423616   -2.650400
     52          7           0        3.758686    3.229874   -4.101354
     53          1           0        2.907614    2.667111   -3.951012
     54          7           0        4.692103    4.890407   -5.446343
     55          1           0        4.644453    5.466168   -6.273952
     56          1           0        5.616938    4.697764   -5.091758
     57          7           0        2.557153    4.039327   -5.884036
     58          1           0        2.503923    4.497651   -6.780903
     59          1           0        1.761751    3.472492   -5.502664
     60          6           0        3.670545    4.046540   -5.156777
     61          8           0        4.632961    2.823076    1.262024
     62          1           0        4.852372    3.301577    2.084976
 ---------------------------------------------------------------------

 SCF Done:  E(RB3LYP) =  -1447.48802331     A.U. after    1 cycles

 Alpha  occ. eigenvalues --  -19.29756 -19.25634 -19.24198 -19.22119 -19.16148
 Alpha  occ. eigenvalues --  -19.14981 -14.59585 -14.48295 -14.47957 -14.46346
 Alpha  occ. eigenvalues --  -14.45596 -14.44824 -10.42758 -10.42348 -10.42194
 Alpha  occ. eigenvalues --  -10.39294 -10.39116 -10.33997 -10.33821 -10.33760
 Alpha  occ. eigenvalues --  -10.32722 -10.30756 -10.28318 -10.28222 -10.27912
 Alpha  occ. eigenvalues --  -10.27399 -10.26935 -10.25371 -10.24677  -1.20730
 Alpha  occ. eigenvalues --   -1.18055  -1.14276  -1.13175  -1.11836  -1.11502
 Alpha  occ. eigenvalues --   -1.08780  -1.05233  -1.02932  -1.01140  -1.00050
 Alpha  occ. eigenvalues --   -0.99187  -0.92573  -0.90411  -0.89301  -0.85738
 Alpha  occ. eigenvalues --   -0.84253  -0.82151  -0.78039  -0.76211  -0.75686
 Alpha  occ. eigenvalues --   -0.74782  -0.73861  -0.73171  -0.72586  -0.70823
 Alpha  occ. eigenvalues --   -0.69844  -0.69425  -0.68296  -0.68103  -0.65985
 Alpha  occ. eigenvalues --   -0.65477  -0.64577  -0.62155  -0.61256  -0.60265
 Alpha  occ. eigenvalues --   -0.59648  -0.58919  -0.58386  -0.58139  -0.57464
 Alpha  occ. eigenvalues --   -0.57056  -0.56522  -0.55850  -0.55577  -0.54849
 Alpha  occ. eigenvalues --   -0.54240  -0.53817  -0.52821  -0.52355  -0.51583
 Alpha  occ. eigenvalues --   -0.51147  -0.51126  -0.50374  -0.50213  -0.50016
 Alpha  occ. eigenvalues --   -0.48815  -0.48292  -0.47433  -0.47114  -0.46749
 Alpha  occ. eigenvalues --   -0.45940  -0.45761  -0.45305  -0.44490  -0.44318
 Alpha  occ. eigenvalues --   -0.43783  -0.43280  -0.42206  -0.41874  -0.41831
 Alpha  occ. eigenvalues --   -0.41000  -0.40806  -0.39837  -0.38393  -0.38232
 Alpha  occ. eigenvalues --   -0.37688  -0.35910  -0.35692  -0.35235  -0.31422
 Alpha  occ. eigenvalues --   -0.31285  -0.29263
 Alpha virt. eigenvalues --   -0.11582  -0.09996  -0.09003  -0.07829  -0.07074
 Alpha virt. eigenvalues --   -0.05062  -0.03984  -0.03292  -0.02023  -0.01231
 Alpha virt. eigenvalues --   -0.01007  -0.00882  -0.00618   0.00202   0.01691

 Mulliken charges:
               1
     1  N   -0.746555
     2  H    0.414620
     3  H    0.426395
     4  H    0.419314
     5  C   -0.128526
     6  H    0.206551
     7  C    0.638754
     8  C   -0.279360
     9  H    0.170781
    10  H    0.199088
    11  O   -0.534416
    12  C   -0.390838
    13  H    0.161509
    14  H    0.167049
    15  C    0.618190
    16  O   -0.650627
    17  O   -0.548895
    18  N   -0.582782
    19  H    0.369600
    20  C   -0.087582
    21  H    0.190976
    22  C    0.631208
    23  C   -0.249962
    24  H    0.154762
    25  H    0.158558
    26  O   -0.544500
    27  C   -0.096364
    28  H    0.135236
    29  C   -0.454294
    30  H    0.155859
    31  H    0.170757
    32  H    0.130351
    33  C   -0.446185
    34  H    0.150063
    35  H    0.150601
    36  H    0.159979
    37  N   -0.622733
    38  H    0.370922
    39  C   -0.032593
    40  H    0.207340
    41  C    0.585405
    42  C   -0.296581
    43  H    0.153476
    44  H    0.207904
    45  O   -0.459073
    46  C   -0.317263
    47  H    0.182503
    48  H    0.172811
    49  C   -0.138877
    50  H    0.158053
    51  H    0.171535
    52  N   -0.630254
    53  H    0.418967
    54  N   -0.761395
    55  H    0.365298
    56  H    0.369809
    57  N   -0.784051
    58  H    0.349429
    59  H    0.431982
    60  C    0.787321
    61  O   -0.559666
    62  H    0.430418
 Sum of Mulliken charges =   1.00000

 Dipole moment (field-independent basis, Debye):
    X=              2.6083    Y=              4.8105    Z=            -12.7744  Tot=             13.8971
 Quadrupole moment (field-independent basis, Debye-Ang):
   XX=            -63.3070   YY=           -115.8808   ZZ=            -99.7254
   XY=             75.1095   XZ=             -7.9064   YZ=            -28.6277

 Normal termination of Gaussian 16 at Wed Jun  1 02:11:55 2022.
