 Gaussian 16, Revision C.01,
 Gaussian 16:  ES64L-G16RevC.01  3-Jul-2019

 ----------------------------------------------------------------------
 # B3LYP/6-31G* empiricaldispersion=gd3 guess=read geom=check nosymm in
 tegral(ultrafinegrid)
 ----------------------------------------------------------------------

 ------------------------------------------------------
 Candidate Structure: Conf:535 Charge calc in gas phase
 ------------------------------------------------------
 Structure from the checkpoint file:  "conf-535.chk"
 Charge =  1 Multiplicity = 1

                          Input orientation:
 ---------------------------------------------------------------------
 Center     Atomic      Atomic             Coordinates (Angstroms)
 Number     Number       Type             X           Y           Z
 ---------------------------------------------------------------------
      1          7           0       -2.118325   -1.021958   -4.266233
      2          1           0       -3.039459   -1.467961   -4.296813
      3          1           0       -2.244886   -0.012678   -4.001130
      4          1           0       -1.673306   -1.115484   -5.186341
      5          6           0       -1.224362   -1.555899   -3.166302
      6          1           0       -1.556384   -2.564017   -2.906723
      7          6           0       -1.384579   -0.527078   -2.027161
      8          6           0        0.242200   -1.510254   -3.618391
      9          1           0        0.852281   -1.805485   -2.758547
     10          1           0        0.512827   -0.468474   -3.825028
     11          8           0       -1.847740    0.583396   -2.303708
     12          6           0        0.637999   -2.357334   -4.830934
     13          1           0        0.450620   -3.423168   -4.672949
     14          1           0        0.109039   -2.039375   -5.744308
     15          6           0        2.160270   -2.116963   -5.049313
     16          8           0        2.927910   -3.082879   -5.073523
     17          8           0        2.467593   -0.869438   -5.104697
     18          7           0       -0.896220   -0.903565   -0.833240
     19          1           0       -0.398726   -1.788728   -0.811007
     20          6           0       -0.348177    0.066375    0.123988
     21          1           0       -0.824999    1.026343   -0.082582
     22          6           0        1.170123    0.131626   -0.165342
     23          6           0       -0.645642   -0.402051    1.563256
     24          1           0       -0.185052   -1.390635    1.697739
     25          1           0       -1.731610   -0.545229    1.633832
     26          8           0        1.744136   -0.835534   -0.667067
     27          6           0       -0.179685    0.532520    2.696498
     28          1           0        0.908632    0.652927    2.634984
     29          6           0       -0.823839    1.924711    2.608883
     30          1           0       -1.917301    1.854046    2.667453
     31          1           0       -0.482142    2.557574    3.433814
     32          1           0       -0.585296    2.455886    1.677566
     33          6           0       -0.496715   -0.116526    4.052074
     34          1           0       -1.578025   -0.252682    4.180152
     35          1           0       -0.019743   -1.098857    4.146870
     36          1           0       -0.138803    0.511169    4.874778
     37          7           0        1.801481    1.291460    0.149486
     38          1           0        1.308811    1.974580    0.713228
     39          6           0        3.253707    1.395316    0.142654
     40          1           0        3.643915    0.423179   -0.167969
     41          6           0        3.732297    1.682740    1.563373
     42          6           0        3.775757    2.495056   -0.811174
     43          1           0        4.870110    2.469299   -0.767123
     44          1           0        3.473908    3.475758   -0.421683
     45          8           0        3.012962    2.021918    2.476860
     46          6           0        3.276254    2.372689   -2.257420
     47          1           0        2.184687    2.466885   -2.271822
     48          1           0        3.662511    3.228954   -2.826895
     49          6           0        3.620201    1.077811   -2.995623
     50          1           0        3.204307    1.119900   -4.006767
     51          1           0        3.168169    0.209596   -2.505610
     52          7           0        5.075628    0.861500   -3.042383
     53          1           0        5.672450    1.671575   -2.935553
     54          7           0        4.920159   -1.059609   -4.335680
     55          1           0        5.269647   -1.979415   -4.576908
     56          1           0        3.897063   -0.885704   -4.691414
     57          7           0        6.987675   -0.359916   -3.488592
     58          1           0        7.447969   -1.128453   -3.955491
     59          1           0        7.421621   -0.038951   -2.634357
     60          6           0        5.640424   -0.215828   -3.638938
     61          8           0        5.068559    1.552997    1.662397
     62          1           0        5.317532    1.781695    2.579023
 ---------------------------------------------------------------------

 SCF Done:  E(RB3LYP) =  -1447.47738591     A.U. after    1 cycles

 Alpha  occ. eigenvalues --  -19.30211 -19.26692 -19.24701 -19.23347 -19.16259
 Alpha  occ. eigenvalues --  -19.15174 -14.59603 -14.49245 -14.47770 -14.47731
 Alpha  occ. eigenvalues --  -14.47544 -14.44408 -10.43298 -10.43081 -10.42662
 Alpha  occ. eigenvalues --  -10.40349 -10.39560 -10.34927 -10.34574 -10.34043
 Alpha  occ. eigenvalues --  -10.31840 -10.30767 -10.30082 -10.29505 -10.28807
 Alpha  occ. eigenvalues --  -10.27765 -10.27713 -10.26059 -10.25054  -1.21166
 Alpha  occ. eigenvalues --   -1.18954  -1.15287  -1.13555  -1.12326  -1.11694
 Alpha  occ. eigenvalues --   -1.09201  -1.06164  -1.04059  -1.01596  -1.00495
 Alpha  occ. eigenvalues --   -0.98833  -0.93071  -0.91263  -0.90074  -0.86273
 Alpha  occ. eigenvalues --   -0.85129  -0.82813  -0.79025  -0.76788  -0.75459
 Alpha  occ. eigenvalues --   -0.74428  -0.73869  -0.73468  -0.73165  -0.71681
 Alpha  occ. eigenvalues --   -0.71485  -0.70326  -0.69641  -0.68185  -0.66161
 Alpha  occ. eigenvalues --   -0.65573  -0.65135  -0.62632  -0.61561  -0.61255
 Alpha  occ. eigenvalues --   -0.59876  -0.59758  -0.59109  -0.58752  -0.58087
 Alpha  occ. eigenvalues --   -0.57519  -0.56913  -0.56360  -0.55804  -0.54819
 Alpha  occ. eigenvalues --   -0.54704  -0.54539  -0.53387  -0.52955  -0.52526
 Alpha  occ. eigenvalues --   -0.52326  -0.51469  -0.50877  -0.50590  -0.49782
 Alpha  occ. eigenvalues --   -0.49206  -0.49036  -0.48738  -0.47580  -0.47161
 Alpha  occ. eigenvalues --   -0.46465  -0.46362  -0.45878  -0.45343  -0.45166
 Alpha  occ. eigenvalues --   -0.44318  -0.44261  -0.42772  -0.42510  -0.42290
 Alpha  occ. eigenvalues --   -0.41555  -0.41014  -0.40782  -0.39264  -0.38434
 Alpha  occ. eigenvalues --   -0.38235  -0.37290  -0.36665  -0.36287  -0.31760
 Alpha  occ. eigenvalues --   -0.31323  -0.29289
 Alpha virt. eigenvalues --   -0.12234  -0.10348  -0.09571  -0.09354  -0.08319
 Alpha virt. eigenvalues --   -0.05450  -0.04546  -0.03678  -0.02728  -0.02008
 Alpha virt. eigenvalues --   -0.01817  -0.01217  -0.00583  -0.00147   0.00542

 Mulliken charges:
               1
     1  N   -0.744922
     2  H    0.415665
     3  H    0.426135
     4  H    0.416107
     5  C   -0.127966
     6  H    0.208191
     7  C    0.639472
     8  C   -0.322935
     9  H    0.216981
    10  H    0.191055
    11  O   -0.525033
    12  C   -0.358723
    13  H    0.166420
    14  H    0.129234
    15  C    0.598362
    16  O   -0.546991
    17  O   -0.639411
    18  N   -0.564787
    19  H    0.357051
    20  C   -0.113653
    21  H    0.200711
    22  C    0.625669
    23  C   -0.257905
    24  H    0.150132
    25  H    0.163092
    26  O   -0.529945
    27  C   -0.110605
    28  H    0.157695
    29  C   -0.456404
    30  H    0.156600
    31  H    0.174233
    32  H    0.121574
    33  C   -0.446682
    34  H    0.149895
    35  H    0.150100
    36  H    0.163072
    37  N   -0.592438
    38  H    0.362197
    39  C   -0.066719
    40  H    0.216487
    41  C    0.594347
    42  C   -0.277238
    43  H    0.162561
    44  H    0.163629
    45  O   -0.451413
    46  C   -0.313616
    47  H    0.167318
    48  H    0.162027
    49  C   -0.152708
    50  H    0.207931
    51  H    0.200299
    52  N   -0.622709
    53  H    0.347127
    54  N   -0.781314
    55  H    0.360064
    56  H    0.464113
    57  N   -0.763022
    58  H    0.366679
    59  H    0.360534
    60  C    0.784438
    61  O   -0.560656
    62  H    0.430599
 Sum of Mulliken charges =   1.00000

 Dipole moment (field-independent basis, Debye):
    X=              6.2534    Y=              1.0390    Z=             -8.8208  Tot=             10.8624
 Quadrupole moment (field-independent basis, Debye-Ang):
   XX=            -53.0570   YY=           -164.2089   ZZ=           -129.4182
   XY=             29.4776   XZ=             12.2949   YZ=              2.3782

 Normal termination of Gaussian 16 at Wed Jun  1 02:11:51 2022.
