 Gaussian 16, Revision C.01,
 Gaussian 16:  ES64L-G16RevC.01  3-Jul-2019

 ----------------------------------------------------------------------
 # B3LYP/6-31G* empiricaldispersion=gd3 guess=read geom=check nosymm in
 tegral(ultrafinegrid)
 ----------------------------------------------------------------------

 ------------------------------------------------------
 Candidate Structure: Conf:472 Charge calc in gas phase
 ------------------------------------------------------
 Structure from the checkpoint file:  "conf-472.chk"
 Charge =  1 Multiplicity = 1

                          Input orientation:
 ---------------------------------------------------------------------
 Center     Atomic      Atomic             Coordinates (Angstroms)
 Number     Number       Type             X           Y           Z
 ---------------------------------------------------------------------
      1          7           0       -1.935323    1.538299   -4.488242
      2          1           0       -2.920206    1.660504   -4.238984
      3          1           0       -1.348666    2.279152   -3.973392
      4          1           0       -1.843411    1.592530   -5.505355
      5          6           0       -1.327958    0.285702   -3.881250
      6          1           0       -2.130218   -0.408303   -3.629679
      7          6           0       -0.633360    0.823770   -2.602418
      8          6           0       -0.347225   -0.342554   -4.884278
      9          1           0        0.371406    0.425320   -5.199679
     10          1           0       -0.907615   -0.672458   -5.768924
     11          8           0       -0.373502    2.089837   -2.628702
     12          6           0        0.429756   -1.546630   -4.313862
     13          1           0        1.060985   -1.955935   -5.105803
     14          1           0        1.061173   -1.223571   -3.480985
     15          6           0       -0.522515   -2.667820   -3.870620
     16          8           0       -1.066512   -2.523276   -2.653279
     17          8           0       -0.805819   -3.586868   -4.602714
     18          7           0       -0.408931   -0.067427   -1.696589
     19          1           0       -0.746725   -1.683473   -2.195912
     20          6           0        0.202675    0.339159   -0.444042
     21          1           0       -0.440944    1.084795    0.044158
     22          6           0        1.580440    0.982944   -0.635633
     23          6           0        0.356575   -0.890634    0.477181
     24          1           0        0.874597   -0.582033    1.395956
     25          1           0        1.013904   -1.605949   -0.034335
     26          8           0        2.351547    0.679083   -1.558739
     27          6           0       -0.966279   -1.583729    0.857986
     28          1           0       -1.473295   -1.886828   -0.066480
     29          6           0       -0.663383   -2.853939    1.665710
     30          1           0       -0.152209   -2.609700    2.606023
     31          1           0       -1.587273   -3.385942    1.917016
     32          1           0       -0.023616   -3.542048    1.101466
     33          6           0       -1.904150   -0.651525    1.637714
     34          1           0       -1.420326   -0.281536    2.551506
     35          1           0       -2.216237    0.216329    1.044704
     36          1           0       -2.813855   -1.182675    1.937842
     37          7           0        1.911553    1.876103    0.320039
     38          1           0        1.242329    2.098455    1.050096
     39          6           0        3.172565    2.595964    0.407772
     40          1           0        3.998550    1.891712    0.568036
     41          6           0        3.077397    3.487846    1.642893
     42          6           0        3.495211    3.421150   -0.862175
     43          1           0        3.710436    2.688107   -1.641329
     44          1           0        4.413706    3.986535   -0.678079
     45          8           0        2.079926    3.616411    2.318972
     46          6           0        2.353638    4.352604   -1.305048
     47          1           0        1.386127    3.937161   -0.999206
     48          1           0        2.439973    5.335773   -0.828141
     49          6           0        2.317655    4.546667   -2.828621
     50          1           0        3.279784    4.921417   -3.190763
     51          1           0        1.548797    5.273071   -3.109363
     52          7           0        2.018554    3.262898   -3.482754
     53          1           0        1.205015    2.751168   -3.096913
     54          7           0        3.823798    3.120106   -4.955512
     55          1           0        4.604998    2.589934   -5.312551
     56          1           0        3.795789    4.107094   -5.163653
     57          7           0        2.721768    1.199619   -4.218680
     58          1           0        3.283845    0.643716   -4.848840
     59          1           0        2.441901    0.767934   -3.323752
     60          6           0        2.866441    2.537059   -4.207726
     61          8           0        4.236736    4.124375    1.874740
     62          1           0        4.117891    4.672158    2.674634
 ---------------------------------------------------------------------

 SCF Done:  E(RB3LYP) =  -1447.48606630     A.U. after    1 cycles

 Alpha  occ. eigenvalues --  -19.30561 -19.25203 -19.23787 -19.23712 -19.23100
 Alpha  occ. eigenvalues --  -19.19068 -14.57694 -14.52234 -14.50069 -14.49965
 Alpha  occ. eigenvalues --  -14.46933 -14.41162 -10.47395 -10.43159 -10.39698
 Alpha  occ. eigenvalues --  -10.38275 -10.37974 -10.37357 -10.35801 -10.35173
 Alpha  occ. eigenvalues --  -10.32352 -10.31687 -10.30492 -10.30170 -10.29253
 Alpha  occ. eigenvalues --  -10.26538 -10.25742 -10.24097 -10.23337  -1.21659
 Alpha  occ. eigenvalues --   -1.15971  -1.15202  -1.14870  -1.14399  -1.12838
 Alpha  occ. eigenvalues --   -1.10422  -1.06997  -1.05215  -1.04137  -1.03489
 Alpha  occ. eigenvalues --   -0.99837  -0.92317  -0.91672  -0.88610  -0.87240
 Alpha  occ. eigenvalues --   -0.84024  -0.81939  -0.80518  -0.77573  -0.75865
 Alpha  occ. eigenvalues --   -0.74827  -0.74148  -0.73788  -0.72721  -0.71332
 Alpha  occ. eigenvalues --   -0.71175  -0.69830  -0.69572  -0.68044  -0.66656
 Alpha  occ. eigenvalues --   -0.65833  -0.65368  -0.64528  -0.62662  -0.62010
 Alpha  occ. eigenvalues --   -0.61400  -0.60695  -0.60174  -0.59768  -0.58965
 Alpha  occ. eigenvalues --   -0.58022  -0.57393  -0.56824  -0.56536  -0.55096
 Alpha  occ. eigenvalues --   -0.54862  -0.54379  -0.53755  -0.53100  -0.52592
 Alpha  occ. eigenvalues --   -0.51821  -0.51762  -0.51063  -0.50528  -0.49940
 Alpha  occ. eigenvalues --   -0.49613  -0.48890  -0.48480  -0.47801  -0.47355
 Alpha  occ. eigenvalues --   -0.46534  -0.46172  -0.45886  -0.45731  -0.45310
 Alpha  occ. eigenvalues --   -0.44679  -0.43325  -0.42950  -0.42764  -0.42709
 Alpha  occ. eigenvalues --   -0.40105  -0.39905  -0.39752  -0.39360  -0.38921
 Alpha  occ. eigenvalues --   -0.38723  -0.37458  -0.36914  -0.36795  -0.35334
 Alpha  occ. eigenvalues --   -0.34500  -0.32646
 Alpha virt. eigenvalues --   -0.12622  -0.10282  -0.09887  -0.08731  -0.08402
 Alpha virt. eigenvalues --   -0.07688  -0.05588  -0.04447  -0.04025  -0.02669
 Alpha virt. eigenvalues --   -0.01501  -0.01418  -0.00420   0.00230   0.00569

 Mulliken charges:
               1
     1  N   -0.759038
     2  H    0.410383
     3  H    0.411668
     4  H    0.398814
     5  C   -0.111568
     6  H    0.225877
     7  C    0.610800
     8  C   -0.300637
     9  H    0.152375
    10  H    0.182336
    11  O   -0.673700
    12  C   -0.382223
    13  H    0.180870
    14  H    0.177262
    15  C    0.577811
    16  O   -0.615468
    17  O   -0.443261
    18  N   -0.553756
    19  H    0.469277
    20  C   -0.061420
    21  H    0.152446
    22  C    0.648642
    23  C   -0.273604
    24  H    0.136875
    25  H    0.153584
    26  O   -0.593528
    27  C   -0.080209
    28  H    0.153650
    29  C   -0.444662
    30  H    0.142302
    31  H    0.156914
    32  H    0.152111
    33  C   -0.454494
    34  H    0.142759
    35  H    0.134886
    36  H    0.160732
    37  N   -0.622684
    38  H    0.369740
    39  C   -0.016310
    40  H    0.204826
    41  C    0.585543
    42  C   -0.296680
    43  H    0.170841
    44  H    0.180648
    45  O   -0.455096
    46  C   -0.292321
    47  H    0.181620
    48  H    0.173157
    49  C   -0.171827
    50  H    0.161102
    51  H    0.186377
    52  N   -0.612637
    53  H    0.426148
    54  N   -0.749346
    55  H    0.377601
    56  H    0.379977
    57  N   -0.790438
    58  H    0.357313
    59  H    0.448651
    60  C    0.745863
    61  O   -0.560764
    62  H    0.433888
 Sum of Mulliken charges =   1.00000

 Dipole moment (field-independent basis, Debye):
    X=              8.7054    Y=             17.7946    Z=            -17.5590  Tot=             26.4717
 Quadrupole moment (field-independent basis, Debye-Ang):
   XX=           -107.1422   YY=           -137.9939   ZZ=            -66.0194
   XY=             27.9119   XZ=            -20.1627   YZ=            -63.6345

 Normal termination of Gaussian 16 at Wed Jun  1 02:11:52 2022.
