 Gaussian 16, Revision C.01,
 Gaussian 16:  ES64L-G16RevC.01  3-Jul-2019

 ----------------------------------------------------------------------
 # B3LYP/6-31G* empiricaldispersion=gd3 guess=read geom=check nosymm in
 tegral(ultrafinegrid)
 ----------------------------------------------------------------------

 ------------------------------------------------------
 Candidate Structure: Conf:304 Charge calc in gas phase
 ------------------------------------------------------
 Structure from the checkpoint file:  "conf-304.chk"
 Charge =  1 Multiplicity = 1

                          Input orientation:
 ---------------------------------------------------------------------
 Center     Atomic      Atomic             Coordinates (Angstroms)
 Number     Number       Type             X           Y           Z
 ---------------------------------------------------------------------
      1          7           0       -2.306406    1.198516   -3.835439
      2          1           0       -3.209324    0.769251   -4.056918
      3          1           0       -2.441742    1.862009   -3.028181
      4          1           0       -1.957730    1.687032   -4.666781
      5          6           0       -1.285481    0.215436   -3.295499
      6          1           0       -1.554163   -0.787118   -3.637557
      7          6           0       -1.377865    0.405371   -1.765927
      8          6           0        0.123325    0.626301   -3.737824
      9          1           0        0.834551   -0.064481   -3.277156
     10          1           0        0.339523    1.615138   -3.311686
     11          8           0       -1.930027    1.433646   -1.346384
     12          6           0        0.404583    0.625331   -5.241874
     13          1           0        0.187174   -0.360028   -5.673840
     14          1           0       -0.169610    1.379031   -5.796006
     15          6           0        1.913829    0.939338   -5.433895
     16          8           0        2.213840    1.815459   -6.276383
     17          8           0        2.688679    0.287528   -4.674541
     18          7           0       -0.728973   -0.478200   -1.002227
     19          1           0       -0.248172   -1.248960   -1.452985
     20          6           0       -0.316933   -0.174792    0.386331
     21          1           0       -1.044604    0.547804    0.762496
     22          6           0        1.084404    0.501750    0.326080
     23          6           0       -0.304586   -1.435654    1.245870
     24          1           0        0.004284   -1.134636    2.253807
     25          1           0        0.491239   -2.099873    0.885307
     26          8           0        2.075428   -0.003548    0.832655
     27          6           0       -1.645673   -2.190073    1.310310
     28          1           0       -1.897814   -2.527070    0.292888
     29          6           0       -1.491550   -3.436057    2.194029
     30          1           0       -1.258462   -3.152602    3.227868
     31          1           0       -2.416332   -4.022820    2.209563
     32          1           0       -0.684555   -4.085834    1.835947
     33          6           0       -2.794514   -1.302141    1.811494
     34          1           0       -2.560680   -0.882996    2.798487
     35          1           0       -3.005451   -0.467496    1.132211
     36          1           0       -3.717366   -1.883846    1.910083
     37          7           0        1.104887    1.658858   -0.391018
     38          1           0        0.238610    2.074396   -0.713861
     39          6           0        2.330317    2.381206   -0.714816
     40          1           0        2.859239    2.658384    0.203871
     41          6           0        1.897860    3.637167   -1.456409
     42          6           0        3.272646    1.540700   -1.620148
     43          1           0        2.798615    1.405019   -2.596791
     44          1           0        3.344514    0.552461   -1.156396
     45          8           0        0.860726    3.735181   -2.085896
     46          6           0        4.687576    2.112903   -1.778030
     47          1           0        4.664191    3.152267   -2.122607
     48          1           0        5.192076    2.112586   -0.803027
     49          6           0        5.531636    1.285464   -2.763750
     50          1           0        5.465889    0.219915   -2.520927
     51          1           0        6.587550    1.555456   -2.666984
     52          7           0        5.093804    1.428360   -4.153368
     53          1           0        4.213794    0.923761   -4.423234
     54          7           0        6.657940    3.059373   -4.772930
     55          1           0        6.991123    3.692780   -5.485487
     56          1           0        7.380702    2.641591   -4.205375
     57          7           0        4.805052    2.605778   -6.111234
     58          1           0        5.197035    3.168895   -6.851629
     59          1           0        3.817536    2.248609   -6.221708
     60          6           0        5.517793    2.351689   -5.014890
     61          8           0        2.810070    4.617491   -1.378121
     62          1           0        2.481824    5.367004   -1.912391
 ---------------------------------------------------------------------

 SCF Done:  E(RB3LYP) =  -1447.49772071     A.U. after    3 cycles

 Alpha  occ. eigenvalues --  -19.30676 -19.27264 -19.25202 -19.21448 -19.18124
 Alpha  occ. eigenvalues --  -19.18056 -14.60063 -14.50504 -14.47787 -14.45762
 Alpha  occ. eigenvalues --  -14.45368 -14.45024 -10.43968 -10.43103 -10.42908
 Alpha  occ. eigenvalues --  -10.40469 -10.38654 -10.36370 -10.34167 -10.34004
 Alpha  occ. eigenvalues --  -10.32575 -10.31768 -10.29153 -10.28102 -10.27964
 Alpha  occ. eigenvalues --  -10.27457 -10.27396 -10.25208 -10.24585  -1.21698
 Alpha  occ. eigenvalues --   -1.19622  -1.14125  -1.13429  -1.12609  -1.11748
 Alpha  occ. eigenvalues --   -1.10960  -1.06857  -1.02834  -1.02365  -1.00762
 Alpha  occ. eigenvalues --   -0.99191  -0.93687  -0.90331  -0.89515  -0.86176
 Alpha  occ. eigenvalues --   -0.84858  -0.83118  -0.78464  -0.76096  -0.75534
 Alpha  occ. eigenvalues --   -0.74952  -0.74117  -0.73958  -0.73158  -0.72379
 Alpha  occ. eigenvalues --   -0.71483  -0.69936  -0.68527  -0.67122  -0.66621
 Alpha  occ. eigenvalues --   -0.65097  -0.63740  -0.63402  -0.61988  -0.61178
 Alpha  occ. eigenvalues --   -0.60473  -0.60046  -0.59326  -0.58928  -0.58006
 Alpha  occ. eigenvalues --   -0.57600  -0.56827  -0.56443  -0.55994  -0.55655
 Alpha  occ. eigenvalues --   -0.54559  -0.54058  -0.53093  -0.52588  -0.52164
 Alpha  occ. eigenvalues --   -0.51853  -0.51413  -0.50962  -0.50369  -0.50189
 Alpha  occ. eigenvalues --   -0.49227  -0.48890  -0.48585  -0.48282  -0.47348
 Alpha  occ. eigenvalues --   -0.47011  -0.46428  -0.45771  -0.45551  -0.44777
 Alpha  occ. eigenvalues --   -0.44583  -0.43923  -0.43456  -0.42222  -0.41776
 Alpha  occ. eigenvalues --   -0.41401  -0.40818  -0.40665  -0.39967  -0.38738
 Alpha  occ. eigenvalues --   -0.38494  -0.35594  -0.35107  -0.34433  -0.33455
 Alpha  occ. eigenvalues --   -0.33072  -0.32384
 Alpha virt. eigenvalues --   -0.13275  -0.10742  -0.10150  -0.07828  -0.07385
 Alpha virt. eigenvalues --   -0.05666  -0.04709  -0.04446  -0.03224  -0.02629
 Alpha virt. eigenvalues --   -0.02232  -0.01205  -0.00963   0.00619   0.00973

 Mulliken charges:
               1
     1  N   -0.746170
     2  H    0.416026
     3  H    0.433180
     4  H    0.419290
     5  C   -0.123114
     6  H    0.207505
     7  C    0.648243
     8  C   -0.328389
     9  H    0.208286
    10  H    0.199310
    11  O   -0.543621
    12  C   -0.365594
    13  H    0.169740
    14  H    0.143041
    15  C    0.611702
    16  O   -0.568969
    17  O   -0.589118
    18  N   -0.573298
    19  H    0.355400
    20  C   -0.111461
    21  H    0.211674
    22  C    0.633599
    23  C   -0.272932
    24  H    0.174660
    25  H    0.156398
    26  O   -0.500920
    27  C   -0.073254
    28  H    0.111364
    29  C   -0.444733
    30  H    0.155395
    31  H    0.155514
    32  H    0.148706
    33  C   -0.458806
    34  H    0.155055
    35  H    0.140347
    36  H    0.159862
    37  N   -0.659502
    38  H    0.368070
    39  C    0.011502
    40  H    0.196180
    41  C    0.577552
    42  C   -0.319797
    43  H    0.180360
    44  H    0.189753
    45  O   -0.477467
    46  C   -0.269344
    47  H    0.163218
    48  H    0.161753
    49  C   -0.166288
    50  H    0.185685
    51  H    0.148942
    52  N   -0.625908
    53  H    0.426285
    54  N   -0.757408
    55  H    0.359811
    56  H    0.366253
    57  N   -0.796921
    58  H    0.345722
    59  H    0.434724
    60  C    0.764744
    61  O   -0.549001
    62  H    0.427163
 Sum of Mulliken charges =   1.00000

 Dipole moment (field-independent basis, Debye):
    X=              4.5344    Y=              7.6381    Z=            -16.4372  Tot=             18.6838
 Quadrupole moment (field-independent basis, Debye-Ang):
   XX=            -61.3881   YY=           -133.5990   ZZ=           -101.7490
   XY=             44.3611   XZ=            -29.6638   YZ=            -38.9410

 Normal termination of Gaussian 16 at Wed Jun  1 02:12:10 2022.
