 Gaussian 16, Revision C.01,
 Gaussian 16:  ES64L-G16RevC.01  3-Jul-2019

 ----------------------------------------------------------------------
 # B3LYP/6-31G* empiricaldispersion=gd3 guess=read geom=check nosymm in
 tegral(ultrafinegrid)
 ----------------------------------------------------------------------

 ------------------------------------------------------
 Candidate Structure: Conf:705 Charge calc in gas phase
 ------------------------------------------------------
 Structure from the checkpoint file:  "conf-705.chk"
 Charge =  1 Multiplicity = 1

                          Input orientation:
 ---------------------------------------------------------------------
 Center     Atomic      Atomic             Coordinates (Angstroms)
 Number     Number       Type             X           Y           Z
 ---------------------------------------------------------------------
      1          7           0       -2.113049   -0.862746   -4.562684
      2          1           0       -2.804299   -1.617429   -4.524326
      3          1           0       -2.495057   -0.030079   -4.030402
      4          1           0       -1.932767   -0.627366   -5.542609
      5          6           0       -0.838589   -1.173322   -3.792682
      6          1           0       -0.757200   -2.258297   -3.691004
      7          6           0       -1.089456   -0.452241   -2.443833
      8          6           0        0.378662   -0.572093   -4.525422
      9          1           0        0.393565    0.514895   -4.389638
     10          1           0        0.270128   -0.768844   -5.601769
     11          8           0       -1.966732    0.424151   -2.422071
     12          6           0        1.725328   -1.139065   -4.064815
     13          1           0        1.799132   -1.160504   -2.972466
     14          1           0        1.883627   -2.154558   -4.437951
     15          6           0        2.910121   -0.239666   -4.483442
     16          8           0        3.971294   -0.833720   -4.783407
     17          8           0        2.707680    1.009936   -4.417832
     18          7           0       -0.308660   -0.790777   -1.417444
     19          1           0        0.457061   -1.438387   -1.577180
     20          6           0       -0.099236    0.080775   -0.252760
     21          1           0       -0.803620    0.908767   -0.345480
     22          6           0        1.356529    0.573588   -0.374747
     23          6           0       -0.311722   -0.673393    1.069537
     24          1           0       -0.133298    0.038835    1.886738
     25          1           0        0.465250   -1.444775    1.152845
     26          8           0        2.230090   -0.181571   -0.802924
     27          6           0       -1.704257   -1.309969    1.235182
     28          1           0       -1.829738   -2.048706    0.429728
     29          6           0       -1.772085   -2.053948    2.576624
     30          1           0       -1.666188   -1.354989    3.415759
     31          1           0       -2.733294   -2.566545    2.690846
     32          1           0       -0.977217   -2.803968    2.662442
     33          6           0       -2.836730   -0.278504    1.119344
     34          1           0       -2.709349    0.524549    1.857052
     35          1           0       -2.885778    0.177036    0.123895
     36          1           0       -3.806371   -0.750140    1.312786
     37          7           0        1.584099    1.842541    0.015854
     38          1           0        0.832731    2.439545    0.343048
     39          6           0        2.888915    2.478694   -0.123132
     40          1           0        3.664491    1.773882    0.190682
     41          6           0        2.884602    3.682703    0.807735
     42          6           0        3.132147    2.887617   -1.597999
     43          1           0        2.324694    3.568230   -1.899221
     44          1           0        3.017529    1.977685   -2.196215
     45          8           0        1.877268    4.227858    1.205683
     46          6           0        4.489744    3.543116   -1.883299
     47          1           0        4.547728    4.527001   -1.404736
     48          1           0        5.304184    2.941414   -1.460214
     49          6           0        4.723081    3.716251   -3.394854
     50          1           0        5.544015    4.419422   -3.582116
     51          1           0        3.840129    4.161962   -3.864064
     52          7           0        4.969481    2.457596   -4.090989
     53          1           0        4.117185    1.890262   -4.341636
     54          7           0        7.277985    2.425127   -3.672139
     55          1           0        8.169619    2.058047   -3.973941
     56          1           0        7.275342    3.416848   -3.486606
     57          7           0        6.223357    0.629161   -4.715834
     58          1           0        7.089495    0.114215   -4.643944
     59          1           0        5.338110    0.062350   -4.840597
     60          6           0        6.147038    1.839925   -4.160720
     61          8           0        4.129576    4.093160    1.108554
     62          1           0        4.044805    4.882350    1.678584
 ---------------------------------------------------------------------

 SCF Done:  E(RB3LYP) =  -1447.49968909     A.U. after    1 cycles

 Alpha  occ. eigenvalues --  -19.29474 -19.26673 -19.23877 -19.21695 -19.17203
 Alpha  occ. eigenvalues --  -19.16872 -14.59696 -14.49463 -14.47246 -14.46258
 Alpha  occ. eigenvalues --  -14.44743 -14.43893 -10.43420 -10.42117 -10.41842
 Alpha  occ. eigenvalues --  -10.40070 -10.38928 -10.35253 -10.34161 -10.33490
 Alpha  occ. eigenvalues --  -10.32306 -10.31676 -10.28186 -10.27987 -10.27835
 Alpha  occ. eigenvalues --  -10.27528 -10.27467 -10.25141 -10.24816  -1.20434
 Alpha  occ. eigenvalues --   -1.19069  -1.13945  -1.13389  -1.11541  -1.10914
 Alpha  occ. eigenvalues --   -1.10031  -1.06078  -1.02775  -1.01748  -1.00179
 Alpha  occ. eigenvalues --   -0.98472  -0.93090  -0.90418  -0.89198  -0.85834
 Alpha  occ. eigenvalues --   -0.84220  -0.82659  -0.77922  -0.76380  -0.75936
 Alpha  occ. eigenvalues --   -0.74833  -0.73718  -0.73497  -0.72637  -0.70972
 Alpha  occ. eigenvalues --   -0.70403  -0.69561  -0.68085  -0.67278  -0.66533
 Alpha  occ. eigenvalues --   -0.64617  -0.64061  -0.62973  -0.61393  -0.60179
 Alpha  occ. eigenvalues --   -0.59199  -0.59076  -0.58585  -0.58019  -0.57709
 Alpha  occ. eigenvalues --   -0.56700  -0.56240  -0.55880  -0.55611  -0.54991
 Alpha  occ. eigenvalues --   -0.53789  -0.53378  -0.53243  -0.52479  -0.51966
 Alpha  occ. eigenvalues --   -0.51618  -0.50883  -0.50750  -0.50051  -0.49455
 Alpha  occ. eigenvalues --   -0.48895  -0.48530  -0.48275  -0.47580  -0.47458
 Alpha  occ. eigenvalues --   -0.47043  -0.45974  -0.45556  -0.45025  -0.44640
 Alpha  occ. eigenvalues --   -0.43895  -0.43449  -0.42765  -0.41419  -0.41355
 Alpha  occ. eigenvalues --   -0.41237  -0.40972  -0.40568  -0.39278  -0.37863
 Alpha  occ. eigenvalues --   -0.37608  -0.35694  -0.35170  -0.34644  -0.32427
 Alpha  occ. eigenvalues --   -0.32134  -0.31270
 Alpha virt. eigenvalues --   -0.12113  -0.10621  -0.09004  -0.07549  -0.06508
 Alpha virt. eigenvalues --   -0.06124  -0.04201  -0.03842  -0.02093  -0.01766
 Alpha virt. eigenvalues --   -0.01155  -0.00575  -0.00168   0.00253   0.01374

 Mulliken charges:
               1
     1  N   -0.752751
     2  H    0.414903
     3  H    0.431222
     4  H    0.413667
     5  C   -0.114543
     6  H    0.209891
     7  C    0.649931
     8  C   -0.297908
     9  H    0.209572
    10  H    0.162037
    11  O   -0.538259
    12  C   -0.383002
    13  H    0.186761
    14  H    0.167196
    15  C    0.618706
    16  O   -0.576800
    17  O   -0.603035
    18  N   -0.569485
    19  H    0.365052
    20  C   -0.107646
    21  H    0.194286
    22  C    0.649376
    23  C   -0.266610
    24  H    0.157390
    25  H    0.159575
    26  O   -0.536641
    27  C   -0.069250
    28  H    0.120054
    29  C   -0.445786
    30  H    0.152754
    31  H    0.156736
    32  H    0.149833
    33  C   -0.469441
    34  H    0.149429
    35  H    0.156111
    36  H    0.158179
    37  N   -0.617974
    38  H    0.359296
    39  C   -0.029900
    40  H    0.202538
    41  C    0.583631
    42  C   -0.294371
    43  H    0.147842
    44  H    0.210827
    45  O   -0.460759
    46  C   -0.264811
    47  H    0.156509
    48  H    0.159007
    49  C   -0.179792
    50  H    0.149877
    51  H    0.184293
    52  N   -0.616965
    53  H    0.424965
    54  N   -0.758027
    55  H    0.360594
    56  H    0.363005
    57  N   -0.789612
    58  H    0.343650
    59  H    0.431748
    60  C    0.763458
    61  O   -0.558074
    62  H    0.427540
 Sum of Mulliken charges =   1.00000

 Dipole moment (field-independent basis, Debye):
    X=              5.8841    Y=              3.0131    Z=            -14.6653  Tot=             16.0865
 Quadrupole moment (field-independent basis, Debye-Ang):
   XX=            -55.9687   YY=           -134.3699   ZZ=            -96.8886
   XY=             60.6227   XZ=             -3.9857   YZ=              1.9309

 Normal termination of Gaussian 16 at Wed Jun  1 02:11:52 2022.
