 Gaussian 16, Revision C.01,
 Gaussian 16:  ES64L-G16RevC.01  3-Jul-2019

 ----------------------------------------------------------------------
 # B3LYP/6-31G* empiricaldispersion=gd3 guess=read geom=check nosymm in
 tegral(ultrafinegrid)
 ----------------------------------------------------------------------

 ------------------------------------------------------
 Candidate Structure: Conf:123 Charge calc in gas phase
 ------------------------------------------------------
 Structure from the checkpoint file:  "conf-123.chk"
 Charge =  1 Multiplicity = 1

                          Input orientation:
 ---------------------------------------------------------------------
 Center     Atomic      Atomic             Coordinates (Angstroms)
 Number     Number       Type             X           Y           Z
 ---------------------------------------------------------------------
      1          7           0       -3.460251   -0.499394   -3.448187
      2          1           0       -4.085390   -1.306073   -3.529106
      3          1           0       -3.805262    0.117629   -2.665090
      4          1           0       -3.449407    0.001373   -4.342819
      5          6           0       -2.063297   -0.863097   -2.989900
      6          1           0       -1.886410   -1.918417   -3.210397
      7          6           0       -2.077050   -0.523116   -1.482541
      8          6           0       -1.027710    0.066358   -3.639456
      9          1           0       -0.053631   -0.191101   -3.209058
     10          1           0       -1.225872    1.095115   -3.318465
     11          8           0       -2.981929    0.204525   -1.058970
     12          6           0       -0.916406    0.054545   -5.164300
     13          1           0       -0.634431   -0.926152   -5.557868
     14          1           0       -1.860026    0.350942   -5.651468
     15          6           0        0.156598    1.103661   -5.570147
     16          8           0        0.161720    2.158323   -4.868511
     17          8           0        0.914413    0.803255   -6.518556
     18          7           0       -1.014609   -0.948492   -0.788700
     19          1           0       -0.277660   -1.434020   -1.296969
     20          6           0       -0.467622   -0.205767    0.354751
     21          1           0       -1.162231    0.606858    0.577946
     22          6           0        0.893287    0.327204   -0.147205
     23          6           0       -0.293432   -1.132938    1.573948
     24          1           0        0.363887   -1.959244    1.273277
     25          1           0       -1.277115   -1.569121    1.790620
     26          8           0        1.539091   -0.329138   -0.966204
     27          6           0        0.265734   -0.469464    2.847552
     28          1           0        1.249090   -0.039411    2.616879
     29          6           0       -0.640069    0.658037    3.365589
     30          1           0       -1.643727    0.278535    3.594315
     31          1           0       -0.229221    1.091809    4.283023
     32          1           0       -0.759171    1.480512    2.648650
     33          6           0        0.464696   -1.537481    3.933335
     34          1           0       -0.491729   -1.998919    4.209394
     35          1           0        1.136906   -2.333505    3.593379
     36          1           0        0.895500   -1.097505    4.839162
     37          7           0        1.313054    1.506920    0.364341
     38          1           0        0.762807    1.943705    1.092099
     39          6           0        2.685050    1.977444    0.184849
     40          1           0        3.274470    1.108223   -0.128238
     41          6           0        3.300031    2.462222    1.498824
     42          6           0        2.842898    3.076414   -0.886508
     43          1           0        3.885272    3.410535   -0.831094
     44          1           0        2.218704    3.938214   -0.614393
     45          8           0        4.412552    2.921892    1.577233
     46          6           0        2.514046    2.611037   -2.310451
     47          1           0        3.004887    1.653979   -2.521743
     48          1           0        1.438052    2.441209   -2.430373
     49          6           0        2.984163    3.653368   -3.338520
     50          1           0        4.074931    3.741757   -3.287349
     51          1           0        2.561303    4.638119   -3.095112
     52          7           0        2.589319    3.267490   -4.688806
     53          1           0        1.615708    2.879067   -4.808160
     54          7           0        4.565659    3.897656   -5.766925
     55          1           0        5.160458    3.830189   -6.579783
     56          1           0        4.680496    4.727401   -5.204096
     57          7           0        2.985785    2.554554   -6.837673
     58          1           0        3.423087    2.718774   -7.732270
     59          1           0        2.168260    1.893582   -6.779091
     60          6           0        3.367208    3.249370   -5.765132
     61          8           0        2.466606    2.334442    2.561473
     62          1           0        2.947677    2.673176    3.341165
 ---------------------------------------------------------------------

 SCF Done:  E(RB3LYP) =  -1447.49424466     A.U. after    1 cycles

 Alpha  occ. eigenvalues --  -19.29971 -19.26598 -19.23581 -19.22910 -19.17411
 Alpha  occ. eigenvalues --  -19.17296 -14.59630 -14.48974 -14.47309 -14.47158
 Alpha  occ. eigenvalues --  -14.44583 -14.44294 -10.43202 -10.42134 -10.42002
 Alpha  occ. eigenvalues --  -10.39917 -10.39723 -10.35684 -10.34712 -10.34152
 Alpha  occ. eigenvalues --  -10.32030 -10.31232 -10.28655 -10.28649 -10.28489
 Alpha  occ. eigenvalues --  -10.27878 -10.27729 -10.26189 -10.25181  -1.20524
 Alpha  occ. eigenvalues --   -1.18906  -1.14897  -1.13521  -1.11533  -1.11057
 Alpha  occ. eigenvalues --   -1.10221  -1.06002  -1.03723  -1.02134  -1.00054
 Alpha  occ. eigenvalues --   -0.98482  -0.93187  -0.90856  -0.89524  -0.86165
 Alpha  occ. eigenvalues --   -0.84737  -0.82948  -0.78266  -0.76813  -0.75431
 Alpha  occ. eigenvalues --   -0.74585  -0.73528  -0.72853  -0.72110  -0.71949
 Alpha  occ. eigenvalues --   -0.71196  -0.69664  -0.69453  -0.67434  -0.65665
 Alpha  occ. eigenvalues --   -0.65120  -0.64942  -0.62664  -0.62129  -0.60672
 Alpha  occ. eigenvalues --   -0.60179  -0.58859  -0.58469  -0.58097  -0.57725
 Alpha  occ. eigenvalues --   -0.57329  -0.56828  -0.56251  -0.55969  -0.55074
 Alpha  occ. eigenvalues --   -0.54788  -0.53936  -0.53320  -0.52932  -0.52141
 Alpha  occ. eigenvalues --   -0.51657  -0.50988  -0.50864  -0.50134  -0.49871
 Alpha  occ. eigenvalues --   -0.49320  -0.48592  -0.48141  -0.47563  -0.47465
 Alpha  occ. eigenvalues --   -0.46627  -0.46402  -0.45736  -0.45484  -0.45083
 Alpha  occ. eigenvalues --   -0.44772  -0.43755  -0.43031  -0.42546  -0.41936
 Alpha  occ. eigenvalues --   -0.41584  -0.41029  -0.40812  -0.38841  -0.38426
 Alpha  occ. eigenvalues --   -0.37835  -0.36592  -0.35697  -0.34529  -0.32903
 Alpha  occ. eigenvalues --   -0.32379  -0.31636
 Alpha virt. eigenvalues --   -0.12028  -0.10574  -0.08928  -0.08774  -0.06665
 Alpha virt. eigenvalues --   -0.05848  -0.03751  -0.03330  -0.03182  -0.01918
 Alpha virt. eigenvalues --   -0.01355  -0.00802  -0.00122   0.00046   0.01224

 Mulliken charges:
               1
     1  N   -0.747798
     2  H    0.415685
     3  H    0.427879
     4  H    0.415216
     5  C   -0.125435
     6  H    0.209424
     7  C    0.636120
     8  C   -0.315332
     9  H    0.206624
    10  H    0.199822
    11  O   -0.526061
    12  C   -0.368886
    13  H    0.173721
    14  H    0.135690
    15  C    0.618031
    16  O   -0.601701
    17  O   -0.568656
    18  N   -0.571935
    19  H    0.363966
    20  C   -0.108248
    21  H    0.192412
    22  C    0.633344
    23  C   -0.250958
    24  H    0.155917
    25  H    0.161053
    26  O   -0.539148
    27  C   -0.101131
    28  H    0.143238
    29  C   -0.450844
    30  H    0.158566
    31  H    0.162662
    32  H    0.123150
    33  C   -0.446174
    34  H    0.151955
    35  H    0.153372
    36  H    0.156718
    37  N   -0.602137
    38  H    0.362753
    39  C   -0.069771
    40  H    0.220378
    41  C    0.597433
    42  C   -0.273106
    43  H    0.181717
    44  H    0.150425
    45  O   -0.437250
    46  C   -0.286668
    47  H    0.171192
    48  H    0.170351
    49  C   -0.146920
    50  H    0.160929
    51  H    0.165230
    52  N   -0.631664
    53  H    0.429312
    54  N   -0.760274
    55  H    0.361096
    56  H    0.365213
    57  N   -0.794348
    58  H    0.344862
    59  H    0.432459
    60  C    0.764960
    61  O   -0.579341
    62  H    0.430911
 Sum of Mulliken charges =   1.00000

 Dipole moment (field-independent basis, Debye):
    X=             -1.2256    Y=              4.9523    Z=            -12.0382  Tot=             13.0746
 Quadrupole moment (field-independent basis, Debye-Ang):
   XX=           -104.9517   YY=           -130.9628   ZZ=            -82.0502
   XY=             48.0634   XZ=             -7.5691   YZ=            -25.5918

 Normal termination of Gaussian 16 at Wed Jun  1 02:12:19 2022.
