 Gaussian 16, Revision C.01,
 Gaussian 16:  ES64L-G16RevC.01  3-Jul-2019

 ----------------------------------------------------------------------
 # B3LYP/6-31G* empiricaldispersion=gd3 guess=read geom=check nosymm in
 tegral(ultrafinegrid)
 ----------------------------------------------------------------------

 ------------------------------------------------------
 Candidate Structure: Conf:474 Charge calc in gas phase
 ------------------------------------------------------
 Structure from the checkpoint file:  "conf-474.chk"
 Charge =  1 Multiplicity = 1

                          Input orientation:
 ---------------------------------------------------------------------
 Center     Atomic      Atomic             Coordinates (Angstroms)
 Number     Number       Type             X           Y           Z
 ---------------------------------------------------------------------
      1          7           0       -3.405766   -0.570416   -3.895876
      2          1           0       -4.122774   -1.276506   -4.072338
      3          1           0       -3.593694   -0.014250   -3.006140
      4          1           0       -3.372330    0.077316   -4.689993
      5          6           0       -2.030317   -1.147781   -3.605585
      6          1           0       -2.207977   -2.147980   -3.197027
      7          6           0       -1.556430   -0.261597   -2.414233
      8          6           0       -1.181716   -1.245244   -4.876594
      9          1           0       -1.728170   -1.883115   -5.583377
     10          1           0       -0.259086   -1.778642   -4.626811
     11          8           0       -2.435506    0.399996   -1.827817
     12          6           0       -0.792961    0.093596   -5.515336
     13          1           0       -0.623480   -0.056697   -6.587611
     14          1           0       -1.581382    0.858264   -5.455197
     15          6           0        0.512760    0.721570   -4.950773
     16          8           0        0.676280    1.930075   -5.274671
     17          8           0        1.276296   -0.009337   -4.274299
     18          7           0       -0.283278   -0.350555   -2.064789
     19          1           0        0.401190   -0.661815   -2.768909
     20          6           0        0.268309    0.417606   -0.942524
     21          1           0       -0.021250    1.466925   -1.065788
     22          6           0        1.789483    0.244079   -0.998733
     23          6           0       -0.251753   -0.124185    0.409885
     24          1           0        0.060936   -1.173223    0.475061
     25          1           0       -1.346675   -0.103981    0.375987
     26          8           0        2.289727   -0.838575   -1.276731
     27          6           0        0.225502    0.643793    1.658434
     28          1           0        1.324056    0.649481    1.674141
     29          6           0       -0.256542    2.102275    1.672329
     30          1           0       -1.352287    2.148373    1.639663
     31          1           0        0.079401    2.609881    2.582129
     32          1           0        0.123034    2.686820    0.825903
     33          6           0       -0.253890   -0.090029    2.919543
     34          1           0       -1.350143   -0.122246    2.959273
     35          1           0        0.114183   -1.122105    2.946428
     36          1           0        0.097332    0.417876    3.824331
     37          7           0        2.520078    1.349365   -0.672325
     38          1           0        2.038012    2.149201   -0.276075
     39          6           0        3.915760    1.221413   -0.271064
     40          1           0        4.090872    0.172603   -0.004726
     41          6           0        4.112158    2.070877    0.980213
     42          6           0        4.932632    1.609352   -1.368957
     43          1           0        5.930573    1.440753   -0.952864
     44          1           0        4.853067    2.685855   -1.572402
     45          8           0        3.272382    2.812384    1.446517
     46          6           0        4.753828    0.805666   -2.674310
     47          1           0        5.737194    0.620337   -3.129252
     48          1           0        4.323447   -0.176132   -2.456665
     49          6           0        3.849150    1.481625   -3.705112
     50          1           0        2.895642    1.761954   -3.258338
     51          1           0        3.615215    0.801953   -4.528099
     52          7           0        4.495156    2.704605   -4.215551
     53          1           0        5.494680    2.659388   -4.370332
     54          7           0        2.544285    3.715951   -4.974513
     55          1           0        2.090665    4.567970   -5.276160
     56          1           0        1.915346    2.844492   -5.003576
     57          7           0        4.596770    4.812387   -5.154147
     58          1           0        4.154504    5.590608   -5.620550
     59          1           0        5.457265    5.018463   -4.667124
     60          6           0        3.851854    3.734991   -4.782082
     61          8           0        5.342236    1.911767    1.497634
     62          1           0        5.403619    2.482288    2.287931
 ---------------------------------------------------------------------

 SCF Done:  E(RB3LYP) =  -1447.49174638     A.U. after    1 cycles

 Alpha  occ. eigenvalues --  -19.29115 -19.24614 -19.23713 -19.20652 -19.17560
 Alpha  occ. eigenvalues --  -19.17278 -14.57871 -14.48936 -14.48457 -14.46432
 Alpha  occ. eigenvalues --  -14.46263 -14.45087 -10.44392 -10.41602 -10.41105
 Alpha  occ. eigenvalues --  -10.38576 -10.37800 -10.35727 -10.33003 -10.32618
 Alpha  occ. eigenvalues --  -10.30973 -10.30867 -10.28313 -10.28310 -10.27610
 Alpha  occ. eigenvalues --  -10.26503 -10.26398 -10.24415 -10.23925  -1.20159
 Alpha  occ. eigenvalues --   -1.16984  -1.12916  -1.12873  -1.11662  -1.11245
 Alpha  occ. eigenvalues --   -1.10677  -1.03714  -1.02509  -1.02089  -1.01785
 Alpha  occ. eigenvalues --   -1.00349  -0.91759  -0.89735  -0.88486  -0.85140
 Alpha  occ. eigenvalues --   -0.84094  -0.81884  -0.78113  -0.75367  -0.75061
 Alpha  occ. eigenvalues --   -0.74483  -0.74241  -0.72350  -0.71552  -0.70745
 Alpha  occ. eigenvalues --   -0.69688  -0.69005  -0.67541  -0.67010  -0.66393
 Alpha  occ. eigenvalues --   -0.64702  -0.63324  -0.62582  -0.61147  -0.60184
 Alpha  occ. eigenvalues --   -0.59617  -0.59093  -0.58209  -0.57944  -0.57505
 Alpha  occ. eigenvalues --   -0.56425  -0.56338  -0.55856  -0.54807  -0.54169
 Alpha  occ. eigenvalues --   -0.53785  -0.52927  -0.52805  -0.51917  -0.51603
 Alpha  occ. eigenvalues --   -0.50494  -0.50470  -0.50031  -0.49672  -0.49131
 Alpha  occ. eigenvalues --   -0.48883  -0.47956  -0.47512  -0.47187  -0.46495
 Alpha  occ. eigenvalues --   -0.45465  -0.45428  -0.44884  -0.44270  -0.43864
 Alpha  occ. eigenvalues --   -0.43601  -0.43481  -0.43234  -0.41307  -0.40824
 Alpha  occ. eigenvalues --   -0.40120  -0.39950  -0.39478  -0.38707  -0.37542
 Alpha  occ. eigenvalues --   -0.36897  -0.36549  -0.34754  -0.34248  -0.32969
 Alpha  occ. eigenvalues --   -0.32444  -0.31656
 Alpha virt. eigenvalues --   -0.11061  -0.08914  -0.08654  -0.08452  -0.06902
 Alpha virt. eigenvalues --   -0.05594  -0.04613  -0.02638  -0.01673  -0.01549
 Alpha virt. eigenvalues --   -0.01217  -0.00658  -0.00285   0.01103   0.01885

 Mulliken charges:
               1
     1  N   -0.753437
     2  H    0.409142
     3  H    0.430031
     4  H    0.406737
     5  C   -0.116608
     6  H    0.225632
     7  C    0.645041
     8  C   -0.300640
     9  H    0.157535
    10  H    0.217504
    11  O   -0.563135
    12  C   -0.380212
    13  H    0.192698
    14  H    0.131254
    15  C    0.607982
    16  O   -0.605067
    17  O   -0.584275
    18  N   -0.619880
    19  H    0.412094
    20  C   -0.024234
    21  H    0.170770
    22  C    0.600518
    23  C   -0.271075
    24  H    0.161146
    25  H    0.168504
    26  O   -0.516679
    27  C   -0.093912
    28  H    0.130665
    29  C   -0.444649
    30  H    0.151337
    31  H    0.165374
    32  H    0.126501
    33  C   -0.445659
    34  H    0.146959
    35  H    0.149762
    36  H    0.155336
    37  N   -0.614210
    38  H    0.360787
    39  C   -0.053865
    40  H    0.211713
    41  C    0.588447
    42  C   -0.269564
    43  H    0.177348
    44  H    0.138156
    45  O   -0.466173
    46  C   -0.323851
    47  H    0.142147
    48  H    0.214727
    49  C   -0.135136
    50  H    0.195469
    51  H    0.205395
    52  N   -0.608619
    53  H    0.347470
    54  N   -0.785892
    55  H    0.348997
    56  H    0.452405
    57  N   -0.767073
    58  H    0.366645
    59  H    0.365621
    60  C    0.793482
    61  O   -0.556088
    62  H    0.428598
 Sum of Mulliken charges =   1.00000

 Dipole moment (field-independent basis, Debye):
    X=              3.7270    Y=              8.5149    Z=            -17.3761  Tot=             19.7060
 Quadrupole moment (field-independent basis, Debye-Ang):
   XX=            -62.5052   YY=           -114.2179   ZZ=            -78.9585
   XY=             68.4537   XZ=              2.1869   YZ=            -35.4110

 Normal termination of Gaussian 16 at Wed Jun  1 02:11:52 2022.
