 Gaussian 16, Revision C.01,
 Gaussian 16:  ES64L-G16RevC.01  3-Jul-2019

 ----------------------------------------------------------------------
 # B3LYP/6-31G* empiricaldispersion=gd3 guess=read geom=check nosymm in
 tegral(ultrafinegrid)
 ----------------------------------------------------------------------

 ------------------------------------------------------
 Candidate Structure: Conf:306 Charge calc in gas phase
 ------------------------------------------------------
 Structure from the checkpoint file:  "conf-306.chk"
 Charge =  1 Multiplicity = 1

                          Input orientation:
 ---------------------------------------------------------------------
 Center     Atomic      Atomic             Coordinates (Angstroms)
 Number     Number       Type             X           Y           Z
 ---------------------------------------------------------------------
      1          7           0       -0.009355   -3.284351    3.246742
      2          1           0        0.776781   -2.772405    3.644998
      3          1           0       -1.228153   -3.788044    4.662396
      4          1           0        0.388243   -3.881159    2.521527
      5          6           0       -0.965066   -2.353412    2.648684
      6          1           0       -1.366097   -1.737191    3.463427
      7          6           0       -0.321350   -1.433102    1.609289
      8          6           0       -2.137335   -3.123400    1.990593
      9          1           0       -1.788492   -3.571159    1.050736
     10          1           0       -2.924465   -2.406985    1.729031
     11          8           0        0.751819   -1.681794    1.068055
     12          6           0       -2.733696   -4.233358    2.881687
     13          1           0       -2.022867   -5.061204    2.970142
     14          1           0       -3.644100   -4.613495    2.413390
     15          6           0       -3.107945   -3.713562    4.271068
     16          8           0       -2.074160   -3.584201    5.131966
     17          8           0       -4.230929   -3.394730    4.577872
     18          7           0       -1.031062   -0.301281    1.284852
     19          1           0       -1.886452   -0.077118    1.774210
     20          6           0       -0.550074    0.589545    0.251713
     21          1           0       -1.238547    1.439698    0.191932
     22          6           0        0.786194    1.185561    0.655397
     23          6           0       -0.546487   -0.135792   -1.177985
     24          1           0       -0.350312   -1.189496   -0.983439
     25          1           0       -1.571394   -0.042242   -1.548958
     26          8           0        1.315653    0.972100    1.846640
     27          6           0        0.460506    0.410123   -2.154946
     28          6           0        1.769368   -0.101858   -2.170216
     29          1           0        1.976247   -1.037080   -1.654982
     30          6           0        0.215046    1.608921   -2.847188
     31          1           0       -0.795287    2.010668   -2.887183
     32          6           0        2.823825    0.616572   -2.735100
     33          1           0        3.835182    0.219490   -2.715858
     34          6           0        1.260654    2.344899   -3.404820
     35          1           0        1.081622    3.295471   -3.896965
     36          8           0        3.564842    2.711391   -3.715742
     37          6           0        2.590707    1.889384   -3.292801
     38          7           0        1.551234    1.913463   -0.104869
     39          1           0        1.325848    2.160417   -1.068574
     40          6           0        2.896421    2.020342    0.445643
     41          1           0        3.458545    1.180396    0.004093
     42          6           0        2.626328    1.624150    1.881814
     43          6           0        3.649926    3.310900    0.133909
     44          1           0        3.393710    3.570585   -0.900440
     45          1           0        3.294214    4.117223    0.781120
     46          8           0        3.257438    1.671225    2.878426
     47          6           0        5.167702    3.098984    0.250948
     48          1           0        5.425042    2.138925   -0.216897
     49          1           0        5.442222    3.007726    1.308056
     50          6           0        6.008958    4.205631   -0.402779
     51          1           0        5.780405    5.174633    0.058914
     52          1           0        7.064970    4.004946   -0.178189
     53          6           0        5.850103    4.357581   -1.922886
     54          1           0        4.851796    4.730483   -2.179606
     55          1           0        6.565717    5.118911   -2.259661
     56          7           0        6.034943    3.075934   -2.656136
     57          1           0        6.383163    3.280769   -3.593454
     58          1           0        4.454172    2.533835   -3.284210
     59          1           0        6.767329    2.519531   -2.214695
     60          8           0        1.028496    3.782980    2.148887
     61          1           0        0.915389    4.715352    1.908485
     62          1           0        1.117931    3.793611    3.115061
 ---------------------------------------------------------------------

 SCF Done:  E(RB3LYP) =  -1526.23774890     A.U. after    3 cycles

 Alpha  occ. eigenvalues --  -19.37674 -19.31448 -19.28525 -19.26465 -19.24811
 Alpha  occ. eigenvalues --  -19.23671 -19.18534 -14.55364 -14.50026 -14.45094
 Alpha  occ. eigenvalues --  -14.43793 -10.48925 -10.48613 -10.41310 -10.40611
 Alpha  occ. eigenvalues --  -10.40340 -10.37215 -10.36707 -10.33969 -10.32975
 Alpha  occ. eigenvalues --  -10.32857 -10.32371 -10.31417 -10.31298 -10.31139
 Alpha  occ. eigenvalues --  -10.30830 -10.30625 -10.30535 -10.30067 -10.29986
 Alpha  occ. eigenvalues --  -10.27666  -1.30009  -1.21904  -1.16824  -1.15207
 Alpha  occ. eigenvalues --   -1.14619  -1.14141  -1.12682  -1.06681  -1.06643
 Alpha  occ. eigenvalues --   -1.00797  -1.00697  -0.97874  -0.96152  -0.92202
 Alpha  occ. eigenvalues --   -0.89411  -0.88320  -0.86774  -0.86353  -0.83530
 Alpha  occ. eigenvalues --   -0.81089  -0.80582  -0.78620  -0.77660  -0.75083
 Alpha  occ. eigenvalues --   -0.73561  -0.73338  -0.71338  -0.70937  -0.69743
 Alpha  occ. eigenvalues --   -0.67878  -0.67070  -0.66297  -0.66067  -0.65817
 Alpha  occ. eigenvalues --   -0.65433  -0.62951  -0.62208  -0.61562  -0.61409
 Alpha  occ. eigenvalues --   -0.60321  -0.59899  -0.59300  -0.58819  -0.57917
 Alpha  occ. eigenvalues --   -0.57694  -0.57309  -0.56422  -0.56143  -0.55549
 Alpha  occ. eigenvalues --   -0.55049  -0.54867  -0.54303  -0.53822  -0.53384
 Alpha  occ. eigenvalues --   -0.53179  -0.52578  -0.52229  -0.51845  -0.51394
 Alpha  occ. eigenvalues --   -0.50577  -0.50456  -0.50253  -0.49736  -0.48969
 Alpha  occ. eigenvalues --   -0.48673  -0.47092  -0.46896  -0.46864  -0.45826
 Alpha  occ. eigenvalues --   -0.45232  -0.45177  -0.44987  -0.44459  -0.44252
 Alpha  occ. eigenvalues --   -0.43790  -0.43596  -0.42730  -0.42162  -0.39649
 Alpha  occ. eigenvalues --   -0.38795  -0.37721  -0.37517  -0.36451  -0.36278
 Alpha  occ. eigenvalues --   -0.33277  -0.32144
 Alpha virt. eigenvalues --   -0.19637  -0.14656  -0.12659  -0.11851  -0.10494
 Alpha virt. eigenvalues --   -0.07220  -0.05900  -0.04992  -0.04827  -0.03741
 Alpha virt. eigenvalues --   -0.02939  -0.02411  -0.01939  -0.01489  -0.00632

 Mulliken charges:
               1
     1  N   -0.736140
     2  H    0.333815
     3  H    0.442768
     4  H    0.332933
     5  C   -0.099787
     6  H    0.184230
     7  C    0.622173
     8  C   -0.284617
     9  H    0.162191
    10  H    0.161111
    11  O   -0.531522
    12  C   -0.360430
    13  H    0.170418
    14  H    0.191149
    15  C    0.576188
    16  O   -0.587844
    17  O   -0.440545
    18  N   -0.598833
    19  H    0.359680
    20  C   -0.086120
    21  H    0.217897
    22  C    0.742538
    23  C   -0.342892
    24  H    0.209118
    25  H    0.181656
    26  O   -0.462026
    27  C    0.085815
    28  C   -0.179470
    29  H    0.171330
    30  C   -0.215228
    31  H    0.153712
    32  C   -0.206538
    33  H    0.157893
    34  C   -0.177963
    35  H    0.172782
    36  O   -0.671950
    37  C    0.354890
    38  N   -0.590265
    39  H    0.392930
    40  C   -0.036578
    41  H    0.233154
    42  C    0.651830
    43  C   -0.289466
    44  H    0.178129
    45  H    0.176805
    46  O   -0.373185
    47  C   -0.280764
    48  H    0.142660
    49  H    0.181616
    50  C   -0.295641
    51  H    0.163929
    52  H    0.162832
    53  C   -0.137099
    54  H    0.162221
    55  H    0.167335
    56  N   -0.781631
    57  H    0.345293
    58  H    0.452252
    59  H    0.328337
    60  O   -0.796297
    61  H    0.417263
    62  H    0.421962
 Sum of Mulliken charges =   1.00000

 Dipole moment (field-independent basis, Debye):
    X=             12.6942    Y=             11.1974    Z=             -3.1829  Tot=             17.2237
 Quadrupole moment (field-independent basis, Debye-Ang):
   XX=           -122.2025   YY=           -122.3976   ZZ=           -193.6824
   XY=             28.3744   XZ=              3.4165   YZ=              8.9858

 Normal termination of Gaussian 16 at Wed Jun  1 23:53:27 2022.
