 Gaussian 16, Revision C.01,
 Gaussian 16:  ES64L-G16RevC.01  3-Jul-2019

 ----------------------------------------------------------------------
 # B3LYP/6-31G* empiricaldispersion=gd3 guess=read geom=check nosymm in
 tegral(ultrafinegrid)
 ----------------------------------------------------------------------

 -----------------------------------------------------
 Candidate Structure: Conf:51 Charge calc in gas phase
 -----------------------------------------------------
 Structure from the checkpoint file:  "conf-51.chk"
 Charge =  1 Multiplicity = 1

                          Input orientation:
 ---------------------------------------------------------------------
 Center     Atomic      Atomic             Coordinates (Angstroms)
 Number     Number       Type             X           Y           Z
 ---------------------------------------------------------------------
      1          7           0       -1.605941   -4.146439    2.170829
      2          1           0       -1.082656   -4.602550    2.922497
      3          1           0       -2.602128   -4.356106    2.288378
      4          1           0       -1.307224   -4.494286    1.212885
      5          6           0       -1.335674   -2.661161    2.049082
      6          1           0       -0.291564   -2.532845    2.357791
      7          6           0       -1.272321   -2.452939    0.501212
      8          6           0       -2.264244   -1.794785    2.931327
      9          1           0       -2.960567   -2.439500    3.480272
     10          1           0       -2.883126   -1.147642    2.303810
     11          8           0       -1.074828   -3.471482   -0.170286
     12          6           0       -1.488173   -0.940606    3.948563
     13          1           0       -0.924029   -1.564443    4.648928
     14          1           0       -2.198286   -0.354777    4.543834
     15          6           0       -0.539175    0.032686    3.264713
     16          8           0        0.568677    0.234198    3.954558
     17          8           0       -0.788566    0.548594    2.182345
     18          7           0       -1.386553   -1.189080    0.070727
     19          1           0       -1.508360   -0.506734    0.823782
     20          6           0       -0.564821   -0.591248   -1.001307
     21          1           0       -1.112877    0.288218   -1.354245
     22          6           0        0.737842   -0.140732   -0.309624
     23          6           0       -0.214426   -1.482369   -2.225695
     24          1           0        0.060502   -2.478087   -1.881058
     25          1           0       -1.109159   -1.582822   -2.849158
     26          8           0        1.336760   -0.930040    0.445274
     27          6           0        0.947648   -0.844245   -2.954762
     28          6           0        0.792618    0.304269   -3.741383
     29          1           0       -0.206868    0.654362   -3.995733
     30          6           0        2.250408   -1.289811   -2.683856
     31          1           0        2.393148   -2.178969   -2.075366
     32          6           0        1.900977    1.024126   -4.192765
     33          1           0        1.769483    1.912483   -4.804330
     34          6           0        3.361998   -0.588381   -3.130595
     35          1           0        4.369703   -0.925296   -2.909077
     36          8           0        4.313730    1.275136   -4.201250
     37          6           0        3.202566    0.601575   -3.860047
     38          7           0        1.150284    1.109481   -0.552809
     39          1           0        0.635700    1.628103   -1.252318
     40          6           0        2.510361    1.616527   -0.282311
     41          1           0        3.216856    0.826401   -0.570761
     42          6           0        2.670422    1.894532    1.232110
     43          6           0        2.743059    2.883960   -1.113644
     44          1           0        2.259848    2.751178   -2.089135
     45          1           0        2.257941    3.722712   -0.602833
     46          8           0        2.973551    2.963878    1.691851
     47          6           0        4.224980    3.204306   -1.349458
     48          1           0        4.659709    2.417882   -1.976639
     49          1           0        4.747040    3.181313   -0.387454
     50          6           0        4.425910    4.593876   -2.008203
     51          1           0        3.461323    5.112313   -2.113527
     52          1           0        5.023530    5.229412   -1.345923
     53          6           0        5.121167    4.575912   -3.372858
     54          1           0        5.426029    5.599357   -3.634501
     55          1           0        6.030546    3.966815   -3.320977
     56          7           0        4.259127    3.992488   -4.432182
     57          1           0        4.722039    4.090703   -5.336417
     58          1           0        3.398036    4.535625   -4.501748
     59          1           0        4.132364    2.257948   -4.340839
     60          8           0        2.429230    0.824581    2.028035
     61          1           0        2.169687    0.027315    1.474414
     62          1           0        1.212960    0.762427    3.407228
 ---------------------------------------------------------------------

 SCF Done:  E(RB3LYP) =  -1526.29709104     A.U. after    1 cycles

 Alpha  occ. eigenvalues --  -19.30301 -19.27753 -19.27642 -19.26210 -19.24831
 Alpha  occ. eigenvalues --  -19.22439 -19.22035 -14.61288 -14.49497 -14.48280
 Alpha  occ. eigenvalues --  -14.42410 -10.44609 -10.44473 -10.41865 -10.41178
 Alpha  occ. eigenvalues --  -10.40705 -10.36107 -10.35817 -10.33861 -10.33580
 Alpha  occ. eigenvalues --  -10.32155 -10.29312 -10.29223 -10.27590 -10.27434
 Alpha  occ. eigenvalues --  -10.27310 -10.26909 -10.26562 -10.26269 -10.25895
 Alpha  occ. eigenvalues --  -10.25881  -1.22112  -1.20229  -1.18670  -1.16051
 Alpha  occ. eigenvalues --   -1.14959  -1.13294  -1.10855  -1.10354  -1.06801
 Alpha  occ. eigenvalues --   -1.04737  -0.97913  -0.95926  -0.93692  -0.90423
 Alpha  occ. eigenvalues --   -0.88709  -0.87164  -0.84263  -0.82571  -0.81948
 Alpha  occ. eigenvalues --   -0.80678  -0.77902  -0.76158  -0.75744  -0.73859
 Alpha  occ. eigenvalues --   -0.72739  -0.71044  -0.70528  -0.69725  -0.69372
 Alpha  occ. eigenvalues --   -0.69005  -0.67668  -0.66478  -0.65763  -0.64745
 Alpha  occ. eigenvalues --   -0.63367  -0.62919  -0.62438  -0.61363  -0.61042
 Alpha  occ. eigenvalues --   -0.59957  -0.59170  -0.58646  -0.58204  -0.56927
 Alpha  occ. eigenvalues --   -0.56058  -0.55827  -0.55145  -0.54872  -0.54368
 Alpha  occ. eigenvalues --   -0.53872  -0.53617  -0.53334  -0.52881  -0.51938
 Alpha  occ. eigenvalues --   -0.51522  -0.51302  -0.51209  -0.50842  -0.50105
 Alpha  occ. eigenvalues --   -0.49877  -0.49114  -0.48694  -0.48349  -0.47819
 Alpha  occ. eigenvalues --   -0.47398  -0.47273  -0.45297  -0.44752  -0.44156
 Alpha  occ. eigenvalues --   -0.43682  -0.43211  -0.42198  -0.41761  -0.41514
 Alpha  occ. eigenvalues --   -0.41299  -0.40841  -0.40419  -0.40272  -0.39752
 Alpha  occ. eigenvalues --   -0.39332  -0.38719  -0.37817  -0.35285  -0.34500
 Alpha  occ. eigenvalues --   -0.33094  -0.28965
 Alpha virt. eigenvalues --   -0.14514  -0.12156  -0.11599  -0.09548  -0.08807
 Alpha virt. eigenvalues --   -0.07887  -0.07505  -0.07224  -0.05619  -0.03193
 Alpha virt. eigenvalues --   -0.02807  -0.01513  -0.00985  -0.00466   0.00965

 Mulliken charges:
               1
     1  N   -0.755939
     2  H    0.419326
     3  H    0.413764
     4  H    0.436960
     5  C   -0.116467
     6  H    0.249870
     7  C    0.651475
     8  C   -0.325642
     9  H    0.175180
    10  H    0.212880
    11  O   -0.527687
    12  C   -0.364050
    13  H    0.188650
    14  H    0.222183
    15  C    0.597711
    16  O   -0.558012
    17  O   -0.496294
    18  N   -0.608515
    19  H    0.397105
    20  C   -0.062522
    21  H    0.171364
    22  C    0.659090
    23  C   -0.362506
    24  H    0.202990
    25  H    0.174876
    26  O   -0.605194
    27  C    0.127271
    28  C   -0.213736
    29  H    0.130711
    30  C   -0.179264
    31  H    0.141108
    32  C   -0.199178
    33  H    0.134376
    34  C   -0.174221
    35  H    0.152725
    36  O   -0.689245
    37  C    0.371615
    38  N   -0.581233
    39  H    0.354974
    40  C   -0.077604
    41  H    0.203285
    42  C    0.641940
    43  C   -0.318825
    44  H    0.146061
    45  H    0.176672
    46  O   -0.424754
    47  C   -0.287031
    48  H    0.170503
    49  H    0.166209
    50  C   -0.274495
    51  H    0.136693
    52  H    0.167309
    53  C   -0.146279
    54  H    0.150396
    55  H    0.170963
    56  N   -0.775405
    57  H    0.337292
    58  H    0.319912
    59  H    0.471555
    60  O   -0.646429
    61  H    0.458232
    62  H    0.467302
 Sum of Mulliken charges =   1.00000

 Dipole moment (field-independent basis, Debye):
    X=             -4.3058    Y=             -6.6013    Z=              3.7591  Tot=              8.7320
 Quadrupole moment (field-independent basis, Debye-Ang):
   XX=           -148.9828   YY=           -104.2280   ZZ=           -134.6018
   XY=             43.3921   XZ=            -39.3435   YZ=            -71.5186

 Normal termination of Gaussian 16 at Wed Jun  1 23:53:09 2022.
