 Gaussian 16, Revision C.01,
 Gaussian 16:  ES64L-G16RevC.01  3-Jul-2019

 ----------------------------------------------------------------------
 # B3LYP/6-31G* empiricaldispersion=gd3 guess=read geom=check nosymm in
 tegral(ultrafinegrid)
 ----------------------------------------------------------------------

 ------------------------------------------------------
 Candidate Structure: Conf:384 Charge calc in gas phase
 ------------------------------------------------------
 Structure from the checkpoint file:  "conf-384.chk"
 Charge =  1 Multiplicity = 1

                          Input orientation:
 ---------------------------------------------------------------------
 Center     Atomic      Atomic             Coordinates (Angstroms)
 Number     Number       Type             X           Y           Z
 ---------------------------------------------------------------------
      1          7           0       -0.105815   -4.351425    2.879440
      2          1           0        0.906176   -4.231427    2.914235
      3          1           0       -0.410788   -4.817403    3.732075
      4          1           0       -0.304420   -4.958644    2.084868
      5          6           0       -0.768250   -3.047455    2.697643
      6          1           0       -0.502361   -2.392546    3.538957
      7          6           0       -0.235350   -2.404984    1.413677
      8          6           0       -2.286686   -3.172424    2.663905
      9          1           0       -2.574508   -3.849940    1.858322
     10          1           0       -2.719619   -2.199098    2.433226
     11          8           0        0.525577   -3.004821    0.672383
     12          6           0       -2.901255   -3.659377    3.972012
     13          1           0       -2.630397   -2.998635    4.795722
     14          1           0       -2.595387   -4.684120    4.201727
     15          6           0       -4.420088   -3.618089    3.733143
     16          8           0       -4.995070   -2.561795    4.053629
     17          8           0       -4.907509   -4.638830    3.213730
     18          7           0       -0.702253   -1.147592    1.168990
     19          1           0       -1.150981   -0.688774    1.942218
     20          6           0       -0.078471   -0.255687    0.199647
     21          1           0       -0.756476    0.601396    0.111356
     22          6           0        1.258197    0.274632    0.738301
     23          6           0        0.031554   -0.882938   -1.204223
     24          1           0        0.829299   -1.618552   -1.224439
     25          1           0       -0.904666   -1.414095   -1.368112
     26          8           0        1.825623   -0.207778    1.724957
     27          6           0        0.234165    0.141610   -2.275494
     28          6           0       -0.771723    1.078199   -2.545120
     29          1           0       -1.706230    1.000688   -1.995133
     30          6           0        1.439577    0.223873   -2.982912
     31          1           0        2.231451   -0.486700   -2.757711
     32          6           0       -0.598254    2.085245   -3.458267
     33          1           0       -1.373891    2.807546   -3.667559
     34          6           0        1.661968    1.211299   -3.904472
     35          1           0        2.602020    1.289397   -4.436531
     36          8           0        0.841673    3.121355   -5.004094
     37          6           0        0.651432    2.212798   -4.181656
     38          7           0        1.784353    1.322006    0.071599
     39          1           0        1.309719    1.650640   -0.759366
     40          6           0        3.185945    1.696723    0.246659
     41          1           0        3.759504    0.774401    0.400697
     42          6           0        3.409728    2.479657    1.515234
     43          6           0        3.735842    2.401525   -0.993907
     44          1           0        4.779179    2.655680   -0.802496
     45          1           0        3.730430    1.659331   -1.803797
     46          8           0        4.234788    3.310985    1.712820
     47          6           0        2.963065    3.631992   -1.430631
     48          1           0        2.925198    4.352806   -0.612750
     49          1           0        1.931811    3.357648   -1.664700
     50          6           0        3.589447    4.282640   -2.653482
     51          1           0        4.550546    4.723466   -2.376884
     52          1           0        3.805251    3.521642   -3.412923
     53          6           0        2.703953    5.343468   -3.278890
     54          1           0        3.175813    5.747049   -4.177944
     55          1           0        1.761867    4.882885   -3.578733
     56          7           0        2.409593    6.451740   -2.335082
     57          1           0        1.959997    7.242577   -2.796250
     58          1           0        3.264037    6.780662   -1.889624
     59          1           0        1.785177    6.136090   -1.595046
     60          8           0        2.555360    2.075986    2.603806
     61          1           0        2.297434    1.084484    2.471333
     62          1           0        3.050811    2.237834    3.432024
 ---------------------------------------------------------------------

 SCF Done:  E(RB3LYP) =  -1526.01529769     A.U. after    1 cycles

 Alpha  occ. eigenvalues --  -19.46736 -19.34203 -19.30241 -19.25071 -19.11355
 Alpha  occ. eigenvalues --  -19.07961 -19.07714 -14.64830 -14.60692 -14.52326
 Alpha  occ. eigenvalues --  -14.48831 -10.50778 -10.45105 -10.42321 -10.41588
 Alpha  occ. eigenvalues --  -10.39614 -10.38329 -10.36295 -10.34457 -10.34427
 Alpha  occ. eigenvalues --  -10.34259 -10.28698 -10.27644 -10.27036 -10.26355
 Alpha  occ. eigenvalues --  -10.24285 -10.24101 -10.23430 -10.23163 -10.21722
 Alpha  occ. eigenvalues --  -10.21682  -1.35565  -1.24446  -1.21951  -1.19796
 Alpha  occ. eigenvalues --   -1.18253  -1.15105  -1.09833  -1.05907  -1.02155
 Alpha  occ. eigenvalues --   -1.01715  -0.97724  -0.94909  -0.92710  -0.92561
 Alpha  occ. eigenvalues --   -0.90564  -0.89455  -0.87066  -0.84609  -0.83073
 Alpha  occ. eigenvalues --   -0.81872  -0.80099  -0.79617  -0.79215  -0.78125
 Alpha  occ. eigenvalues --   -0.76871  -0.75938  -0.74575  -0.74465  -0.73774
 Alpha  occ. eigenvalues --   -0.72825  -0.71296  -0.69890  -0.69104  -0.68438
 Alpha  occ. eigenvalues --   -0.66762  -0.66439  -0.66085  -0.64164  -0.63676
 Alpha  occ. eigenvalues --   -0.63239  -0.62160  -0.61785  -0.61535  -0.59617
 Alpha  occ. eigenvalues --   -0.58834  -0.58554  -0.57445  -0.57095  -0.55374
 Alpha  occ. eigenvalues --   -0.55104  -0.54510  -0.54397  -0.53231  -0.52545
 Alpha  occ. eigenvalues --   -0.52341  -0.51618  -0.50503  -0.50360  -0.50094
 Alpha  occ. eigenvalues --   -0.49680  -0.49546  -0.49124  -0.48315  -0.47876
 Alpha  occ. eigenvalues --   -0.47054  -0.46314  -0.45501  -0.43986  -0.43755
 Alpha  occ. eigenvalues --   -0.43317  -0.43129  -0.42347  -0.41491  -0.40198
 Alpha  occ. eigenvalues --   -0.39656  -0.39046  -0.38031  -0.37590  -0.36152
 Alpha  occ. eigenvalues --   -0.35718  -0.30752  -0.25204  -0.23292  -0.22706
 Alpha  occ. eigenvalues --   -0.22401  -0.21229
 Alpha virt. eigenvalues --   -0.20222  -0.15116  -0.14745  -0.13294  -0.11090
 Alpha virt. eigenvalues --   -0.10008  -0.08994  -0.08520  -0.05544  -0.05488
 Alpha virt. eigenvalues --   -0.04924  -0.04200  -0.03947  -0.03800  -0.03573

 Mulliken charges:
               1
     1  N   -0.698299
     2  H    0.415291
     3  H    0.419960
     4  H    0.428553
     5  C   -0.160733
     6  H    0.197513
     7  C    0.649416
     8  C   -0.292994
     9  H    0.186850
    10  H    0.194698
    11  O   -0.512912
    12  C   -0.348518
    13  H    0.131019
    14  H    0.110443
    15  C    0.558508
    16  O   -0.555350
    17  O   -0.554255
    18  N   -0.587434
    19  H    0.343801
    20  C   -0.092320
    21  H    0.190095
    22  C    0.640295
    23  C   -0.353602
    24  H    0.186601
    25  H    0.187809
    26  O   -0.589305
    27  C    0.086236
    28  C   -0.196936
    29  H    0.108255
    30  C   -0.197378
    31  H    0.094071
    32  C   -0.234444
    33  H    0.110874
    34  C   -0.242419
    35  H    0.096091
    36  O   -0.652324
    37  C    0.413165
    38  N   -0.605949
    39  H    0.399930
    40  C   -0.091367
    41  H    0.234130
    42  C    0.575467
    43  C   -0.301446
    44  H    0.187542
    45  H    0.212418
    46  O   -0.376441
    47  C   -0.310726
    48  H    0.117372
    49  H    0.184982
    50  C   -0.294696
    51  H    0.157706
    52  H    0.235901
    53  C   -0.249578
    54  H    0.234050
    55  H    0.281110
    56  N   -0.715825
    57  H    0.439005
    58  H    0.417254
    59  H    0.425213
    60  O   -0.604315
    61  H    0.482293
    62  H    0.485652
 Sum of Mulliken charges =   1.00000

 Dipole moment (field-independent basis, Debye):
    X=             29.3214    Y=             21.9889    Z=              6.0499  Tot=             37.1464
 Quadrupole moment (field-independent basis, Debye-Ang):
   XX=           -213.8492   YY=             -7.8578   ZZ=           -195.0990
   XY=             15.0542   XZ=             48.8962   YZ=            -31.3042

 Normal termination of Gaussian 16 at Thu Jun  2 00:02:24 2022.
