 Gaussian 16, Revision C.01,
 Gaussian 16:  ES64L-G16RevC.01  3-Jul-2019

 ----------------------------------------------------------------------
 # B3LYP/6-31G* empiricaldispersion=gd3 guess=read geom=check nosymm in
 tegral(ultrafinegrid)
 ----------------------------------------------------------------------

 ------------------------------------------------------
 Candidate Structure: Conf:794 Charge calc in gas phase
 ------------------------------------------------------
 Structure from the checkpoint file:  "conf-794.chk"
 Charge =  1 Multiplicity = 1

                          Input orientation:
 ---------------------------------------------------------------------
 Center     Atomic      Atomic             Coordinates (Angstroms)
 Number     Number       Type             X           Y           Z
 ---------------------------------------------------------------------
      1          7           0       -1.225794   -3.935957    3.007317
      2          1           0       -0.244981   -3.994302    3.305519
      3          1           0       -1.835073   -4.402013    3.694425
      4          1           0       -1.294984   -4.431587    2.101162
      5          6           0       -1.673785   -2.510416    2.771612
      6          1           0       -1.375555   -1.909494    3.641118
      7          6           0       -0.889325   -2.049527    1.536421
      8          6           0       -3.198299   -2.479972    2.606767
      9          1           0       -3.500263   -1.459691    2.338387
     10          1           0       -3.669072   -2.708336    3.574136
     11          8           0       -0.171258   -2.862910    0.959132
     12          6           0       -3.757843   -3.445487    1.564358
     13          1           0       -3.565201   -4.493939    1.842977
     14          1           0       -3.348181   -3.244950    0.565409
     15          6           0       -5.332124   -3.190691    1.614059
     16          8           0       -5.731278   -2.365338    0.767730
     17          8           0       -5.886583   -3.778953    2.567605
     18          7           0       -1.128858   -0.766507    1.156651
     19          1           0       -1.600088   -0.186020    1.843516
     20          6           0       -0.348730   -0.051285    0.153261
     21          1           0       -0.913251    0.853426   -0.095236
     22          6           0        0.987467    0.412900    0.728453
     23          6           0       -0.200852   -0.797917   -1.235609
     24          1           0        0.378772   -1.715340   -1.122542
     25          1           0       -1.228874   -1.080605   -1.499496
     26          8           0        1.532599   -0.077455    1.745423
     27          6           0        0.435336    0.142633   -2.233739
     28          6           0       -0.265238    1.301263   -2.649270
     29          1           0       -1.317523    1.404948   -2.376927
     30          6           0        1.789344    0.049779   -2.619447
     31          1           0        2.364885   -0.827026   -2.314390
     32          6           0        0.359367    2.346614   -3.319508
     33          1           0       -0.198113    3.242226   -3.588031
     34          6           0        2.428553    1.079421   -3.320379
     35          1           0        3.483357    1.001763   -3.579449
     36          8           0        2.348496    3.317611   -4.212185
     37          6           0        1.757065    2.319387   -3.671603
     38          7           0        1.560654    1.475453    0.098174
     39          1           0        1.093512    1.783628   -0.759657
     40          6           0        3.021023    1.672046    0.019699
     41          1           0        3.477804    0.891324   -0.606751
     42          6           0        3.725990    1.511810    1.324062
     43          6           0        3.291783    3.007975   -0.717666
     44          1           0        2.585631    2.986922   -1.557187
     45          1           0        3.041313    3.880516   -0.097375
     46          8           0        4.821328    1.180057    1.633447
     47          6           0        4.726613    3.069416   -1.284677
     48          1           0        4.967798    2.107404   -1.745765
     49          1           0        5.450890    3.229205   -0.472139
     50          6           0        4.871903    4.078631   -2.432735
     51          1           0        5.877641    3.971969   -2.869236
     52          1           0        4.146489    3.759970   -3.205364
     53          6           0        4.636368    5.543411   -2.086082
     54          1           0        3.608926    5.741248   -1.767966
     55          1           0        5.307042    5.935623   -1.314041
     56          7           0        4.857441    6.344229   -3.366248
     57          1           0        4.704868    7.355053   -3.245465
     58          1           0        4.211955    6.005248   -4.099184
     59          1           0        5.815213    6.210450   -3.721935
     60          8           0        2.802396    1.901055    2.550803
     61          1           0        2.061825    1.213247    2.449828
     62          1           0        3.313152    1.657565    3.360042
 ---------------------------------------------------------------------

 SCF Done:  E(RB3LYP) =  -1526.03847822     A.U. after    2 cycles

 Alpha  occ. eigenvalues --  -19.42229 -19.35043 -19.29000 -19.24487 -19.13615
 Alpha  occ. eigenvalues --  -19.07169 -19.06699 -14.64230 -14.58635 -14.51199
 Alpha  occ. eigenvalues --  -14.48964 -10.50976 -10.44598 -10.41825 -10.41533
 Alpha  occ. eigenvalues --  -10.41043 -10.37471 -10.36433 -10.33867 -10.33098
 Alpha  occ. eigenvalues --  -10.33002 -10.29158 -10.28868 -10.27669 -10.26044
 Alpha  occ. eigenvalues --  -10.25817 -10.25756 -10.25351 -10.24091 -10.23694
 Alpha  occ. eigenvalues --  -10.21788  -1.30333  -1.23991  -1.19841  -1.17990
 Alpha  occ. eigenvalues --   -1.16902  -1.12261  -1.08210  -1.05515  -1.02287
 Alpha  occ. eigenvalues --   -1.00048  -0.96460  -0.93904  -0.91949  -0.91635
 Alpha  occ. eigenvalues --   -0.90145  -0.87814  -0.86481  -0.82026  -0.80826
 Alpha  occ. eigenvalues --   -0.80366  -0.79603  -0.78239  -0.77342  -0.76340
 Alpha  occ. eigenvalues --   -0.75771  -0.74357  -0.73598  -0.72456  -0.71349
 Alpha  occ. eigenvalues --   -0.71014  -0.69776  -0.67826  -0.67361  -0.66869
 Alpha  occ. eigenvalues --   -0.66710  -0.66037  -0.65119  -0.63810  -0.63185
 Alpha  occ. eigenvalues --   -0.62191  -0.61623  -0.61335  -0.59284  -0.59244
 Alpha  occ. eigenvalues --   -0.58358  -0.57865  -0.56695  -0.56437  -0.55228
 Alpha  occ. eigenvalues --   -0.55208  -0.54210  -0.53245  -0.52303  -0.52193
 Alpha  occ. eigenvalues --   -0.52063  -0.51166  -0.50925  -0.49876  -0.49445
 Alpha  occ. eigenvalues --   -0.48817  -0.48498  -0.48154  -0.47725  -0.47587
 Alpha  occ. eigenvalues --   -0.46665  -0.46381  -0.45092  -0.43579  -0.43314
 Alpha  occ. eigenvalues --   -0.43175  -0.41945  -0.41708  -0.41314  -0.40195
 Alpha  occ. eigenvalues --   -0.40067  -0.38802  -0.37513  -0.36711  -0.36333
 Alpha  occ. eigenvalues --   -0.35237  -0.31826  -0.27559  -0.24380  -0.22477
 Alpha  occ. eigenvalues --   -0.21031  -0.20897
 Alpha virt. eigenvalues --   -0.19872  -0.15068  -0.14275  -0.11983  -0.10395
 Alpha virt. eigenvalues --   -0.08636  -0.08431  -0.07896  -0.07308  -0.06860
 Alpha virt. eigenvalues --   -0.06441  -0.05331  -0.04055  -0.03103  -0.02977

 Mulliken charges:
               1
     1  N   -0.708209
     2  H    0.406229
     3  H    0.420710
     4  H    0.425256
     5  C   -0.153798
     6  H    0.187552
     7  C    0.674384
     8  C   -0.291903
     9  H    0.181580
    10  H    0.184335
    11  O   -0.524605
    12  C   -0.367289
    13  H    0.098114
    14  H    0.136996
    15  C    0.574474
    16  O   -0.560278
    17  O   -0.576093
    18  N   -0.591566
    19  H    0.348488
    20  C   -0.097461
    21  H    0.197585
    22  C    0.642685
    23  C   -0.352237
    24  H    0.197993
    25  H    0.199911
    26  O   -0.597061
    27  C    0.089027
    28  C   -0.209580
    29  H    0.129620
    30  C   -0.194486
    31  H    0.115850
    32  C   -0.216484
    33  H    0.121402
    34  C   -0.245527
    35  H    0.102752
    36  O   -0.696386
    37  C    0.428045
    38  N   -0.632166
    39  H    0.389646
    40  C   -0.006279
    41  H    0.234812
    42  C    0.562754
    43  C   -0.325759
    44  H    0.226723
    45  H    0.157597
    46  O   -0.342638
    47  C   -0.286155
    48  H    0.186348
    49  H    0.157789
    50  C   -0.340371
    51  H    0.152826
    52  H    0.253710
    53  C   -0.200205
    54  H    0.227858
    55  H    0.212946
    56  N   -0.731777
    57  H    0.427126
    58  H    0.450760
    59  H    0.424023
    60  O   -0.633378
    61  H    0.479746
    62  H    0.474037
 Sum of Mulliken charges =   1.00000

 Dipole moment (field-independent basis, Debye):
    X=             34.6297    Y=             23.4286    Z=              4.8858  Tot=             42.0949
 Quadrupole moment (field-independent basis, Debye-Ang):
   XX=           -180.8745   YY=            -13.7283   ZZ=           -132.2273
   XY=             80.2664   XZ=            -19.1618   YZ=            -70.7345

 Normal termination of Gaussian 16 at Thu Jun  2 00:02:33 2022.
