 Gaussian 16, Revision C.01,
 Gaussian 16:  ES64L-G16RevC.01  3-Jul-2019

 ----------------------------------------------------------------------
 # B3LYP/6-31G* empiricaldispersion=gd3 guess=read geom=check nosymm in
 tegral(ultrafinegrid)
 ----------------------------------------------------------------------

 ------------------------------------------------------
 Candidate Structure: Conf:367 Charge calc in gas phase
 ------------------------------------------------------
 Structure from the checkpoint file:  "conf-367.chk"
 Charge =  1 Multiplicity = 1

                          Input orientation:
 ---------------------------------------------------------------------
 Center     Atomic      Atomic             Coordinates (Angstroms)
 Number     Number       Type             X           Y           Z
 ---------------------------------------------------------------------
      1          7           0       -2.297699   -3.386140    1.728826
      2          1           0       -2.395791   -2.750478    0.837185
      3          1           0       -2.803839   -4.268795    1.642040
      4          1           0       -2.644479   -2.888439    2.552538
      5          6           0       -0.787454   -3.533704    1.712556
      6          1           0       -0.580746   -4.537224    1.331007
      7          6           0       -0.369379   -2.511434    0.608185
      8          6           0       -0.166773   -3.379846    3.104849
      9          1           0        0.869794   -3.723345    3.043960
     10          1           0       -0.667738   -4.085731    3.778004
     11          8           0       -1.341658   -2.026066   -0.047165
     12          6           0       -0.212272   -1.963305    3.711182
     13          1           0       -0.338374   -2.021465    4.796837
     14          1           0       -1.069838   -1.376074    3.354214
     15          6           0        1.022489   -1.079586    3.511063
     16          8           0        1.999834   -1.493400    2.723771
     17          8           0        1.103932   -0.015719    4.114266
     18          7           0        0.921874   -2.320987    0.472221
     19          1           0        1.680984   -2.039227    1.910434
     20          6           0        1.301619   -1.464291   -0.656216
     21          1           0        0.416880   -1.161248   -1.226155
     22          6           0        1.919388   -0.209551   -0.079634
     23          6           0        2.313517   -2.091960   -1.651476
     24          1           0        3.137815   -2.540931   -1.089611
     25          1           0        1.796300   -2.893246   -2.190041
     26          8           0        3.054712   -0.343287    0.535233
     27          6           0        2.798271   -0.977766   -2.558739
     28          6           0        4.042113   -0.364634   -2.340914
     29          1           0        4.743996   -0.816932   -1.645428
     30          6           0        1.925689   -0.380156   -3.480583
     31          1           0        0.970204   -0.853781   -3.700826
     32          6           0        4.372119    0.840344   -2.950855
     33          1           0        5.322513    1.328098   -2.758601
     34          6           0        2.244229    0.824494   -4.103772
     35          1           0        1.553632    1.280465   -4.807840
     36          8           0        3.764816    2.704109   -4.259064
     37          6           0        3.452780    1.477359   -3.798949
     38          7           0        1.295857    0.944166   -0.159518
     39          1           0        0.396235    0.936836   -0.628808
     40          6           0        1.803217    2.269149    0.286678
     41          1           0        2.873193    2.292901    0.050438
     42          6           0        1.600024    2.293539    1.814035
     43          6           0        1.057307    3.390174   -0.435596
     44          1           0       -0.001259    3.344151   -0.147608
     45          1           0        1.431324    4.336263   -0.028140
     46          8           0        0.726465    2.889402    2.382429
     47          6           0        1.218625    3.357869   -1.962102
     48          1           0        0.887657    2.387296   -2.353644
     49          1           0        2.278780    3.431623   -2.227370
     50          6           0        0.420938    4.463836   -2.665757
     51          1           0       -0.602006    4.490989   -2.266483
     52          1           0        0.860187    5.445725   -2.439125
     53          6           0        0.310148    4.285633   -4.184404
     54          1           0       -0.119687    3.301069   -4.406534
     55          1           0       -0.388273    5.039404   -4.576928
     56          7           0        1.623084    4.352105   -4.865053
     57          1           0        1.480244    4.317642   -5.874794
     58          1           0        2.941033    3.198222   -4.546046
     59          1           0        2.053964    5.260041   -4.682689
     60          8           0        2.492467    1.455741    2.400318
     61          1           0        3.161003    0.326533    1.267665
     62          1           0        2.120250    1.078569    3.259084
 ---------------------------------------------------------------------

 SCF Done:  E(RB3LYP) =  -1526.26438855     A.U. after    1 cycles

 Alpha  occ. eigenvalues --  -19.33537 -19.30680 -19.28277 -19.25896 -19.24992
 Alpha  occ. eigenvalues --  -19.24567 -19.22570 -14.57457 -14.54152 -14.43313
 Alpha  occ. eigenvalues --  -14.43138 -10.46486 -10.43921 -10.43513 -10.40052
 Alpha  occ. eigenvalues --  -10.38944 -10.37617 -10.34918 -10.33660 -10.33005
 Alpha  occ. eigenvalues --  -10.32364 -10.31075 -10.30597 -10.29112 -10.28639
 Alpha  occ. eigenvalues --  -10.28422 -10.27583 -10.27491 -10.27171 -10.26714
 Alpha  occ. eigenvalues --  -10.26088  -1.24766  -1.21399  -1.20262  -1.16454
 Alpha  occ. eigenvalues --   -1.13427  -1.11845  -1.11320  -1.10996  -1.10644
 Alpha  occ. eigenvalues --   -1.01656  -0.99106  -0.94481  -0.93364  -0.93023
 Alpha  occ. eigenvalues --   -0.89140  -0.87284  -0.85686  -0.82761  -0.82263
 Alpha  occ. eigenvalues --   -0.80844  -0.78661  -0.77586  -0.74735  -0.74143
 Alpha  occ. eigenvalues --   -0.73027  -0.72656  -0.71616  -0.71372  -0.69810
 Alpha  occ. eigenvalues --   -0.69323  -0.68656  -0.66848  -0.66469  -0.64318
 Alpha  occ. eigenvalues --   -0.63947  -0.62621  -0.61490  -0.60821  -0.60649
 Alpha  occ. eigenvalues --   -0.60413  -0.59745  -0.59353  -0.58225  -0.57884
 Alpha  occ. eigenvalues --   -0.56979  -0.56769  -0.55975  -0.55794  -0.55005
 Alpha  occ. eigenvalues --   -0.54540  -0.54326  -0.53754  -0.53021  -0.52581
 Alpha  occ. eigenvalues --   -0.52243  -0.52095  -0.51458  -0.50825  -0.50532
 Alpha  occ. eigenvalues --   -0.50074  -0.49537  -0.48820  -0.48322  -0.48005
 Alpha  occ. eigenvalues --   -0.47807  -0.47181  -0.46712  -0.46616  -0.45611
 Alpha  occ. eigenvalues --   -0.44820  -0.44288  -0.43933  -0.43563  -0.43260
 Alpha  occ. eigenvalues --   -0.43042  -0.41791  -0.41148  -0.40342  -0.39639
 Alpha  occ. eigenvalues --   -0.39233  -0.38623  -0.38408  -0.35648  -0.35466
 Alpha  occ. eigenvalues --   -0.33321  -0.29178
 Alpha virt. eigenvalues --   -0.16068  -0.11668  -0.11156  -0.10615  -0.08599
 Alpha virt. eigenvalues --   -0.08405  -0.07241  -0.05388  -0.04877  -0.02880
 Alpha virt. eigenvalues --   -0.02532  -0.01410  -0.00356   0.00225   0.00824

 Mulliken charges:
               1
     1  N   -0.769654
     2  H    0.435719
     3  H    0.405776
     4  H    0.397896
     5  C   -0.092593
     6  H    0.221539
     7  C    0.597429
     8  C   -0.318192
     9  H    0.213884
    10  H    0.178666
    11  O   -0.608549
    12  C   -0.385192
    13  H    0.223886
    14  H    0.173695
    15  C    0.609011
    16  O   -0.603708
    17  O   -0.492551
    18  N   -0.610652
    19  H    0.459560
    20  C   -0.024919
    21  H    0.174807
    22  C    0.638891
    23  C   -0.346129
    24  H    0.177691
    25  H    0.173233
    26  O   -0.554249
    27  C    0.110758
    28  C   -0.188791
    29  H    0.144242
    30  C   -0.201563
    31  H    0.132838
    32  C   -0.171699
    33  H    0.152552
    34  C   -0.198232
    35  H    0.134711
    36  O   -0.692324
    37  C    0.366539
    38  N   -0.558010
    39  H    0.384337
    40  C   -0.089879
    41  H    0.215182
    42  C    0.633348
    43  C   -0.306948
    44  H    0.169492
    45  H    0.189678
    46  O   -0.405862
    47  C   -0.282065
    48  H    0.133655
    49  H    0.176470
    50  C   -0.272538
    51  H    0.151310
    52  H    0.152766
    53  C   -0.140775
    54  H    0.152951
    55  H    0.154211
    56  N   -0.768494
    57  H    0.336349
    58  H    0.469474
    59  H    0.331450
    60  O   -0.646984
    61  H    0.484571
    62  H    0.471986
 Sum of Mulliken charges =   1.00000

 Dipole moment (field-independent basis, Debye):
    X=             -3.6799    Y=             -4.1501    Z=              0.4670  Tot=              5.5663
 Quadrupole moment (field-independent basis, Debye-Ang):
   XX=           -163.7889   YY=           -105.1063   ZZ=           -146.6041
   XY=             30.1707   XZ=            -10.7150   YZ=            -57.7688

 Normal termination of Gaussian 16 at Thu Jun  2 00:02:30 2022.
