 Gaussian 16, Revision C.01,
 Gaussian 16:  ES64L-G16RevC.01  3-Jul-2019

 ----------------------------------------------------------------------
 # B3LYP/6-31G* empiricaldispersion=gd3 guess=read geom=check nosymm in
 tegral(ultrafinegrid)
 ----------------------------------------------------------------------

 ------------------------------------------------------
 Candidate Structure: Conf:578 Charge calc in gas phase
 ------------------------------------------------------
 Structure from the checkpoint file:  "conf-578.chk"
 Charge =  1 Multiplicity = 1

                          Input orientation:
 ---------------------------------------------------------------------
 Center     Atomic      Atomic             Coordinates (Angstroms)
 Number     Number       Type             X           Y           Z
 ---------------------------------------------------------------------
      1          7           0       -1.023037   -4.577365    2.303377
      2          1           0       -0.029783   -4.746061    2.465069
      3          1           0       -1.578534   -5.146193    2.938174
      4          1           0       -1.213067   -4.877678    1.346536
      5          6           0       -1.338994   -3.143344    2.442415
      6          1           0       -0.879125   -2.761998    3.360913
      7          6           0       -0.706539   -2.393134    1.263527
      8          6           0       -2.847668   -2.907956    2.544302
      9          1           0       -3.047144   -1.833709    2.563317
     10          1           0       -3.200723   -3.315622    3.497251
     11          8           0       -0.190662   -2.992579    0.334669
     12          6           0       -3.676334   -3.531551    1.427055
     13          1           0       -3.597434   -4.621812    1.448996
     14          1           0       -3.375693   -3.160013    0.446816
     15          6           0       -5.130027   -3.112055    1.732342
     16          8           0       -5.761443   -3.871750    2.488172
     17          8           0       -5.498551   -2.041626    1.214429
     18          7           0       -0.801213   -1.039338    1.344877
     19          1           0       -1.143238   -0.651576    2.205530
     20          6           0       -0.237334   -0.082607    0.397772
     21          1           0       -0.783236    0.852313    0.566457
     22          6           0        1.239438    0.175305    0.700452
     23          6           0       -0.407163   -0.468119   -1.073163
     24          1           0        0.192482   -1.343238   -1.300540
     25          1           0       -1.453076   -0.733302   -1.224290
     26          8           0        2.127329   -0.627955    0.441245
     27          6           0       -0.024833    0.679711   -1.949717
     28          6           0       -0.955513    1.680438   -2.271784
     29          1           0       -1.980305    1.569257   -1.930081
     30          6           0        1.298581    0.825105   -2.390514
     31          1           0        2.028902    0.066915   -2.114103
     32          6           0       -0.605830    2.790717   -2.999635
     33          1           0       -1.320311    3.566781   -3.238274
     34          6           0        1.687792    1.897370   -3.149776
     35          1           0        2.708453    2.011942   -3.491672
     36          8           0        1.112361    3.979545   -4.079602
     37          6           0        0.758903    2.971658   -3.460409
     38          7           0        1.509648    1.358373    1.297202
     39          1           0        0.796897    2.063216    1.390370
     40          6           0        2.885587    1.702757    1.588180
     41          1           0        3.390859    0.791319    1.905464
     42          6           0        2.905036    2.672655    2.737648
     43          6           0        3.623962    2.267020    0.369082
     44          1           0        4.651683    2.480316    0.662714
     45          1           0        3.674774    1.461360   -0.367776
     46          8           0        2.020029    3.361413    3.129521
     47          6           0        2.967002    3.489619   -0.257564
     48          1           0        2.685735    4.216130    0.508684
     49          1           0        2.037291    3.165695   -0.746343
     50          6           0        3.840809    4.182079   -1.296030
     51          1           0        4.195086    3.450094   -2.031371
     52          1           0        3.236017    4.914555   -1.840916
     53          6           0        5.037845    4.897059   -0.703744
     54          1           0        4.694034    5.600431    0.058576
     55          1           0        5.692325    4.176795   -0.211970
     56          7           0        5.820488    5.624142   -1.735096
     57          1           0        6.617176    6.121093   -1.336541
     58          1           0        5.239101    6.307853   -2.216939
     59          1           0        6.180629    4.980942   -2.438734
     60          8           0        4.184253    2.725322    3.414516
     61          1           0        5.003281    2.856728    2.880952
     62          1           0        4.117032    3.452470    4.067400
 ---------------------------------------------------------------------

 SCF Done:  E(RB3LYP) =  -1525.93467329     A.U. after    3 cycles

 Alpha  occ. eigenvalues --  -19.48092 -19.31626 -19.22792 -19.22007 -19.11719
 Alpha  occ. eigenvalues --  -19.06892 -19.06815 -14.67093 -14.59185 -14.48464
 Alpha  occ. eigenvalues --  -14.47034 -10.47529 -10.43519 -10.40324 -10.39233
 Alpha  occ. eigenvalues --  -10.38922 -10.36896 -10.35128 -10.33514 -10.33063
 Alpha  occ. eigenvalues --  -10.32767 -10.27511 -10.26554 -10.25342 -10.24821
 Alpha  occ. eigenvalues --  -10.23068 -10.22950 -10.22650 -10.21736 -10.21670
 Alpha  occ. eigenvalues --  -10.20998  -1.36216  -1.22436  -1.22022  -1.16327
 Alpha  occ. eigenvalues --   -1.14760  -1.13238  -1.05461  -1.03636  -1.02272
 Alpha  occ. eigenvalues --   -1.00679  -0.98028  -0.94065  -0.91754  -0.90923
 Alpha  occ. eigenvalues --   -0.89225  -0.88895  -0.85736  -0.85049  -0.83649
 Alpha  occ. eigenvalues --   -0.80995  -0.80434  -0.80157  -0.78859  -0.78478
 Alpha  occ. eigenvalues --   -0.76776  -0.74221  -0.73353  -0.72004  -0.71268
 Alpha  occ. eigenvalues --   -0.70812  -0.70412  -0.69376  -0.68560  -0.67832
 Alpha  occ. eigenvalues --   -0.65760  -0.64600  -0.64508  -0.63652  -0.62284
 Alpha  occ. eigenvalues --   -0.60904  -0.60647  -0.60058  -0.59530  -0.58400
 Alpha  occ. eigenvalues --   -0.57920  -0.56446  -0.55546  -0.55245  -0.54030
 Alpha  occ. eigenvalues --   -0.53160  -0.52825  -0.52206  -0.51704  -0.51493
 Alpha  occ. eigenvalues --   -0.50656  -0.50222  -0.49324  -0.48908  -0.48854
 Alpha  occ. eigenvalues --   -0.48449  -0.47789  -0.46284  -0.46127  -0.45714
 Alpha  occ. eigenvalues --   -0.45648  -0.43830  -0.43361  -0.42796  -0.42062
 Alpha  occ. eigenvalues --   -0.41752  -0.40354  -0.39584  -0.38400  -0.38371
 Alpha  occ. eigenvalues --   -0.37503  -0.36633  -0.36188  -0.35294  -0.34884
 Alpha  occ. eigenvalues --   -0.33936  -0.29496  -0.24982  -0.22332  -0.21628
 Alpha  occ. eigenvalues --   -0.20966  -0.20282
 Alpha virt. eigenvalues --   -0.19258  -0.17169  -0.16653  -0.10839  -0.10437
 Alpha virt. eigenvalues --   -0.09880  -0.09794  -0.08845  -0.07645  -0.07060
 Alpha virt. eigenvalues --   -0.04937  -0.04077  -0.03955  -0.03753  -0.03422

 Mulliken charges:
               1
     1  N   -0.702239
     2  H    0.412749
     3  H    0.424330
     4  H    0.428845
     5  C   -0.155141
     6  H    0.187504
     7  C    0.662690
     8  C   -0.298620
     9  H    0.188496
    10  H    0.177306
    11  O   -0.506342
    12  C   -0.357753
    13  H    0.102017
    14  H    0.152400
    15  C    0.560262
    16  O   -0.557451
    17  O   -0.555951
    18  N   -0.611470
    19  H    0.338553
    20  C   -0.045956
    21  H    0.157746
    22  C    0.651918
    23  C   -0.367603
    24  H    0.206323
    25  H    0.176415
    26  O   -0.520544
    27  C    0.111943
    28  C   -0.187949
    29  H    0.126699
    30  C   -0.190831
    31  H    0.124522
    32  C   -0.207780
    33  H    0.127511
    34  C   -0.235016
    35  H    0.075840
    36  O   -0.606001
    37  C    0.412451
    38  N   -0.610461
    39  H    0.358581
    40  C   -0.018807
    41  H    0.210533
    42  C    0.480625
    43  C   -0.300280
    44  H    0.079919
    45  H    0.225855
    46  O   -0.393769
    47  C   -0.294019
    48  H    0.141505
    49  H    0.238430
    50  C   -0.290510
    51  H    0.184423
    52  H    0.210211
    53  C   -0.226926
    54  H    0.216152
    55  H    0.202822
    56  N   -0.712194
    57  H    0.431841
    58  H    0.440769
    59  H    0.437110
    60  O   -0.548422
    61  H    0.376880
    62  H    0.459859
 Sum of Mulliken charges =   1.00000

 Dipole moment (field-independent basis, Debye):
    X=             44.4249    Y=             19.5745    Z=             12.3577  Tot=             50.0944
 Quadrupole moment (field-independent basis, Debye-Ang):
   XX=            -92.9962   YY=            -14.2821   ZZ=           -160.4580
   XY=            127.3834   XZ=             25.5912   YZ=             -9.0957

 Normal termination of Gaussian 16 at Thu Jun  2 00:02:39 2022.
