 Gaussian 16, Revision C.01,
 Gaussian 16:  ES64L-G16RevC.01  3-Jul-2019

 ----------------------------------------------------------------------
 # B3LYP/6-31G* empiricaldispersion=gd3 guess=read geom=check nosymm in
 tegral(ultrafinegrid)
 ----------------------------------------------------------------------

 ------------------------------------------------------
 Candidate Structure: Conf:892 Charge calc in gas phase
 ------------------------------------------------------
 Structure from the checkpoint file:  "conf-892.chk"
 Charge =  1 Multiplicity = 1

                          Input orientation:
 ---------------------------------------------------------------------
 Center     Atomic      Atomic             Coordinates (Angstroms)
 Number     Number       Type             X           Y           Z
 ---------------------------------------------------------------------
      1          7           0       -1.220427   -3.478886    3.201103
      2          1           0       -0.236598   -3.746824    3.194233
      3          1           0       -1.612621   -3.693697    4.116197
      4          1           0       -1.689691   -4.053815    2.501724
      5          6           0       -1.367260   -2.052446    2.856972
      6          1           0       -0.815374   -1.452910    3.590719
      7          6           0       -0.741960   -1.819083    1.478820
      8          6           0       -2.822603   -1.606417    2.873932
      9          1           0       -3.410561   -2.251614    2.216108
     10          1           0       -2.890665   -0.599396    2.453199
     11          8           0       -0.377898   -2.753419    0.783594
     12          6           0       -3.436458   -1.603793    4.262625
     13          1           0       -2.889360   -0.965695    4.956068
     14          1           0       -3.470290   -2.611114    4.693957
     15          6           0       -4.909805   -1.124357    4.200603
     16          8           0       -5.288766   -0.456873    5.182267
     17          8           0       -5.565947   -1.505680    3.214741
     18          7           0       -0.642579   -0.512412    1.112568
     19          1           0       -0.974733    0.179670    1.760904
     20          6           0       -0.096098   -0.031468   -0.150066
     21          1           0       -0.423787    1.010157   -0.239179
     22          6           0        1.430857   -0.028311   -0.122186
     23          6           0       -0.595841   -0.794558   -1.381051
     24          1           0       -0.252903   -1.822318   -1.347390
     25          1           0       -1.684007   -0.807466   -1.335162
     26          8           0        2.110968   -1.003546   -0.412815
     27          6           0       -0.119740   -0.121632   -2.627270
     28          6           0       -0.707529    1.072953   -3.056372
     29          1           0       -1.537327    1.477664   -2.483098
     30          6           0        0.978047   -0.623855   -3.328968
     31          1           0        1.487956   -1.503468   -2.946116
     32          6           0       -0.268302    1.739255   -4.171206
     33          1           0       -0.725073    2.660826   -4.506992
     34          6           0        1.447575   -0.007054   -4.459805
     35          1           0        2.309874   -0.377942   -5.002679
     36          8           0        1.308835    1.833761   -5.913143
     37          6           0        0.855972    1.229151   -4.932963
     38          7           0        1.989720    1.155628    0.247193
     39          1           0        1.407695    1.959817    0.396307
     40          6           0        3.417294    1.358261    0.101887
     41          1           0        3.818378    0.373448   -0.141477
     42          6           0        4.053900    1.704489    1.421388
     43          6           0        3.759797    2.349123   -1.011075
     44          1           0        3.356890    3.330794   -0.763689
     45          1           0        4.842901    2.458582   -1.049944
     46          8           0        4.911690    2.491370    1.651570
     47          6           0        3.233182    1.893574   -2.360373
     48          1           0        2.138794    1.790324   -2.336616
     49          1           0        3.609782    0.886432   -2.569954
     50          6           0        3.612513    2.818427   -3.509645
     51          1           0        3.184505    2.427985   -4.440684
     52          1           0        3.159515    3.802098   -3.346664
     53          6           0        5.108884    2.998461   -3.704866
     54          1           0        5.292258    3.571067   -4.615344
     55          1           0        5.526022    3.574169   -2.874059
     56          7           0        5.801245    1.689356   -3.787358
     57          1           0        6.742329    1.771590   -4.171786
     58          1           0        5.264289    1.037991   -4.359425
     59          1           0        5.882856    1.276691   -2.857305
     60          8           0        3.588696    0.858506    2.510623
     61          1           0        2.614348    0.731012    2.604645
     62          1           0        3.925299    1.239114    3.345102
 ---------------------------------------------------------------------

 SCF Done:  E(RB3LYP) =  -1525.95224162     A.U. after    3 cycles

 Alpha  occ. eigenvalues --  -19.49796 -19.33145 -19.25499 -19.25271 -19.12016
 Alpha  occ. eigenvalues --  -19.07690 -19.07599 -14.65279 -14.61320 -14.52259
 Alpha  occ. eigenvalues --  -14.49870 -10.49123 -10.42751 -10.42564 -10.41120
 Alpha  occ. eigenvalues --  -10.40844 -10.38964 -10.35680 -10.34803 -10.32935
 Alpha  occ. eigenvalues --  -10.32519 -10.28888 -10.27018 -10.26623 -10.26401
 Alpha  occ. eigenvalues --  -10.23801 -10.23660 -10.23600 -10.23522 -10.21905
 Alpha  occ. eigenvalues --  -10.21716  -1.37739  -1.23898  -1.20262  -1.18782
 Alpha  occ. eigenvalues --   -1.18037  -1.15569  -1.09036  -1.06430  -1.02637
 Alpha  occ. eigenvalues --   -1.01462  -0.97209  -0.94560  -0.92985  -0.92521
 Alpha  occ. eigenvalues --   -0.90608  -0.89936  -0.87107  -0.86351  -0.84726
 Alpha  occ. eigenvalues --   -0.82086  -0.80539  -0.79317  -0.78911  -0.78338
 Alpha  occ. eigenvalues --   -0.77324  -0.75677  -0.75153  -0.74368  -0.74082
 Alpha  occ. eigenvalues --   -0.73161  -0.71097  -0.70443  -0.69290  -0.68533
 Alpha  occ. eigenvalues --   -0.66948  -0.66465  -0.65514  -0.63899  -0.63363
 Alpha  occ. eigenvalues --   -0.62825  -0.62533  -0.61526  -0.60923  -0.59987
 Alpha  occ. eigenvalues --   -0.58834  -0.57455  -0.56436  -0.55466  -0.55234
 Alpha  occ. eigenvalues --   -0.54787  -0.54374  -0.53810  -0.53170  -0.52673
 Alpha  occ. eigenvalues --   -0.52502  -0.50897  -0.50535  -0.49792  -0.49511
 Alpha  occ. eigenvalues --   -0.48737  -0.48561  -0.48134  -0.48002  -0.47725
 Alpha  occ. eigenvalues --   -0.46730  -0.45858  -0.45171  -0.43981  -0.43663
 Alpha  occ. eigenvalues --   -0.42375  -0.41574  -0.41431  -0.41088  -0.39865
 Alpha  occ. eigenvalues --   -0.39353  -0.38390  -0.37575  -0.37333  -0.36037
 Alpha  occ. eigenvalues --   -0.35389  -0.30313  -0.25439  -0.23165  -0.22615
 Alpha  occ. eigenvalues --   -0.21938  -0.21316
 Alpha virt. eigenvalues --   -0.20183  -0.17845  -0.15660  -0.12749  -0.11182
 Alpha virt. eigenvalues --   -0.10772  -0.10692  -0.10054  -0.08518  -0.07070
 Alpha virt. eigenvalues --   -0.05475  -0.05082  -0.04781  -0.04406  -0.04171

 Mulliken charges:
               1
     1  N   -0.698586
     2  H    0.413309
     3  H    0.419869
     4  H    0.431528
     5  C   -0.149909
     6  H    0.176542
     7  C    0.641452
     8  C   -0.279133
     9  H    0.196339
    10  H    0.177637
    11  O   -0.501077
    12  C   -0.377615
    13  H    0.131175
    14  H    0.115729
    15  C    0.571456
    16  O   -0.551615
    17  O   -0.569110
    18  N   -0.632790
    19  H    0.334845
    20  C   -0.058848
    21  H    0.158224
    22  C    0.635040
    23  C   -0.360122
    24  H    0.208332
    25  H    0.167635
    26  O   -0.483889
    27  C    0.114658
    28  C   -0.197536
    29  H    0.107271
    30  C   -0.178306
    31  H    0.118469
    32  C   -0.214903
    33  H    0.123325
    34  C   -0.232700
    35  H    0.070901
    36  O   -0.620491
    37  C    0.426703
    38  N   -0.660133
    39  H    0.344463
    40  C   -0.036663
    41  H    0.223428
    42  C    0.487445
    43  C   -0.274762
    44  H    0.175955
    45  H    0.132891
    46  O   -0.385310
    47  C   -0.308948
    48  H    0.226928
    49  H    0.128184
    50  C   -0.318624
    51  H    0.243340
    52  H    0.197688
    53  C   -0.235965
    54  H    0.243841
    55  H    0.216401
    56  N   -0.718767
    57  H    0.434067
    58  H    0.441696
    59  H    0.421547
    60  O   -0.569301
    61  H    0.471085
    62  H    0.485703
 Sum of Mulliken charges =   1.00000

 Dipole moment (field-independent basis, Debye):
    X=             39.2504    Y=              2.6733    Z=              2.7091  Tot=             39.4345
 Quadrupole moment (field-independent basis, Debye-Ang):
   XX=           -124.3006   YY=           -129.5570   ZZ=           -183.7719
   XY=             43.8410   XZ=              3.7629   YZ=            -36.1088

 Normal termination of Gaussian 16 at Thu Jun  2 00:02:46 2022.
