 Gaussian 16, Revision C.01,
 Gaussian 16:  ES64L-G16RevC.01  3-Jul-2019

 ----------------------------------------------------------------------
 # B3LYP/6-31G* empiricaldispersion=gd3 guess=read geom=check nosymm in
 tegral(ultrafinegrid)
 ----------------------------------------------------------------------

 ------------------------------------------------------
 Candidate Structure: Conf:112 Charge calc in gas phase
 ------------------------------------------------------
 Structure from the checkpoint file:  "conf-112.chk"
 Charge =  1 Multiplicity = 1

                          Input orientation:
 ---------------------------------------------------------------------
 Center     Atomic      Atomic             Coordinates (Angstroms)
 Number     Number       Type             X           Y           Z
 ---------------------------------------------------------------------
      1          7           0       -1.003684   -3.812705    3.283772
      2          1           0       -0.176432   -3.603539    3.844568
      3          1           0       -1.689104   -4.301612    3.855647
      4          1           0       -0.713842   -4.427602    2.519756
      5          6           0       -1.586531   -2.599920    2.675328
      6          1           0       -1.695918   -1.820875    3.436118
      7          6           0       -0.650847   -2.120905    1.568245
      8          6           0       -2.964573   -2.923341    2.092523
      9          1           0       -3.577133   -3.361271    2.888012
     10          1           0       -2.838813   -3.687087    1.320745
     11          8           0       -0.035086   -2.921906    0.880589
     12          6           0       -3.732293   -1.748221    1.495206
     13          1           0       -3.216775   -1.338175    0.623539
     14          1           0       -3.894561   -0.963537    2.236448
     15          6           0       -5.080706   -2.353386    1.056151
     16          8           0       -6.000262   -2.298492    1.892049
     17          8           0       -5.091818   -2.860743   -0.078436
     18          7           0       -0.626032   -0.775129    1.392491
     19          1           0       -1.148868   -0.209934    2.037107
     20          6           0        0.053426   -0.057265    0.321707
     21          1           0       -0.440667    0.921243    0.261472
     22          6           0        1.531343    0.184524    0.643160
     23          6           0       -0.060492   -0.723161   -1.060602
     24          1           0        0.428026   -1.690163   -1.042726
     25          1           0       -1.121368   -0.887881   -1.256620
     26          8           0        2.366009   -0.708071    0.634788
     27          6           0        0.550161    0.149077   -2.111890
     28          6           0       -0.143627    1.252872   -2.624322
     29          1           0       -1.164246    1.424554   -2.292783
     30          6           0        1.870507   -0.060992   -2.519710
     31          1           0        2.438670   -0.867514   -2.058674
     32          6           0        0.430794    2.119867   -3.523619
     33          1           0       -0.104817    2.973539   -3.915108
     34          6           0        2.489497    0.770471   -3.425263
     35          1           0        3.524901    0.628393   -3.717934
     36          8           0        2.348634    2.715424   -4.747912
     37          6           0        1.797717    1.926916   -3.960146
     38          7           0        1.855574    1.486435    0.886446
     39          1           0        1.126012    2.165434    0.776893
     40          6           0        3.219372    1.939253    0.625707
     41          1           0        3.811546    1.039367    0.459986
     42          6           0        3.817356    2.618877    1.827696
     43          6           0        3.288172    2.834580   -0.609823
     44          1           0        2.682102    2.350467   -1.383669
     45          1           0        2.817000    3.798940   -0.409153
     46          8           0        4.876724    2.431435    2.327713
     47          6           0        4.687719    3.020315   -1.167640
     48          1           0        5.117548    2.029501   -1.335462
     49          1           0        5.327857    3.523845   -0.440418
     50          6           0        4.694504    3.787530   -2.478994
     51          1           0        4.113441    3.244545   -3.232083
     52          1           0        4.199878    4.753824   -2.336235
     53          6           0        6.089624    4.047380   -3.015428
     54          1           0        6.029772    4.592750   -3.958431
     55          1           0        6.635665    4.680081   -2.311531
     56          7           0        6.849225    2.786208   -3.217101
     57          1           0        7.663511    2.915202   -3.817463
     58          1           0        6.248531    2.079521   -3.638017
     59          1           0        7.177220    2.411491   -2.328634
     60          8           0        2.960328    3.638387    2.395439
     61          1           0        2.574229    4.344300    1.821636
     62          1           0        3.446690    4.082630    3.119023
 ---------------------------------------------------------------------

 SCF Done:  E(RB3LYP) =  -1525.95190368     A.U. after    3 cycles

 Alpha  occ. eigenvalues --  -19.48440 -19.32056 -19.23276 -19.22689 -19.11780
 Alpha  occ. eigenvalues --  -19.07147 -19.07033 -14.65097 -14.60293 -14.49016
 Alpha  occ. eigenvalues --  -14.47779 -10.48127 -10.41342 -10.40775 -10.39890
 Alpha  occ. eigenvalues --  -10.38675 -10.37355 -10.34013 -10.33796 -10.33394
 Alpha  occ. eigenvalues --  -10.33158 -10.27845 -10.26872 -10.25443 -10.25380
 Alpha  occ. eigenvalues --  -10.23376 -10.23169 -10.22973 -10.22065 -10.21845
 Alpha  occ. eigenvalues --  -10.21320  -1.36542  -1.22747  -1.20110  -1.16985
 Alpha  occ. eigenvalues --   -1.15212  -1.14006  -1.06144  -1.04257  -1.02181
 Alpha  occ. eigenvalues --   -1.00971  -0.97126  -0.93691  -0.91990  -0.91348
 Alpha  occ. eigenvalues --   -0.89601  -0.89012  -0.86076  -0.85298  -0.83397
 Alpha  occ. eigenvalues --   -0.80554  -0.79820  -0.78830  -0.78380  -0.77778
 Alpha  occ. eigenvalues --   -0.76853  -0.74779  -0.74500  -0.73775  -0.72240
 Alpha  occ. eigenvalues --   -0.71773  -0.69231  -0.67964  -0.67476  -0.67448
 Alpha  occ. eigenvalues --   -0.66629  -0.65297  -0.64919  -0.63205  -0.62165
 Alpha  occ. eigenvalues --   -0.61198  -0.60875  -0.60553  -0.59672  -0.58720
 Alpha  occ. eigenvalues --   -0.58151  -0.57179  -0.55333  -0.54943  -0.53116
 Alpha  occ. eigenvalues --   -0.52978  -0.52471  -0.51991  -0.51310  -0.51193
 Alpha  occ. eigenvalues --   -0.50942  -0.49718  -0.49634  -0.49504  -0.49224
 Alpha  occ. eigenvalues --   -0.49182  -0.48610  -0.47084  -0.46642  -0.46312
 Alpha  occ. eigenvalues --   -0.45852  -0.44401  -0.43891  -0.43072  -0.42048
 Alpha  occ. eigenvalues --   -0.41792  -0.40557  -0.39899  -0.38959  -0.38509
 Alpha  occ. eigenvalues --   -0.38214  -0.36841  -0.36655  -0.35640  -0.35384
 Alpha  occ. eigenvalues --   -0.34376  -0.29862  -0.25421  -0.22544  -0.21802
 Alpha  occ. eigenvalues --   -0.21777  -0.20379
 Alpha virt. eigenvalues --   -0.19332  -0.16903  -0.15062  -0.10994  -0.10272
 Alpha virt. eigenvalues --   -0.09804  -0.09303  -0.08574  -0.08478  -0.05294
 Alpha virt. eigenvalues --   -0.05205  -0.04596  -0.04186  -0.03433  -0.02885

 Mulliken charges:
               1
     1  N   -0.709872
     2  H    0.415347
     3  H    0.424571
     4  H    0.426450
     5  C   -0.157576
     6  H    0.184468
     7  C    0.658243
     8  C   -0.288414
     9  H    0.171727
    10  H    0.193497
    11  O   -0.500799
    12  C   -0.343697
    13  H    0.142301
    14  H    0.118010
    15  C    0.549559
    16  O   -0.550314
    17  O   -0.549223
    18  N   -0.607964
    19  H    0.338568
    20  C   -0.051469
    21  H    0.144334
    22  C    0.635271
    23  C   -0.373678
    24  H    0.211791
    25  H    0.184072
    26  O   -0.492073
    27  C    0.118619
    28  C   -0.197214
    29  H    0.115537
    30  C   -0.184872
    31  H    0.123435
    32  C   -0.209972
    33  H    0.120867
    34  C   -0.236022
    35  H    0.042847
    36  O   -0.640347
    37  C    0.427218
    38  N   -0.600269
    39  H    0.324742
    40  C   -0.065102
    41  H    0.238517
    42  C    0.525220
    43  C   -0.314583
    44  H    0.246979
    45  H    0.111841
    46  O   -0.380558
    47  C   -0.286280
    48  H    0.132440
    49  H    0.138211
    50  C   -0.322039
    51  H    0.250443
    52  H    0.190163
    53  C   -0.225563
    54  H    0.247171
    55  H    0.211941
    56  N   -0.719651
    57  H    0.435708
    58  H    0.441442
    59  H    0.426949
    60  O   -0.562028
    61  H    0.428605
    62  H    0.472475
 Sum of Mulliken charges =   1.00000

 Dipole moment (field-independent basis, Debye):
    X=             39.8700    Y=             16.8709    Z=             11.6731  Tot=             44.8386
 Quadrupole moment (field-independent basis, Debye-Ang):
   XX=            -85.8562   YY=            -77.0365   ZZ=           -131.5716
   XY=             71.8524   XZ=            -57.8578   YZ=            -31.0988

 Normal termination of Gaussian 16 at Wed Jun  1 23:53:26 2022.
