 Gaussian 16, Revision C.01,
 Gaussian 16:  ES64L-G16RevC.01  3-Jul-2019

 ----------------------------------------------------------------------
 # B3LYP/6-31G* empiricaldispersion=gd3 guess=read geom=check nosymm in
 tegral(ultrafinegrid)
 ----------------------------------------------------------------------

 ------------------------------------------------------
 Candidate Structure: Conf:883 Charge calc in gas phase
 ------------------------------------------------------
 Structure from the checkpoint file:  "conf-883.chk"
 Charge =  1 Multiplicity = 1

                          Input orientation:
 ---------------------------------------------------------------------
 Center     Atomic      Atomic             Coordinates (Angstroms)
 Number     Number       Type             X           Y           Z
 ---------------------------------------------------------------------
      1          7           0       -0.032179   -4.668027    2.220456
      2          1           0        0.545065   -4.418650    1.415142
      3          1           0        0.603205   -4.790351    3.006535
      4          1           0       -0.910965   -6.058437    1.490273
      5          6           0       -0.982041   -3.583725    2.470894
      6          1           0       -1.317712   -3.656565    3.512992
      7          6           0       -0.341531   -2.211557    2.238262
      8          6           0       -2.222472   -3.705866    1.552765
      9          1           0       -1.892622   -3.638836    0.508051
     10          1           0       -2.861893   -2.832294    1.728424
     11          8           0        0.611254   -2.048788    1.473641
     12          6           0       -3.056447   -4.990147    1.779870
     13          1           0       -4.114257   -4.773955    1.621002
     14          1           0       -2.945007   -5.329123    2.819242
     15          6           0       -2.725650   -6.159424    0.840207
     16          8           0       -3.563249   -6.660903    0.129312
     17          8           0       -1.454563   -6.592213    0.852798
     18          7           0       -0.889742   -1.138635    2.877611
     19          1           0       -1.689715   -1.244826    3.486419
     20          6           0       -0.497519    0.202073    2.458734
     21          1           0       -0.774985    0.883899    3.272253
     22          6           0        1.031346    0.251290    2.453070
     23          6           0       -1.238923    0.606256    1.161066
     24          1           0       -1.112607   -0.214774    0.448334
     25          1           0       -2.302976    0.623367    1.431479
     26          8           0        1.571976   -0.259693    3.526148
     27          6           0       -0.816091    1.906172    0.504983
     28          6           0       -0.485558    3.061761    1.233400
     29          1           0       -0.601031    3.080137    2.315809
     30          6           0       -0.702854    1.955875   -0.896301
     31          1           0       -0.974253    1.082171   -1.484516
     32          6           0        0.032198    4.187666    0.597640
     33          1           0        0.314924    5.065266    1.171223
     34          6           0       -0.227359    3.088725   -1.544730
     35          1           0       -0.115704    3.115550   -2.623784
     36          8           0        0.806102    5.210512   -1.445912
     37          6           0        0.205635    4.196928   -0.799353
     38          7           0        1.727171    0.866466    1.526842
     39          1           0        1.178081    1.324432    0.792801
     40          6           0        3.201244    0.862249    1.362759
     41          1           0        3.541415   -0.156253    1.586662
     42          6           0        3.852276    1.803378    2.392856
     43          6           0        3.581477    1.224626   -0.079160
     44          1           0        4.669939    1.112963   -0.141237
     45          1           0        3.160123    0.446436   -0.724906
     46          8           0        4.337693    2.881850    2.193916
     47          6           0        3.155992    2.639671   -0.556827
     48          1           0        2.610491    3.164634    0.233981
     49          1           0        2.453162    2.545874   -1.389584
     50          6           0        4.353159    3.497140   -0.993810
     51          1           0        5.054432    3.582390   -0.153822
     52          1           0        4.889795    2.983028   -1.801655
     53          6           0        3.995743    4.898605   -1.497166
     54          1           0        4.922704    5.395254   -1.813335
     55          1           0        3.343607    4.829863   -2.375177
     56          7           0        3.271609    5.702187   -0.476518
     57          1           0        3.417860    6.694595   -0.660063
     58          1           0        3.662998    5.527860    0.449307
     59          1           0        1.598993    5.522662   -0.907496
     60          8           0        3.815002    1.219667    3.631425
     61          1           0        2.507299    0.026293    3.671250
     62          1           0        4.213493    1.824579    4.289133
 ---------------------------------------------------------------------

 SCF Done:  E(RB3LYP) =  -1526.26015777     A.U. after    1 cycles

 Alpha  occ. eigenvalues --  -19.37257 -19.37151 -19.30917 -19.26460 -19.24063
 Alpha  occ. eigenvalues --  -19.22620 -19.17582 -14.56008 -14.51149 -14.44956
 Alpha  occ. eigenvalues --  -14.44119 -10.50328 -10.48847 -10.42650 -10.41166
 Alpha  occ. eigenvalues --  -10.40621 -10.36544 -10.35421 -10.34770 -10.33029
 Alpha  occ. eigenvalues --  -10.32993 -10.31271 -10.31037 -10.30833 -10.30430
 Alpha  occ. eigenvalues --  -10.30281 -10.30020 -10.29336 -10.29046 -10.28756
 Alpha  occ. eigenvalues --  -10.27833  -1.28305  -1.26896  -1.18729  -1.18365
 Alpha  occ. eigenvalues --   -1.13812  -1.13219  -1.13118  -1.07595  -1.05751
 Alpha  occ. eigenvalues --   -1.01911  -0.99731  -0.97291  -0.95989  -0.92254
 Alpha  occ. eigenvalues --   -0.89122  -0.88749  -0.86756  -0.85659  -0.83341
 Alpha  occ. eigenvalues --   -0.82406  -0.80881  -0.78530  -0.77431  -0.75527
 Alpha  occ. eigenvalues --   -0.74883  -0.73086  -0.72596  -0.71912  -0.70081
 Alpha  occ. eigenvalues --   -0.69249  -0.68621  -0.67056  -0.65952  -0.65455
 Alpha  occ. eigenvalues --   -0.65039  -0.64085  -0.63731  -0.61687  -0.60792
 Alpha  occ. eigenvalues --   -0.60655  -0.59791  -0.59285  -0.58962  -0.58411
 Alpha  occ. eigenvalues --   -0.57904  -0.57569  -0.57094  -0.56761  -0.56192
 Alpha  occ. eigenvalues --   -0.56009  -0.55356  -0.55007  -0.54206  -0.53684
 Alpha  occ. eigenvalues --   -0.53100  -0.52917  -0.52850  -0.51729  -0.50950
 Alpha  occ. eigenvalues --   -0.50547  -0.50403  -0.50139  -0.49299  -0.48847
 Alpha  occ. eigenvalues --   -0.48438  -0.48020  -0.47823  -0.47127  -0.46231
 Alpha  occ. eigenvalues --   -0.45591  -0.45443  -0.44754  -0.44286  -0.44106
 Alpha  occ. eigenvalues --   -0.43850  -0.43074  -0.42494  -0.40911  -0.40412
 Alpha  occ. eigenvalues --   -0.40017  -0.37148  -0.36470  -0.36198  -0.35444
 Alpha  occ. eigenvalues --   -0.32140  -0.31222
 Alpha virt. eigenvalues --   -0.18569  -0.16261  -0.12100  -0.11597  -0.10630
 Alpha virt. eigenvalues --   -0.08438  -0.06457  -0.04180  -0.04045  -0.03446
 Alpha virt. eigenvalues --   -0.03082  -0.02712  -0.02435  -0.01109  -0.00481

 Mulliken charges:
               1
     1  N   -0.748981
     2  H    0.348327
     3  H    0.335821
     4  H    0.452214
     5  C   -0.077418
     6  H    0.164735
     7  C    0.633973
     8  C   -0.285193
     9  H    0.179750
    10  H    0.146942
    11  O   -0.537314
    12  C   -0.378184
    13  H    0.191690
    14  H    0.166693
    15  C    0.581465
    16  O   -0.438674
    17  O   -0.593449
    18  N   -0.595698
    19  H    0.358301
    20  C   -0.046762
    21  H    0.209102
    22  C    0.659435
    23  C   -0.340076
    24  H    0.189540
    25  H    0.187925
    26  O   -0.556328
    27  C    0.051152
    28  C   -0.194597
    29  H    0.127406
    30  C   -0.187043
    31  H    0.153813
    32  C   -0.188487
    33  H    0.152171
    34  C   -0.160635
    35  H    0.165709
    36  O   -0.677917
    37  C    0.375470
    38  N   -0.588504
    39  H    0.417657
    40  C   -0.102642
    41  H    0.221768
    42  C    0.632663
    43  C   -0.308027
    44  H    0.189099
    45  H    0.187884
    46  O   -0.398115
    47  C   -0.286016
    48  H    0.152085
    49  H    0.172592
    50  C   -0.298473
    51  H    0.161879
    52  H    0.161453
    53  C   -0.137461
    54  H    0.159922
    55  H    0.173433
    56  N   -0.786595
    57  H    0.341267
    58  H    0.327759
    59  H    0.461622
    60  O   -0.611288
    61  H    0.478058
    62  H    0.453102
 Sum of Mulliken charges =   1.00000

 Dipole moment (field-independent basis, Debye):
    X=             11.7387    Y=              9.8188    Z=             13.8263  Tot=             20.6246
 Quadrupole moment (field-independent basis, Debye-Ang):
   XX=           -137.7016   YY=           -187.0821   ZZ=           -126.8972
   XY=             12.6194   XZ=              4.8903   YZ=            -12.0677

 Normal termination of Gaussian 16 at Thu Jun  2 00:02:26 2022.
