 Gaussian 16, Revision C.01,
 Gaussian 16:  ES64L-G16RevC.01  3-Jul-2019

 ----------------------------------------------------------------------
 # B3LYP/6-31G* empiricaldispersion=gd3 guess=read geom=check nosymm in
 tegral(ultrafinegrid)
 ----------------------------------------------------------------------

 ------------------------------------------------------
 Candidate Structure: Conf:962 Charge calc in gas phase
 ------------------------------------------------------
 Structure from the checkpoint file:  "conf-962.chk"
 Charge =  1 Multiplicity = 1

                          Input orientation:
 ---------------------------------------------------------------------
 Center     Atomic      Atomic             Coordinates (Angstroms)
 Number     Number       Type             X           Y           Z
 ---------------------------------------------------------------------
      1          7           0       -1.183808   -3.634263    3.763097
      2          1           0       -0.274542   -3.485567    4.198766
      3          1           0       -2.601420   -3.336921    5.029609
      4          1           0       -1.062090   -4.444023    3.154757
      5          6           0       -1.548578   -2.468788    2.958668
      6          1           0       -1.694839   -1.632640    3.655216
      7          6           0       -0.450761   -2.082640    1.954797
      8          6           0       -2.881209   -2.724667    2.212479
      9          1           0       -2.696082   -3.406549    1.372187
     10          1           0       -3.234915   -1.780476    1.782591
     11          8           0        0.472150   -2.830814    1.674507
     12          6           0       -3.991580   -3.319292    3.104902
     13          1           0       -3.746754   -4.354554    3.363103
     14          1           0       -4.932315   -3.319192    2.550214
     15          6           0       -4.202661   -2.497731    4.378209
     16          8           0       -5.077251   -1.673718    4.496093
     17          8           0       -3.301340   -2.719888    5.359879
     18          7           0       -0.605668   -0.830172    1.392599
     19          1           0       -1.379303   -0.262223    1.711045
     20          6           0        0.232982   -0.270234    0.355123
     21          1           0       -0.294471    0.601105   -0.046752
     22          6           0        1.558381    0.244769    0.900838
     23          6           0        0.494093   -1.239881   -0.854635
     24          1           0        0.944519   -2.153054   -0.466109
     25          1           0       -0.503111   -1.495185   -1.230122
     26          8           0        2.046848   -0.375268    1.926202
     27          6           0        1.353510   -0.607952   -1.918205
     28          6           0        0.863873    0.432547   -2.727307
     29          1           0       -0.182634    0.725588   -2.654367
     30          6           0        2.695995   -0.980618   -2.066029
     31          1           0        3.093987   -1.795037   -1.463864
     32          6           0        1.685100    1.084595   -3.642135
     33          1           0        1.304688    1.878115   -4.277269
     34          6           0        3.528270   -0.347837   -2.987476
     35          1           0        4.554788   -0.677167   -3.117752
     36          8           0        3.777107    1.351210   -4.690829
     37          6           0        3.032039    0.699756   -3.786417
     38          7           0        2.162530    1.247961    0.295966
     39          1           0        1.703576    1.579257   -0.552269
     40          6           0        3.571514    1.707531    0.445743
     41          1           0        4.215344    0.825424    0.344160
     42          6           0        3.780156    2.317462    1.845456
     43          6           0        3.900744    2.750173   -0.629242
     44          1           0        3.533195    2.386071   -1.596154
     45          1           0        3.360752    3.669496   -0.382843
     46          8           0        3.829667    3.482945    2.112490
     47          6           0        5.423095    3.007674   -0.709118
     48          1           0        5.867750    2.917968    0.288873
     49          1           0        5.589006    4.050606   -1.000330
     50          6           0        6.135680    2.072668   -1.706562
     51          1           0        7.167105    1.885620   -1.383821
     52          1           0        5.632875    1.096096   -1.730808
     53          6           0        6.148285    2.667300   -3.120225
     54          1           0        5.170123    3.105257   -3.352675
     55          1           0        6.883977    3.483734   -3.154989
     56          7           0        6.401689    1.629219   -4.141836
     57          1           0        6.692607    2.063937   -5.017692
     58          1           0        4.757340    1.174681   -4.553603
     59          1           0        7.171586    1.023781   -3.858535
     60          8           0        3.912021    1.322621    2.782165
     61          1           0        2.856700    0.047669    2.315043
     62          1           0        4.017222    1.726803    3.667828
 ---------------------------------------------------------------------

 SCF Done:  E(RB3LYP) =  -1526.25965679     A.U. after    3 cycles

 Alpha  occ. eigenvalues --  -19.38221 -19.37433 -19.30962 -19.25278 -19.23894
 Alpha  occ. eigenvalues --  -19.23535 -19.18439 -14.57212 -14.49613 -14.44643
 Alpha  occ. eigenvalues --  -14.43489 -10.50352 -10.48883 -10.41478 -10.40778
 Alpha  occ. eigenvalues --  -10.40239 -10.37117 -10.35443 -10.33600 -10.33221
 Alpha  occ. eigenvalues --  -10.32269 -10.32174 -10.31296 -10.30610 -10.30535
 Alpha  occ. eigenvalues --  -10.30450 -10.30256 -10.29893 -10.29571 -10.29342
 Alpha  occ. eigenvalues --  -10.27524  -1.29100  -1.27149  -1.18934  -1.15974
 Alpha  occ. eigenvalues --   -1.14502  -1.14205  -1.14030  -1.06525  -1.06327
 Alpha  occ. eigenvalues --   -1.00497  -1.00453  -0.97407  -0.96366  -0.92322
 Alpha  occ. eigenvalues --   -0.89682  -0.88013  -0.86289  -0.85800  -0.83779
 Alpha  occ. eigenvalues --   -0.82638  -0.80276  -0.79358  -0.77665  -0.75432
 Alpha  occ. eigenvalues --   -0.74615  -0.72868  -0.72440  -0.70694  -0.70353
 Alpha  occ. eigenvalues --   -0.69847  -0.68183  -0.67936  -0.65904  -0.65199
 Alpha  occ. eigenvalues --   -0.65100  -0.64496  -0.63180  -0.62266  -0.61253
 Alpha  occ. eigenvalues --   -0.60501  -0.59682  -0.59569  -0.59185  -0.58651
 Alpha  occ. eigenvalues --   -0.58360  -0.57896  -0.57476  -0.57120  -0.55809
 Alpha  occ. eigenvalues --   -0.54882  -0.54518  -0.54165  -0.53717  -0.53150
 Alpha  occ. eigenvalues --   -0.53027  -0.52326  -0.52179  -0.51820  -0.51400
 Alpha  occ. eigenvalues --   -0.50536  -0.50198  -0.50127  -0.49406  -0.49164
 Alpha  occ. eigenvalues --   -0.48822  -0.48516  -0.47787  -0.46803  -0.46633
 Alpha  occ. eigenvalues --   -0.46067  -0.45586  -0.45029  -0.45010  -0.44100
 Alpha  occ. eigenvalues --   -0.44021  -0.43666  -0.42862  -0.41997  -0.39088
 Alpha  occ. eigenvalues --   -0.37917  -0.37065  -0.36572  -0.36193  -0.35943
 Alpha  occ. eigenvalues --   -0.32123  -0.32047
 Alpha virt. eigenvalues --   -0.19386  -0.16621  -0.12175  -0.10582  -0.10049
 Alpha virt. eigenvalues --   -0.08629  -0.06839  -0.05201  -0.04541  -0.04154
 Alpha virt. eigenvalues --   -0.03118  -0.02323  -0.01736  -0.01426  -0.00643

 Mulliken charges:
               1
     1  N   -0.736382
     2  H    0.331943
     3  H    0.442971
     4  H    0.333450
     5  C   -0.101551
     6  H    0.179998
     7  C    0.617191
     8  C   -0.284087
     9  H    0.164082
    10  H    0.155853
    11  O   -0.505663
    12  C   -0.359939
    13  H    0.170672
    14  H    0.190007
    15  C    0.575857
    16  O   -0.442705
    17  O   -0.589129
    18  N   -0.619883
    19  H    0.355160
    20  C   -0.061706
    21  H    0.189116
    22  C    0.648903
    23  C   -0.370991
    24  H    0.226017
    25  H    0.191906
    26  O   -0.534101
    27  C    0.131466
    28  C   -0.232667
    29  H    0.144606
    30  C   -0.208847
    31  H    0.148303
    32  C   -0.170149
    33  H    0.167303
    34  C   -0.203098
    35  H    0.153009
    36  O   -0.671387
    37  C    0.367476
    38  N   -0.568996
    39  H    0.395926
    40  C   -0.061889
    41  H    0.218540
    42  C    0.615584
    43  C   -0.328839
    44  H    0.186109
    45  H    0.195343
    46  O   -0.381631
    47  C   -0.285782
    48  H    0.155985
    49  H    0.181410
    50  C   -0.291880
    51  H    0.162248
    52  H    0.145051
    53  C   -0.141807
    54  H    0.167188
    55  H    0.162624
    56  N   -0.783060
    57  H    0.343744
    58  H    0.464868
    59  H    0.329969
    60  O   -0.611903
    61  H    0.481810
    62  H    0.456385
 Sum of Mulliken charges =   1.00000

 Dipole moment (field-independent basis, Debye):
    X=             17.9117    Y=              3.4334    Z=             -1.5295  Tot=             18.3019
 Quadrupole moment (field-independent basis, Debye-Ang):
   XX=           -103.8974   YY=           -158.4070   ZZ=           -173.0035
   XY=             30.4170   XZ=              6.8455   YZ=            -10.7869

 Normal termination of Gaussian 16 at Thu Jun  2 00:02:43 2022.
