 Gaussian 16, Revision C.01,
 Gaussian 16:  ES64L-G16RevC.01  3-Jul-2019

 ----------------------------------------------------------------------
 # B3LYP/6-31G* empiricaldispersion=gd3 guess=read geom=check nosymm in
 tegral(ultrafinegrid)
 ----------------------------------------------------------------------

 ------------------------------------------------------
 Candidate Structure: Conf:586 Charge calc in gas phase
 ------------------------------------------------------
 Structure from the checkpoint file:  "conf-586.chk"
 Charge =  1 Multiplicity = 1

                          Input orientation:
 ---------------------------------------------------------------------
 Center     Atomic      Atomic             Coordinates (Angstroms)
 Number     Number       Type             X           Y           Z
 ---------------------------------------------------------------------
      1          7           0        0.777489   -2.637464    2.988367
      2          1           0        1.341619   -1.822698    3.313501
      3          1           0        0.765252   -3.393267    3.678136
      4          1           0        1.211499   -2.964125    2.110666
      5          6           0       -0.612564   -2.164397    2.634557
      6          1           0       -0.935460   -1.510866    3.449781
      7          6           0       -0.406644   -1.362015    1.341443
      8          6           0       -1.569813   -3.345695    2.430640
      9          1           0       -2.511915   -2.921637    2.057825
     10          1           0       -1.810879   -3.815362    3.390044
     11          8           0        0.553451   -1.601844    0.614270
     12          6           0       -1.060054   -4.405854    1.447366
     13          1           0       -0.334195   -5.071728    1.929311
     14          1           0       -0.604059   -3.961172    0.559477
     15          6           0       -2.321967   -5.277731    1.024661
     16          8           0       -2.647452   -5.127045   -0.175889
     17          8           0       -2.816009   -5.900514    1.978103
     18          7           0       -1.318453   -0.390452    1.092590
     19          1           0       -2.159866   -0.350861    1.652897
     20          6           0       -1.218151    0.463944   -0.093460
     21          1           0       -1.963910    1.255169    0.038218
     22          6           0        0.188144    1.130142   -0.157406
     23          6           0       -1.508552   -0.291341   -1.427462
     24          1           0       -1.385570    0.443578   -2.228607
     25          1           0       -0.742004   -1.058414   -1.554120
     26          8           0        0.721047    1.373104   -1.228640
     27          6           0       -2.882329   -0.875785   -1.407663
     28          6           0       -3.077734   -2.232849   -1.049647
     29          1           0       -2.231427   -2.894413   -0.890996
     30          6           0       -4.013356   -0.035338   -1.647741
     31          1           0       -3.841923    0.998022   -1.942806
     32          6           0       -4.339253   -2.754128   -0.900124
     33          1           0       -4.470940   -3.789303   -0.598940
     34          6           0       -5.285498   -0.517597   -1.529298
     35          1           0       -6.161701    0.092031   -1.726113
     36          8           0       -6.674069   -2.354432   -0.993280
     37          6           0       -5.525318   -1.915541   -1.132973
     38          7           0        0.741514    1.422895    1.059269
     39          1           0        0.250469    1.048956    1.864661
     40          6           0        2.189142    1.378998    1.232110
     41          1           0        2.613321    0.795574    0.402027
     42          6           0        2.583816    0.582771    2.541845
     43          6           0        2.891249    2.729572    1.299214
     44          1           0        2.642565    3.206145    2.256217
     45          1           0        3.961033    2.499497    1.348399
     46          8           0        1.689458   -0.073078    3.071747
     47          6           0        2.643890    3.708315    0.147983
     48          1           0        1.696276    4.240544    0.290652
     49          1           0        2.555849    3.176373   -0.804282
     50          6           0        3.813866    4.712790    0.054262
     51          1           0        4.699549    4.178106   -0.319009
     52          1           0        3.582080    5.509442   -0.665684
     53          6           0        4.150517    5.318541    1.416252
     54          1           0        3.351620    5.956837    1.802818
     55          1           0        4.412952    4.566462    2.166538
     56          7           0        5.387578    6.216756    1.295772
     57          1           0        5.638186    6.648450    2.193247
     58          1           0        5.242671    6.968349    0.610906
     59          1           0        6.195839    5.666677    0.979942
     60          8           0        4.859684    2.484880    3.515421
     61          1           0        5.334496    2.211835    4.315065
     62          1           0        4.273919    1.716132    3.306042
 ---------------------------------------------------------------------

 SCF Done:  E(RB3LYP) =  -1526.03366376     A.U. after    1 cycles

 Alpha  occ. eigenvalues --  -19.26073 -19.24984 -19.22283 -19.21672 -19.21495
 Alpha  occ. eigenvalues --  -19.13683 -19.13288 -14.64300 -14.56880 -14.49381
 Alpha  occ. eigenvalues --  -14.44845 -10.42076 -10.40490 -10.38800 -10.37812
 Alpha  occ. eigenvalues --  -10.35525 -10.34072 -10.33911 -10.33884 -10.31986
 Alpha  occ. eigenvalues --  -10.31681 -10.31446 -10.29996 -10.29679 -10.29205
 Alpha  occ. eigenvalues --  -10.29005 -10.28873 -10.28614 -10.28136 -10.27736
 Alpha  occ. eigenvalues --  -10.25742  -1.18139  -1.17567  -1.14211  -1.13361
 Alpha  occ. eigenvalues --   -1.11347  -1.10102  -1.07755  -1.06256  -1.05778
 Alpha  occ. eigenvalues --   -1.01532  -0.98342  -0.94837  -0.94698  -0.91286
 Alpha  occ. eigenvalues --   -0.88467  -0.87668  -0.84312  -0.83428  -0.82369
 Alpha  occ. eigenvalues --   -0.80348  -0.77985  -0.76784  -0.75048  -0.74437
 Alpha  occ. eigenvalues --   -0.72851  -0.71860  -0.70451  -0.69782  -0.69489
 Alpha  occ. eigenvalues --   -0.68981  -0.67356  -0.66364  -0.65795  -0.65172
 Alpha  occ. eigenvalues --   -0.63752  -0.61514  -0.60881  -0.59672  -0.59300
 Alpha  occ. eigenvalues --   -0.58890  -0.58450  -0.56534  -0.56463  -0.55969
 Alpha  occ. eigenvalues --   -0.55260  -0.55126  -0.54388  -0.54216  -0.53734
 Alpha  occ. eigenvalues --   -0.53377  -0.52199  -0.52005  -0.51784  -0.50611
 Alpha  occ. eigenvalues --   -0.50462  -0.49861  -0.48781  -0.48526  -0.48345
 Alpha  occ. eigenvalues --   -0.47943  -0.47598  -0.47362  -0.46675  -0.46449
 Alpha  occ. eigenvalues --   -0.46316  -0.45606  -0.45145  -0.44946  -0.44466
 Alpha  occ. eigenvalues --   -0.43777  -0.43613  -0.43267  -0.42295  -0.40649
 Alpha  occ. eigenvalues --   -0.40496  -0.39193  -0.38533  -0.37964  -0.35556
 Alpha  occ. eigenvalues --   -0.35155  -0.34800  -0.32318  -0.28603  -0.27168
 Alpha  occ. eigenvalues --   -0.26034  -0.25595
 Alpha virt. eigenvalues --   -0.23997  -0.14804  -0.11371  -0.10564  -0.09240
 Alpha virt. eigenvalues --   -0.08268  -0.08174  -0.08045  -0.06909  -0.06696
 Alpha virt. eigenvalues --   -0.05481  -0.04205  -0.01822  -0.01178  -0.00966

 Mulliken charges:
               1
     1  N   -0.745688
     2  H    0.439234
     3  H    0.408297
     4  H    0.421451
     5  C   -0.131882
     6  H    0.199144
     7  C    0.674240
     8  C   -0.292570
     9  H    0.179517
    10  H    0.196867
    11  O   -0.525639
    12  C   -0.380516
    13  H    0.142922
    14  H    0.167092
    15  C    0.591763
    16  O   -0.529006
    17  O   -0.509553
    18  N   -0.629474
    19  H    0.356007
    20  C   -0.074085
    21  H    0.188415
    22  C    0.628157
    23  C   -0.366970
    24  H    0.200880
    25  H    0.208477
    26  O   -0.506287
    27  C    0.171011
    28  C   -0.201027
    29  H    0.197566
    30  C   -0.169976
    31  H    0.154111
    32  C   -0.160414
    33  H    0.236384
    34  C   -0.152793
    35  H    0.179356
    36  O   -0.433453
    37  C    0.419900
    38  N   -0.596256
    39  H    0.330556
    40  C   -0.051667
    41  H    0.190467
    42  C    0.152569
    43  C   -0.288348
    44  H    0.147525
    45  H    0.163497
    46  O   -0.471162
    47  C   -0.268286
    48  H    0.159181
    49  H    0.201884
    50  C   -0.300650
    51  H    0.165549
    52  H    0.163373
    53  C   -0.226825
    54  H    0.216530
    55  H    0.274302
    56  N   -0.731519
    57  H    0.429703
    58  H    0.421693
    59  H    0.426763
    60  O   -0.828348
    61  H    0.390925
    62  H    0.377086
 Sum of Mulliken charges =   1.00000

 Dipole moment (field-independent basis, Debye):
    X=             22.5388    Y=             28.3747    Z=             10.9589  Tot=             37.8579
 Quadrupole moment (field-independent basis, Debye-Ang):
   XX=            -91.0414   YY=            -75.7837   ZZ=           -147.8946
   XY=             75.3592   XZ=             35.5794   YZ=             14.6832

 Normal termination of Gaussian 16 at Thu Jun  2 00:02:20 2022.
