 Gaussian 16, Revision C.01,
 Gaussian 16:  ES64L-G16RevC.01  3-Jul-2019

 ----------------------------------------------------------------------
 # B3LYP/6-31G* empiricaldispersion=gd3 guess=read geom=check nosymm in
 tegral(ultrafinegrid)
 ----------------------------------------------------------------------

 ------------------------------------------------------
 Candidate Structure: Conf:472 Charge calc in gas phase
 ------------------------------------------------------
 Structure from the checkpoint file:  "conf-472.chk"
 Charge =  1 Multiplicity = 1

                          Input orientation:
 ---------------------------------------------------------------------
 Center     Atomic      Atomic             Coordinates (Angstroms)
 Number     Number       Type             X           Y           Z
 ---------------------------------------------------------------------
      1          7           0        0.744223   -2.099151    2.962472
      2          1           0        1.625833   -1.523738    2.934198
      3          1           0        0.559590   -2.444269    3.908701
      4          1           0        0.913199   -2.891980    2.325602
      5          6           0       -0.440995   -1.340774    2.416037
      6          1           0       -0.460025   -0.360879    2.897029
      7          6           0       -0.195042   -1.239439    0.907143
      8          6           0       -1.741423   -2.133141    2.622886
      9          1           0       -1.658547   -3.085685    2.087455
     10          1           0       -2.535343   -1.581594    2.113078
     11          8           0        0.431846   -2.129393    0.328945
     12          6           0       -2.166824   -2.390216    4.055569
     13          1           0       -2.313750   -1.466018    4.623242
     14          1           0       -1.472919   -3.027569    4.616681
     15          6           0       -3.580996   -3.190535    4.102483
     16          8           0       -3.904328   -3.457924    5.263301
     17          8           0       -4.077391   -3.393941    2.974513
     18          7           0       -0.805132   -0.205797    0.283209
     19          1           0       -0.989015    0.619578    0.854286
     20          6           0       -0.623286   -0.002617   -1.156630
     21          1           0       -1.078846    0.970222   -1.375170
     22          6           0        0.893146    0.084314   -1.469432
     23          6           0       -1.326067   -1.098981   -1.998521
     24          1           0       -1.331553   -0.768878   -3.043423
     25          1           0       -0.731017   -2.011000   -1.938741
     26          8           0        1.403611   -0.593471   -2.375088
     27          6           0       -2.723882   -1.327985   -1.491165
     28          6           0       -2.983480   -2.393204   -0.596844
     29          1           0       -2.175087   -3.079732   -0.361749
     30          6           0       -3.762390   -0.410030   -1.825191
     31          1           0       -3.549968    0.386943   -2.534803
     32          6           0       -4.205399   -2.528357    0.019531
     33          1           0       -4.399287   -3.280008    0.777420
     34          6           0       -5.003711   -0.522989   -1.264855
     35          1           0       -5.816141    0.156015   -1.503147
     36          8           0       -6.414226   -1.696774    0.222518
     37          6           0       -5.296258   -1.591464   -0.295579
     38          7           0        1.598112    0.911673   -0.657595
     39          1           0        1.026792    1.472859   -0.020327
     40          6           0        2.836891    0.448608    0.009607
     41          1           0        3.076823   -0.537574   -0.398470
     42          6           0        2.412546    0.244631    1.525953
     43          6           0        4.011509    1.417022   -0.138685
     44          1           0        3.746018    2.382140    0.309463
     45          1           0        4.854208    1.018138    0.440222
     46          8           0        2.935149   -0.710702    2.095485
     47          6           0        4.419740    1.626879   -1.606898
     48          1           0        5.144630    2.444922   -1.683185
     49          1           0        3.521519    1.966511   -2.141767
     50          6           0        5.007159    0.350877   -2.247462
     51          1           0        6.087537    0.304274   -2.071671
     52          1           0        4.588859   -0.545028   -1.775519
     53          6           0        4.786080    0.221089   -3.750739
     54          1           0        5.252586    1.027131   -4.323002
     55          1           0        5.163905   -0.733616   -4.122970
     56          7           0        3.297735    0.253110   -4.075909
     57          1           0        3.090688   -0.231512   -4.954243
     58          1           0        2.967409    1.216169   -4.180360
     59          1           0        2.682076   -0.173349   -3.310381
     60          8           0        0.146588    1.879197    1.803051
     61          1           0        0.211532    2.688302    2.334238
     62          1           0        1.016660    1.353972    1.940565
 ---------------------------------------------------------------------

 SCF Done:  E(RB3LYP) =  -1526.06530680     A.U. after    3 cycles

 Alpha  occ. eigenvalues --  -19.27715 -19.26115 -19.25588 -19.24559 -19.23181
 Alpha  occ. eigenvalues --  -19.16956 -19.15961 -14.59753 -14.56630 -14.48743
 Alpha  occ. eigenvalues --  -14.48392 -10.43603 -10.42326 -10.39876 -10.37594
 Alpha  occ. eigenvalues --  -10.37589 -10.35738 -10.34450 -10.34109 -10.34020
 Alpha  occ. eigenvalues --  -10.33913 -10.33355 -10.32085 -10.31527 -10.31032
 Alpha  occ. eigenvalues --  -10.30898 -10.30745 -10.30320 -10.30217 -10.29677
 Alpha  occ. eigenvalues --  -10.27843  -1.18703  -1.17582  -1.14493  -1.14314
 Alpha  occ. eigenvalues --   -1.11770  -1.11197  -1.09697  -1.08977  -1.06694
 Alpha  occ. eigenvalues --   -1.04707  -1.01344  -0.96683  -0.94546  -0.92178
 Alpha  occ. eigenvalues --   -0.89874  -0.89230  -0.86375  -0.84709  -0.82963
 Alpha  occ. eigenvalues --   -0.81487  -0.77895  -0.76060  -0.73718  -0.73164
 Alpha  occ. eigenvalues --   -0.72485  -0.72222  -0.71855  -0.71433  -0.70510
 Alpha  occ. eigenvalues --   -0.70136  -0.69080  -0.67995  -0.67144  -0.65116
 Alpha  occ. eigenvalues --   -0.64800  -0.62641  -0.61894  -0.60687  -0.60647
 Alpha  occ. eigenvalues --   -0.59433  -0.59239  -0.59012  -0.58622  -0.57395
 Alpha  occ. eigenvalues --   -0.56702  -0.56628  -0.55904  -0.55654  -0.55529
 Alpha  occ. eigenvalues --   -0.54220  -0.53995  -0.53652  -0.52942  -0.52349
 Alpha  occ. eigenvalues --   -0.52007  -0.51723  -0.50967  -0.50529  -0.50311
 Alpha  occ. eigenvalues --   -0.49750  -0.49337  -0.49121  -0.48521  -0.48186
 Alpha  occ. eigenvalues --   -0.47238  -0.47025  -0.46686  -0.46412  -0.46139
 Alpha  occ. eigenvalues --   -0.45945  -0.45754  -0.45014  -0.44413  -0.42797
 Alpha  occ. eigenvalues --   -0.42454  -0.41995  -0.40852  -0.39515  -0.39090
 Alpha  occ. eigenvalues --   -0.38468  -0.36934  -0.33919  -0.31073  -0.30065
 Alpha  occ. eigenvalues --   -0.27814  -0.27435
 Alpha virt. eigenvalues --   -0.25754  -0.14747  -0.12449  -0.11606  -0.11021
 Alpha virt. eigenvalues --   -0.10357  -0.08867  -0.06777  -0.06631  -0.04012
 Alpha virt. eigenvalues --   -0.03659  -0.02165  -0.01623  -0.01312  -0.01042

 Mulliken charges:
               1
     1  N   -0.757511
     2  H    0.445430
     3  H    0.405841
     4  H    0.408557
     5  C   -0.127026
     6  H    0.209652
     7  C    0.640314
     8  C   -0.273805
     9  H    0.173497
    10  H    0.198705
    11  O   -0.546279
    12  C   -0.390325
    13  H    0.180398
    14  H    0.151197
    15  C    0.627487
    16  O   -0.475973
    17  O   -0.508280
    18  N   -0.606603
    19  H    0.390281
    20  C   -0.070900
    21  H    0.191645
    22  C    0.622846
    23  C   -0.368807
    24  H    0.171888
    25  H    0.212812
    26  O   -0.560147
    27  C    0.185833
    28  C   -0.187002
    29  H    0.169222
    30  C   -0.168185
    31  H    0.152111
    32  C   -0.146536
    33  H    0.246905
    34  C   -0.147411
    35  H    0.187115
    36  O   -0.417052
    37  C    0.413047
    38  N   -0.596734
    39  H    0.358952
    40  C   -0.047465
    41  H    0.172452
    42  C    0.114075
    43  C   -0.274367
    44  H    0.161339
    45  H    0.176142
    46  O   -0.453709
    47  C   -0.281024
    48  H    0.176972
    49  H    0.121709
    50  C   -0.296788
    51  H    0.197943
    52  H    0.178872
    53  C   -0.190630
    54  H    0.211084
    55  H    0.217371
    56  N   -0.772037
    57  H    0.410630
    58  H    0.404028
    59  H    0.453779
    60  O   -0.827791
    61  H    0.403896
    62  H    0.348362
 Sum of Mulliken charges =   1.00000

 Dipole moment (field-independent basis, Debye):
    X=             17.6421    Y=              5.5608    Z=            -14.8112  Tot=             23.6968
 Quadrupole moment (field-independent basis, Debye-Ang):
   XX=           -164.6154   YY=           -179.8022   ZZ=           -126.9162
   XY=            -22.4686   XZ=             -5.8548   YZ=              7.9499

 Normal termination of Gaussian 16 at Thu Jun  2 00:02:43 2022.
