 Gaussian 16, Revision C.01,
 Gaussian 16:  ES64L-G16RevC.01  3-Jul-2019

 ----------------------------------------------------------------------
 # B3LYP/6-31G* empiricaldispersion=gd3 guess=read geom=check nosymm in
 tegral(ultrafinegrid)
 ----------------------------------------------------------------------

 -----------------------------------------------------
 Candidate Structure: Conf:90 Charge calc in gas phase
 -----------------------------------------------------
 Structure from the checkpoint file:  "conf-90.chk"
 Charge =  1 Multiplicity = 1

                          Input orientation:
 ---------------------------------------------------------------------
 Center     Atomic      Atomic             Coordinates (Angstroms)
 Number     Number       Type             X           Y           Z
 ---------------------------------------------------------------------
      1          7           0       -0.811100   -4.399622    2.367258
      2          1           0        0.164802   -4.701247    2.458245
      3          1           0       -1.401894   -4.897568    3.043414
      4          1           0       -1.103566   -4.643940    1.407197
      5          6           0       -0.965176   -2.899502    2.505023
      6          1           0       -0.422645   -2.592451    3.407411
      7          6           0       -0.288438   -2.342111    1.237348
      8          6           0       -2.450390   -2.540934    2.606403
      9          1           0       -2.541879   -1.448270    2.579009
     10          1           0       -2.839587   -2.866448    3.581038
     11          8           0        0.115706   -3.140258    0.396134
     12          6           0       -3.331673   -3.092095    1.485696
     13          1           0       -3.416669   -4.187834    1.515290
     14          1           0       -2.950358   -2.773587    0.507127
     15          6           0       -4.743377   -2.430691    1.746223
     16          8           0       -4.815007   -1.247262    1.342445
     17          8           0       -5.538373   -3.116048    2.418509
     18          7           0       -0.265239   -0.994083    1.153158
     19          1           0       -0.612402   -0.474987    1.949411
     20          6           0        0.302219   -0.208540    0.044998
     21          1           0       -0.160273    0.781304    0.115881
     22          6           0        1.826060   -0.031424    0.214326
     23          6           0       -0.039903   -0.742844   -1.363650
     24          1           0        0.428576   -1.718284   -1.499684
     25          1           0       -1.128440   -0.876617   -1.386359
     26          8           0        2.682403   -0.850860   -0.049633
     27          6           0        0.427712    0.227168   -2.430211
     28          6           0       -0.336599    1.335826   -2.825011
     29          1           0       -1.332509    1.474732   -2.402498
     30          6           0        1.696931    0.074978   -3.017132
     31          1           0        2.319293   -0.766511   -2.716344
     32          6           0        0.140881    2.255841   -3.758955
     33          1           0       -0.480970    3.099959   -4.056199
     34          6           0        2.177525    0.980111   -3.958553
     35          1           0        3.159465    0.849638   -4.408322
     36          8           0        1.933943    2.995403   -5.180945
     37          6           0        1.424157    2.120089   -4.360561
     38          7           0        2.144942    1.250681    0.635032
     39          1           0        1.417184    1.917731    0.850972
     40          6           0        3.485141    1.773387    0.514111
     41          1           0        4.181999    0.924744    0.555427
     42          6           0        3.738031    2.685313    1.658523
     43          6           0        3.652229    2.490251   -0.865395
     44          1           0        4.702504    2.798678   -1.016379
     45          1           0        3.439674    1.720242   -1.617375
     46          8           0        3.152402    3.275954    2.493116
     47          6           0        2.724486    3.684590   -1.086395
     48          1           0        2.909079    4.508258   -0.378259
     49          1           0        1.692501    3.345927   -0.924465
     50          6           0        2.847340    4.148554   -2.537980
     51          1           0        3.842348    4.577170   -2.732619
     52          1           0        2.746387    3.278747   -3.182971
     53          6           0        1.749024    5.133327   -2.923907
     54          1           0        0.774997    4.721235   -2.650379
     55          1           0        1.856861    6.114148   -2.448258
     56          7           0        1.728287    5.265547   -4.415006
     57          1           0        1.018948    5.923983   -4.745690
     58          1           0        1.548710    4.213335   -4.813837
     59          1           0        2.633149    5.569571   -4.783681
     60          8           0        5.358313    2.943350    1.727394
     61          1           0        5.783937    3.196747    0.894408
     62          1           0        5.536607    3.614213    2.419795
 ---------------------------------------------------------------------

 SCF Done:  E(RB3LYP) =  -1526.05514610     A.U. after    1 cycles

 Alpha  occ. eigenvalues --  -19.46317 -19.38121 -19.24969 -19.24599 -19.16743
 Alpha  occ. eigenvalues --  -19.09752 -19.09615 -14.59191 -14.51250 -14.50686
 Alpha  occ. eigenvalues --  -14.49384 -10.52590 -10.42113 -10.42050 -10.42045
 Alpha  occ. eigenvalues --  -10.38238 -10.35680 -10.35388 -10.34580 -10.32673
 Alpha  occ. eigenvalues --  -10.30571 -10.30020 -10.28969 -10.28063 -10.27671
 Alpha  occ. eigenvalues --  -10.26039 -10.25653 -10.25564 -10.24639 -10.24134
 Alpha  occ. eigenvalues --  -10.23560  -1.33327  -1.27560  -1.17545  -1.17042
 Alpha  occ. eigenvalues --   -1.12821  -1.08332  -1.08056  -1.05604  -1.04860
 Alpha  occ. eigenvalues --   -1.02710  -0.96087  -0.94307  -0.92690  -0.91527
 Alpha  occ. eigenvalues --   -0.90824  -0.87357  -0.85561  -0.83332  -0.81638
 Alpha  occ. eigenvalues --   -0.80805  -0.80753  -0.79190  -0.77063  -0.74361
 Alpha  occ. eigenvalues --   -0.74080  -0.73401  -0.71949  -0.71705  -0.71297
 Alpha  occ. eigenvalues --   -0.69226  -0.68420  -0.67912  -0.67232  -0.66301
 Alpha  occ. eigenvalues --   -0.65691  -0.65424  -0.64733  -0.63617  -0.62329
 Alpha  occ. eigenvalues --   -0.61455  -0.60725  -0.60202  -0.59730  -0.58985
 Alpha  occ. eigenvalues --   -0.58106  -0.57036  -0.56603  -0.55640  -0.54553
 Alpha  occ. eigenvalues --   -0.54407  -0.53699  -0.53330  -0.52782  -0.52059
 Alpha  occ. eigenvalues --   -0.51476  -0.51174  -0.50829  -0.50584  -0.50121
 Alpha  occ. eigenvalues --   -0.49043  -0.48480  -0.48036  -0.47956  -0.47489
 Alpha  occ. eigenvalues --   -0.47167  -0.46095  -0.45995  -0.45075  -0.43708
 Alpha  occ. eigenvalues --   -0.43246  -0.42382  -0.42050  -0.41027  -0.40490
 Alpha  occ. eigenvalues --   -0.39794  -0.39073  -0.38181  -0.37568  -0.37420
 Alpha  occ. eigenvalues --   -0.36475  -0.31962  -0.31734  -0.26297  -0.24913
 Alpha  occ. eigenvalues --   -0.23661  -0.22943
 Alpha virt. eigenvalues --   -0.21897  -0.17722  -0.12279  -0.11661  -0.09938
 Alpha virt. eigenvalues --   -0.09244  -0.09133  -0.07484  -0.06985  -0.05968
 Alpha virt. eigenvalues --   -0.05224  -0.03994  -0.03626  -0.02319  -0.02047

 Mulliken charges:
               1
     1  N   -0.710477
     2  H    0.413119
     3  H    0.418702
     4  H    0.429694
     5  C   -0.151620
     6  H    0.195367
     7  C    0.675297
     8  C   -0.297740
     9  H    0.188090
    10  H    0.181701
    11  O   -0.518763
    12  C   -0.373383
    13  H    0.112046
    14  H    0.146821
    15  C    0.577684
    16  O   -0.556885
    17  O   -0.531726
    18  N   -0.616734
    19  H    0.349309
    20  C   -0.059886
    21  H    0.158658
    22  C    0.656191
    23  C   -0.368042
    24  H    0.210903
    25  H    0.183380
    26  O   -0.482332
    27  C    0.119447
    28  C   -0.198311
    29  H    0.133071
    30  C   -0.190280
    31  H    0.144686
    32  C   -0.230555
    33  H    0.107934
    34  C   -0.208899
    35  H    0.125451
    36  O   -0.722013
    37  C    0.403471
    38  N   -0.613087
    39  H    0.350556
    40  C   -0.057926
    41  H    0.245342
    42  C    0.560871
    43  C   -0.295816
    44  H    0.120956
    45  H    0.237901
    46  O   -0.324528
    47  C   -0.286459
    48  H    0.133778
    49  H    0.165010
    50  C   -0.298012
    51  H    0.139616
    52  H    0.233181
    53  C   -0.175186
    54  H    0.193568
    55  H    0.176872
    56  N   -0.757066
    57  H    0.377315
    58  H    0.450984
    59  H    0.380135
    60  O   -0.649142
    61  H    0.486759
    62  H    0.491000
 Sum of Mulliken charges =   1.00000

 Dipole moment (field-independent basis, Debye):
    X=             28.5405    Y=             14.4422    Z=              6.3549  Tot=             32.6117
 Quadrupole moment (field-independent basis, Debye-Ang):
   XX=           -170.1852   YY=            -36.7261   ZZ=           -154.3249
   XY=             54.4839   XZ=             41.0488   YZ=            -49.4055

 Normal termination of Gaussian 16 at Wed Jun  1 23:53:07 2022.
