 Gaussian 16, Revision C.01,
 Gaussian 16:  ES64L-G16RevC.01  3-Jul-2019

 ----------------------------------------------------------------------
 # B3LYP/6-31G* empiricaldispersion=gd3 guess=read geom=check nosymm in
 tegral(ultrafinegrid)
 ----------------------------------------------------------------------

 ------------------------------------------------------
 Candidate Structure: Conf:961 Charge calc in gas phase
 ------------------------------------------------------
 Structure from the checkpoint file:  "conf-961.chk"
 Charge =  1 Multiplicity = 1

                          Input orientation:
 ---------------------------------------------------------------------
 Center     Atomic      Atomic             Coordinates (Angstroms)
 Number     Number       Type             X           Y           Z
 ---------------------------------------------------------------------
      1          7           0       -2.071455   -4.469835    2.068211
      2          1           0       -1.961621   -4.460637    1.006721
      3          1           0       -1.521679   -5.216788    2.499674
      4          1           0       -3.060595   -4.619936    2.290254
      5          6           0       -1.602113   -3.073432    2.422935
      6          1           0       -0.526036   -3.169556    2.607807
      7          6           0       -1.679018   -2.336812    1.042848
      8          6           0       -2.312873   -2.477345    3.662310
      9          1           0       -3.044316   -3.193758    4.054377
     10          1           0       -2.884244   -1.591421    3.371944
     11          8           0       -1.744447   -3.066070    0.045605
     12          6           0       -1.332012   -2.115508    4.792166
     13          1           0       -0.813380   -2.999604    5.174969
     14          1           0       -1.890222   -1.682365    5.630659
     15          6           0       -0.307440   -1.088538    4.332289
     16          8           0        0.889808   -1.280511    4.851427
     17          8           0       -0.581823   -0.198843    3.534390
     18          7           0       -1.617769   -1.003963    1.090458
     19          1           0       -1.511501   -0.620163    2.034624
     20          6           0       -0.955822   -0.133544    0.099491
     21          1           0       -1.459254    0.836542    0.162985
     22          6           0        0.498866    0.007820    0.603365
     23          6           0       -0.980618   -0.602807   -1.370864
     24          1           0       -0.590032   -1.618551   -1.435612
     25          1           0       -2.021948   -0.627615   -1.710473
     26          8           0        1.137722   -1.016127    0.902547
     27          6           0       -0.122942    0.346902   -2.175199
     28          6           0       -0.537688    1.660850   -2.427814
     29          1           0       -1.555691    1.962003   -2.183817
     30          6           0        1.180367   -0.019502   -2.540734
     31          1           0        1.520770   -1.035157   -2.353138
     32          6           0        0.331595    2.594843   -2.987528
     33          1           0        0.000187    3.610607   -3.182845
     34          6           0        2.058858    0.900521   -3.100285
     35          1           0        3.074584    0.624049   -3.364568
     36          8           0        2.564393    3.112622   -3.750500
     37          6           0        1.655696    2.230227   -3.296765
     38          7           0        0.973899    1.254519    0.754941
     39          1           0        0.413565    2.024254    0.412147
     40          6           0        2.335822    1.576101    1.221869
     41          1           0        3.038558    0.961141    0.644420
     42          6           0        2.465895    1.196769    2.721305
     43          6           0        2.649106    3.065215    1.044423
     44          1           0        1.913370    3.643721    1.618311
     45          1           0        3.605889    3.241802    1.547303
     46          8           0        2.573269    1.994743    3.613848
     47          6           0        2.729827    3.567924   -0.403062
     48          1           0        1.767660    3.444029   -0.910904
     49          1           0        3.447345    2.964506   -0.973413
     50          6           0        3.150076    5.046488   -0.435734
     51          1           0        2.373898    5.658446    0.049273
     52          1           0        4.054027    5.175991    0.174154
     53          6           0        3.457058    5.626988   -1.818873
     54          1           0        3.847724    6.646097   -1.687069
     55          1           0        4.242477    5.035060   -2.303042
     56          7           0        2.280429    5.609574   -2.721662
     57          1           0        2.448719    6.232704   -3.511525
     58          1           0        1.463981    5.984886   -2.238895
     59          1           0        2.300671    4.040629   -3.469880
     60          8           0        2.469041   -0.137599    2.975196
     61          1           0        2.172246   -0.639323    2.162456
     62          1           0        1.539014   -0.669783    4.405287
 ---------------------------------------------------------------------

 SCF Done:  E(RB3LYP) =  -1526.30254275     A.U. after    1 cycles

 Alpha  occ. eigenvalues --  -19.30169 -19.28268 -19.27637 -19.26231 -19.24718
 Alpha  occ. eigenvalues --  -19.23011 -19.21618 -14.61057 -14.49485 -14.48704
 Alpha  occ. eigenvalues --  -14.42336 -10.44499 -10.44482 -10.41888 -10.41275
 Alpha  occ. eigenvalues --  -10.41218 -10.35915 -10.35783 -10.34505 -10.33550
 Alpha  occ. eigenvalues --  -10.31619 -10.29529 -10.28933 -10.28131 -10.27044
 Alpha  occ. eigenvalues --  -10.26974 -10.26932 -10.26820 -10.26572 -10.26057
 Alpha  occ. eigenvalues --  -10.25452  -1.22159  -1.20125  -1.19168  -1.16046
 Alpha  occ. eigenvalues --   -1.14721  -1.13275  -1.10921  -1.10525  -1.06789
 Alpha  occ. eigenvalues --   -1.04757  -0.98001  -0.95858  -0.93404  -0.90510
 Alpha  occ. eigenvalues --   -0.89019  -0.87096  -0.84905  -0.82168  -0.81814
 Alpha  occ. eigenvalues --   -0.80556  -0.78302  -0.76110  -0.75535  -0.73708
 Alpha  occ. eigenvalues --   -0.72591  -0.71597  -0.70496  -0.69693  -0.69331
 Alpha  occ. eigenvalues --   -0.69034  -0.67592  -0.66960  -0.65848  -0.64631
 Alpha  occ. eigenvalues --   -0.63405  -0.63020  -0.62305  -0.61182  -0.60828
 Alpha  occ. eigenvalues --   -0.60020  -0.59489  -0.58668  -0.58628  -0.57027
 Alpha  occ. eigenvalues --   -0.55959  -0.55447  -0.55071  -0.54724  -0.54431
 Alpha  occ. eigenvalues --   -0.54276  -0.54121  -0.53380  -0.53074  -0.51703
 Alpha  occ. eigenvalues --   -0.51586  -0.51395  -0.51102  -0.50852  -0.50194
 Alpha  occ. eigenvalues --   -0.49916  -0.49497  -0.49149  -0.48455  -0.47493
 Alpha  occ. eigenvalues --   -0.47192  -0.46972  -0.46201  -0.44811  -0.44281
 Alpha  occ. eigenvalues --   -0.43465  -0.43108  -0.42484  -0.42145  -0.41759
 Alpha  occ. eigenvalues --   -0.41631  -0.40869  -0.40800  -0.40327  -0.39843
 Alpha  occ. eigenvalues --   -0.39510  -0.38732  -0.37735  -0.35573  -0.34336
 Alpha  occ. eigenvalues --   -0.32789  -0.28556
 Alpha virt. eigenvalues --   -0.14310  -0.12124  -0.11601  -0.09549  -0.08791
 Alpha virt. eigenvalues --   -0.08031  -0.07481  -0.06774  -0.05495  -0.03096
 Alpha virt. eigenvalues --   -0.02854  -0.01381  -0.00997  -0.00333   0.00924

 Mulliken charges:
               1
     1  N   -0.758844
     2  H    0.437894
     3  H    0.418542
     4  H    0.412867
     5  C   -0.114418
     6  H    0.245256
     7  C    0.652458
     8  C   -0.325405
     9  H    0.175488
    10  H    0.213671
    11  O   -0.531920
    12  C   -0.361961
    13  H    0.188871
    14  H    0.222076
    15  C    0.597541
    16  O   -0.560580
    17  O   -0.501117
    18  N   -0.616891
    19  H    0.403740
    20  C   -0.059509
    21  H    0.169916
    22  C    0.661479
    23  C   -0.357340
    24  H    0.194790
    25  H    0.173628
    26  O   -0.593557
    27  C    0.134695
    28  C   -0.210905
    29  H    0.127769
    30  C   -0.186460
    31  H    0.138650
    32  C   -0.203867
    33  H    0.134377
    34  C   -0.168322
    35  H    0.149582
    36  O   -0.692561
    37  C    0.374132
    38  N   -0.585129
    39  H    0.359544
    40  C   -0.073747
    41  H    0.196413
    42  C    0.641922
    43  C   -0.304666
    44  H    0.163613
    45  H    0.180566
    46  O   -0.425299
    47  C   -0.279524
    48  H    0.144767
    49  H    0.162108
    50  C   -0.276731
    51  H    0.137082
    52  H    0.158671
    53  C   -0.137646
    54  H    0.152772
    55  H    0.171048
    56  N   -0.781018
    57  H    0.337274
    58  H    0.319911
    59  H    0.474017
    60  O   -0.649960
    61  H    0.456863
    62  H    0.473385
 Sum of Mulliken charges =   1.00000

 Dipole moment (field-independent basis, Debye):
    X=             -6.3048    Y=             -6.4822    Z=              8.0366  Tot=             12.0978
 Quadrupole moment (field-independent basis, Debye-Ang):
   XX=           -151.1636   YY=            -64.3160   ZZ=           -162.1736
   XY=             45.7583   XZ=            -31.5620   YZ=            -60.4353

 Normal termination of Gaussian 16 at Thu Jun  2 00:02:25 2022.
