 Gaussian 16, Revision C.01,
 Gaussian 16:  ES64L-G16RevC.01  3-Jul-2019

 ----------------------------------------------------------------------
 # B3LYP/6-31G* empiricaldispersion=gd3 guess=read geom=check nosymm in
 tegral(ultrafinegrid)
 ----------------------------------------------------------------------

 ------------------------------------------------------
 Candidate Structure: Conf:382 Charge calc in gas phase
 ------------------------------------------------------
 Structure from the checkpoint file:  "conf-382.chk"
 Charge =  1 Multiplicity = 1

                          Input orientation:
 ---------------------------------------------------------------------
 Center     Atomic      Atomic             Coordinates (Angstroms)
 Number     Number       Type             X           Y           Z
 ---------------------------------------------------------------------
      1          7           0       -0.726683   -4.648379    2.217864
      2          1           0        0.275835   -4.752894    2.063832
      3          1           0       -1.004269   -5.246720    2.993748
      4          1           0       -1.191210   -4.972643    1.370149
      5          6           0       -1.058796   -3.233992    2.466402
      6          1           0       -0.512013   -2.890701    3.355137
      7          6           0       -0.583960   -2.407600    1.267977
      8          6           0       -2.546449   -3.028868    2.726053
      9          1           0       -3.116324   -3.395725    1.870682
     10          1           0       -2.750256   -1.961447    2.812059
     11          8           0       -0.126187   -2.945042    0.272037
     12          6           0       -3.056017   -3.704590    3.994941
     13          1           0       -2.503012   -3.355439    4.867131
     14          1           0       -2.988698   -4.794026    3.923931
     15          6           0       -4.532630   -3.287044    4.097858
     16          8           0       -5.337062   -4.010881    3.482824
     17          8           0       -4.764342   -2.256432    4.756036
     18          7           0       -0.747170   -1.061818    1.403661
     19          1           0       -0.955552   -0.735104    2.330828
     20          6           0       -0.112866   -0.083456    0.531120
     21          1           0       -0.589126    0.876332    0.760334
     22          6           0        1.379432    0.055281    0.866124
     23          6           0       -0.358033   -0.354112   -0.965524
     24          1           0        0.143442   -1.270044   -1.255957
     25          1           0       -1.429585   -0.514910   -1.073355
     26          8           0        2.010134   -0.829232    1.439988
     27          6           0        0.095771    0.776478   -1.834348
     28          6           0       -0.520555    2.028930   -1.762619
     29          1           0       -1.386323    2.146858   -1.114319
     30          6           0        1.207653    0.617574   -2.670710
     31          1           0        1.695723   -0.351146   -2.721262
     32          6           0       -0.021671    3.114267   -2.439892
     33          1           0       -0.456223    4.101163   -2.337542
     34          6           0        1.703792    1.660600   -3.414593
     35          1           0        2.560122    1.542759   -4.065935
     36          8           0        1.618637    3.958975   -3.896000
     37          6           0        1.138528    2.985464   -3.296870
     38          7           0        1.946522    1.223760    0.501704
     39          1           0        1.397085    1.846022   -0.069610
     40          6           0        3.401264    1.407853    0.439722
     41          1           0        3.837647    0.495962    0.021302
     42          6           0        3.940811    1.541447    1.840380
     43          6           0        3.731666    2.573555   -0.488526
     44          1           0        4.808987    2.745646   -0.467788
     45          1           0        3.478278    2.226819   -1.500454
     46          8           0        4.214233    2.516961    2.462199
     47          6           0        2.985180    3.868084   -0.218236
     48          1           0        3.162852    4.184190    0.810120
     49          1           0        1.905440    3.706406   -0.317804
     50          6           0        3.397899    4.962073   -1.191589
     51          1           0        4.457608    5.198530   -1.049653
     52          1           0        3.288980    4.598955   -2.216928
     53          6           0        2.582724    6.234287   -1.054125
     54          1           0        2.816654    6.919865   -1.872183
     55          1           0        1.518555    5.987500   -1.130669
     56          7           0        2.806585    6.923155    0.242920
     57          1           0        2.233216    7.761993    0.336970
     58          1           0        3.782667    7.197612    0.352748
     59          1           0        2.577120    6.310045    1.024228
     60          8           0        4.087186    0.247418    2.467752
     61          1           0        3.312176   -0.351370    2.140354
     62          1           0        4.077032    0.410073    3.431183
 ---------------------------------------------------------------------

 SCF Done:  E(RB3LYP) =  -1526.01927506     A.U. after    3 cycles

 Alpha  occ. eigenvalues --  -19.45561 -19.33452 -19.30334 -19.24983 -19.11883
 Alpha  occ. eigenvalues --  -19.07282 -19.07011 -14.65396 -14.60552 -14.51807
 Alpha  occ. eigenvalues --  -14.48996 -10.49742 -10.44960 -10.42333 -10.40832
 Alpha  occ. eigenvalues --  -10.40646 -10.38250 -10.36444 -10.33592 -10.33487
 Alpha  occ. eigenvalues --  -10.33435 -10.28545 -10.27767 -10.27489 -10.25824
 Alpha  occ. eigenvalues --  -10.24953 -10.24476 -10.24142 -10.22882 -10.22618
 Alpha  occ. eigenvalues --  -10.22095  -1.34493  -1.23528  -1.21962  -1.20307
 Alpha  occ. eigenvalues --   -1.18170  -1.14975  -1.09422  -1.06000  -1.02661
 Alpha  occ. eigenvalues --   -1.01117  -0.97142  -0.94731  -0.92522  -0.92094
 Alpha  occ. eigenvalues --   -0.90838  -0.89361  -0.87281  -0.83869  -0.82312
 Alpha  occ. eigenvalues --   -0.81771  -0.80190  -0.80018  -0.79031  -0.78451
 Alpha  occ. eigenvalues --   -0.76764  -0.75424  -0.74433  -0.73811  -0.73618
 Alpha  occ. eigenvalues --   -0.73176  -0.70811  -0.69727  -0.68795  -0.67735
 Alpha  occ. eigenvalues --   -0.67371  -0.66541  -0.66069  -0.64739  -0.63623
 Alpha  occ. eigenvalues --   -0.62748  -0.62327  -0.61738  -0.60971  -0.59418
 Alpha  occ. eigenvalues --   -0.58771  -0.58216  -0.57581  -0.56584  -0.55389
 Alpha  occ. eigenvalues --   -0.55095  -0.54381  -0.53686  -0.53105  -0.52686
 Alpha  occ. eigenvalues --   -0.52143  -0.51825  -0.50571  -0.50191  -0.49879
 Alpha  occ. eigenvalues --   -0.49776  -0.49207  -0.49064  -0.47639  -0.47547
 Alpha  occ. eigenvalues --   -0.46922  -0.46516  -0.45324  -0.44242  -0.43998
 Alpha  occ. eigenvalues --   -0.43309  -0.43059  -0.42164  -0.40987  -0.40557
 Alpha  occ. eigenvalues --   -0.39902  -0.39154  -0.37942  -0.37050  -0.36094
 Alpha  occ. eigenvalues --   -0.35682  -0.31272  -0.25693  -0.22846  -0.22707
 Alpha  occ. eigenvalues --   -0.22186  -0.20711
 Alpha virt. eigenvalues --   -0.19678  -0.15507  -0.14195  -0.12481  -0.10904
 Alpha virt. eigenvalues --   -0.09872  -0.09348  -0.08934  -0.06331  -0.05375
 Alpha virt. eigenvalues --   -0.04341  -0.03922  -0.03896  -0.03805  -0.03562

 Mulliken charges:
               1
     1  N   -0.697126
     2  H    0.414481
     3  H    0.419032
     4  H    0.428456
     5  C   -0.160237
     6  H    0.195454
     7  C    0.651402
     8  C   -0.292003
     9  H    0.186398
    10  H    0.191659
    11  O   -0.512654
    12  C   -0.346769
    13  H    0.128783
    14  H    0.109426
    15  C    0.554146
    16  O   -0.561994
    17  O   -0.564107
    18  N   -0.591970
    19  H    0.344588
    20  C   -0.088303
    21  H    0.181779
    22  C    0.657264
    23  C   -0.358474
    24  H    0.200761
    25  H    0.184266
    26  O   -0.582845
    27  C    0.101352
    28  C   -0.210842
    29  H    0.107226
    30  C   -0.196950
    31  H    0.108045
    32  C   -0.235538
    33  H    0.093120
    34  C   -0.227749
    35  H    0.116690
    36  O   -0.642400
    37  C    0.421007
    38  N   -0.605666
    39  H    0.397373
    40  C   -0.072925
    41  H    0.213548
    42  C    0.556625
    43  C   -0.316439
    44  H    0.175304
    45  H    0.225440
    46  O   -0.389028
    47  C   -0.312027
    48  H    0.127106
    49  H    0.171362
    50  C   -0.305072
    51  H    0.150018
    52  H    0.267578
    53  C   -0.237013
    54  H    0.244853
    55  H    0.245840
    56  N   -0.715986
    57  H    0.435003
    58  H    0.425459
    59  H    0.424649
    60  O   -0.602178
    61  H    0.490371
    62  H    0.480427
 Sum of Mulliken charges =   1.00000

 Dipole moment (field-independent basis, Debye):
    X=             30.2098    Y=             17.5569    Z=              9.3532  Tot=             36.1713
 Quadrupole moment (field-independent basis, Debye-Ang):
   XX=           -204.0024   YY=             28.1210   ZZ=           -226.2151
   XY=             29.4137   XZ=             88.3866   YZ=             30.6248

 Normal termination of Gaussian 16 at Thu Jun  2 00:02:46 2022.
