 Gaussian 16, Revision C.01,
 Gaussian 16:  ES64L-G16RevC.01  3-Jul-2019

 ----------------------------------------------------------------------
 # B3LYP/6-31G* empiricaldispersion=gd3 guess=read geom=check nosymm in
 tegral(ultrafinegrid)
 ----------------------------------------------------------------------

 ------------------------------------------------------
 Candidate Structure: Conf:797 Charge calc in gas phase
 ------------------------------------------------------
 Structure from the checkpoint file:  "conf-797.chk"
 Charge =  1 Multiplicity = 1

                          Input orientation:
 ---------------------------------------------------------------------
 Center     Atomic      Atomic             Coordinates (Angstroms)
 Number     Number       Type             X           Y           Z
 ---------------------------------------------------------------------
      1          7           0       -2.483128    0.284253    2.723319
      2          1           0       -6.398503   -2.294182    0.553331
      3          1           0       -2.969863   -0.157096    3.502553
      4          1           0       -2.664663    1.286336    2.794332
      5          6           0       -1.038672    0.057537    2.843132
      6          1           0       -0.888763   -1.028724    2.903171
      7          6           0       -0.419734    0.548188    1.527385
      8          6           0       -0.345881    0.736061    4.037510
      9          1           0       -0.793837    0.359659    4.962321
     10          1           0       -0.549674    1.809103    3.988839
     11          8           0        0.103931    1.671401    1.443854
     12          6           0        1.182536    0.519840    4.052930
     13          1           0        1.536188   -0.016638    3.162392
     14          1           0        1.493048   -0.107448    4.899202
     15          6           0        1.994076    1.788369    4.158502
     16          8           0        1.522693    2.898623    4.387304
     17          8           0        3.324654    1.683939    4.049889
     18          7           0       -0.517107   -0.302619    0.481804
     19          1           0       -1.110862   -1.117655    0.594617
     20          6           0       -0.252641    0.116928   -0.903590
     21          1           0       -0.586288    1.156577   -0.996683
     22          6           0        1.281743    0.060730   -1.077064
     23          6           0       -0.991729   -0.780041   -1.929839
     24          1           0       -1.143838   -0.176498   -2.831599
     25          1           0       -0.329114   -1.602807   -2.210108
     26          8           0        1.867605   -0.909510   -1.572644
     27          6           0       -2.297788   -1.332759   -1.399715
     28          6           0       -2.386710   -2.690569   -1.054859
     29          1           0       -1.551402   -3.353105   -1.269667
     30          6           0       -3.391757   -0.505492   -1.112579
     31          1           0       -3.345362    0.554110   -1.352841
     32          6           0       -3.525781   -3.212203   -0.448736
     33          1           0       -3.600960   -4.263978   -0.193332
     34          6           0       -4.538153   -1.011538   -0.503721
     35          1           0       -5.373234   -0.350457   -0.281881
     36          8           0       -5.685659   -2.942352    0.442447
     37          6           0       -4.606858   -2.370176   -0.163767
     38          7           0        1.929781    1.122479   -0.539645
     39          1           0        1.357154    1.684842    0.095701
     40          6           0        3.380231    1.122233   -0.335611
     41          1           0        3.833477    0.733108   -1.254291
     42          6           0        3.718635    0.119280    0.794978
     43          6           0        3.896723    2.547179   -0.086706
     44          1           0        4.972505    2.478550    0.112755
     45          1           0        3.777798    3.108345   -1.021167
     46          8           0        4.130130    0.458119    1.895221
     47          6           0        3.212021    3.306378    1.062170
     48          1           0        3.291572    2.704633    1.965148
     49          1           0        2.142344    3.440435    0.859321
     50          6           0        3.836953    4.684778    1.306384
     51          1           0        4.917689    4.589585    1.487484
     52          1           0        3.737514    5.312717    0.412105
     53          6           0        3.204534    5.461894    2.458809
     54          1           0        3.655209    6.452494    2.552312
     55          1           0        2.125162    5.578007    2.331040
     56          7           0        3.395987    4.756527    3.794818
     57          1           0        2.644668    4.013496    3.992130
     58          1           0        3.368421    5.417724    4.575763
     59          1           0        4.293600    4.262422    3.836238
     60          8           0        3.500511   -1.156723    0.519120
     61          1           0        3.090303   -1.258955   -0.383384
     62          1           0        3.615907    0.913604    3.497714
 ---------------------------------------------------------------------

 SCF Done:  E(RB3LYP) =  -1526.31396918     A.U. after    1 cycles

 Alpha  occ. eigenvalues --  -19.31126 -19.28864 -19.27632 -19.25168 -19.24814
 Alpha  occ. eigenvalues --  -19.23567 -19.23451 -14.57897 -14.46833 -14.46741
 Alpha  occ. eigenvalues --  -14.41952 -10.45302 -10.43293 -10.39963 -10.39644
 Alpha  occ. eigenvalues --  -10.38580 -10.35166 -10.33889 -10.32890 -10.32720
 Alpha  occ. eigenvalues --  -10.32340 -10.31834 -10.30556 -10.30402 -10.29132
 Alpha  occ. eigenvalues --  -10.27928 -10.26950 -10.26849 -10.26632 -10.26478
 Alpha  occ. eigenvalues --  -10.25793  -1.22916  -1.20801  -1.15443  -1.14525
 Alpha  occ. eigenvalues --   -1.14413  -1.12882  -1.12438  -1.12203  -1.04027
 Alpha  occ. eigenvalues --   -1.03279  -0.99144  -0.93577  -0.92984  -0.90177
 Alpha  occ. eigenvalues --   -0.89573  -0.87379  -0.83785  -0.82248  -0.82160
 Alpha  occ. eigenvalues --   -0.80522  -0.76872  -0.75524  -0.74598  -0.73006
 Alpha  occ. eigenvalues --   -0.72302  -0.71254  -0.70667  -0.70294  -0.69720
 Alpha  occ. eigenvalues --   -0.68882  -0.68317  -0.66336  -0.64997  -0.63801
 Alpha  occ. eigenvalues --   -0.63069  -0.62325  -0.61839  -0.61520  -0.60704
 Alpha  occ. eigenvalues --   -0.59905  -0.59144  -0.58664  -0.58072  -0.57484
 Alpha  occ. eigenvalues --   -0.56414  -0.56218  -0.55797  -0.54647  -0.54468
 Alpha  occ. eigenvalues --   -0.53894  -0.53753  -0.53295  -0.52406  -0.51846
 Alpha  occ. eigenvalues --   -0.51345  -0.51151  -0.50247  -0.50118  -0.49745
 Alpha  occ. eigenvalues --   -0.49405  -0.49381  -0.48881  -0.48240  -0.47707
 Alpha  occ. eigenvalues --   -0.47393  -0.46436  -0.46268  -0.46122  -0.45976
 Alpha  occ. eigenvalues --   -0.45654  -0.45033  -0.44014  -0.43908  -0.42965
 Alpha  occ. eigenvalues --   -0.42145  -0.41617  -0.41020  -0.40244  -0.40165
 Alpha  occ. eigenvalues --   -0.38774  -0.37555  -0.36016  -0.35626  -0.33984
 Alpha  occ. eigenvalues --   -0.32652  -0.29224
 Alpha virt. eigenvalues --   -0.12588  -0.11495  -0.09558  -0.09398  -0.08874
 Alpha virt. eigenvalues --   -0.07984  -0.06476  -0.04461  -0.02896  -0.02211
 Alpha virt. eigenvalues --   -0.01357  -0.01092  -0.00163   0.00269   0.00404

 Mulliken charges:
               1
     1  N   -0.707608
     2  H    0.414647
     3  H    0.321559
     4  H    0.313426
     5  C   -0.092936
     6  H    0.160723
     7  C    0.640862
     8  C   -0.269972
     9  H    0.158856
    10  H    0.187536
    11  O   -0.570842
    12  C   -0.398103
    13  H    0.189635
    14  H    0.210085
    15  C    0.648410
    16  O   -0.506179
    17  O   -0.607597
    18  N   -0.594803
    19  H    0.370532
    20  C   -0.053875
    21  H    0.179450
    22  C    0.621638
    23  C   -0.391496
    24  H    0.175976
    25  H    0.198038
    26  O   -0.547319
    27  C    0.113602
    28  C   -0.208402
    29  H    0.145706
    30  C   -0.165221
    31  H    0.130819
    32  C   -0.154172
    33  H    0.157947
    34  C   -0.176823
    35  H    0.132697
    36  O   -0.632969
    37  C    0.351801
    38  N   -0.619111
    39  H    0.403862
    40  C   -0.098293
    41  H    0.204219
    42  C    0.636374
    43  C   -0.273114
    44  H    0.167680
    45  H    0.168203
    46  O   -0.520554
    47  C   -0.317972
    48  H    0.171335
    49  H    0.168442
    50  C   -0.295359
    51  H    0.163595
    52  H    0.189235
    53  C   -0.184742
    54  H    0.207512
    55  H    0.216786
    56  N   -0.774929
    57  H    0.459131
    58  H    0.405811
    59  H    0.404664
    60  O   -0.563873
    61  H    0.462466
    62  H    0.473002
 Sum of Mulliken charges =   1.00000

 Dipole moment (field-independent basis, Debye):
    X=              7.3286    Y=             15.2700    Z=             12.1145  Tot=             20.8241
 Quadrupole moment (field-independent basis, Debye-Ang):
   XX=           -113.4285   YY=           -101.5768   ZZ=           -127.0459
   XY=             57.3697   XZ=             24.8370   YZ=             42.6399

 Normal termination of Gaussian 16 at Thu Jun  2 00:02:26 2022.
