 Gaussian 16, Revision C.01,
 Gaussian 16:  ES64L-G16RevC.01  3-Jul-2019

 ----------------------------------------------------------------------
 # B3LYP/6-31G* empiricaldispersion=gd3 guess=read geom=check nosymm in
 tegral(ultrafinegrid)
 ----------------------------------------------------------------------

 ------------------------------------------------------
 Candidate Structure: Conf:222 Charge calc in gas phase
 ------------------------------------------------------
 Structure from the checkpoint file:  "conf-222.chk"
 Charge =  1 Multiplicity = 1

                          Input orientation:
 ---------------------------------------------------------------------
 Center     Atomic      Atomic             Coordinates (Angstroms)
 Number     Number       Type             X           Y           Z
 ---------------------------------------------------------------------
      1          7           0       -0.946230   -3.884621    2.534107
      2          1           0       -0.416974   -4.097395    3.381507
      3          1           0       -1.625774   -4.631701    2.374826
      4          1           0       -0.271701   -3.748537    1.679430
      5          6           0       -1.559754   -2.499408    2.534567
      6          1           0       -1.429106   -2.058536    3.524007
      7          6           0       -0.682228   -1.747197    1.483097
      8          6           0       -3.053157   -2.597701    2.174191
      9          1           0       -3.544870   -3.227767    2.926783
     10          1           0       -3.147598   -3.100468    1.202086
     11          8           0        0.113301   -2.488588    0.828860
     12          6           0       -3.799021   -1.249032    2.112501
     13          1           0       -4.863714   -1.452966    1.981185
     14          1           0       -3.440994   -0.668646    1.258725
     15          6           0       -3.641028   -0.456782    3.415416
     16          8           0       -2.504139    0.252680    3.530252
     17          8           0       -4.454414   -0.508686    4.306836
     18          7           0       -0.888950   -0.455448    1.430477
     19          1           0       -1.937917    0.144194    2.710556
     20          6           0       -0.170406    0.330105    0.458049
     21          1           0       -0.623336    1.330564    0.465221
     22          6           0        1.279621    0.568443    0.850980
     23          6           0       -0.269462   -0.188131   -1.027609
     24          1           0        0.216537   -1.162883   -1.088331
     25          1           0       -1.342811   -0.356377   -1.174929
     26          8           0        1.810486   -0.218563    1.736047
     27          6           0        0.277069    0.758889   -2.069293
     28          6           0       -0.224488    2.067369   -2.212038
     29          1           0       -1.063887    2.393498   -1.599999
     30          6           0        1.319981    0.369043   -2.919427
     31          1           0        1.711567   -0.643672   -2.854702
     32          6           0        0.325150    2.961825   -3.125357
     33          1           0       -0.056958    3.972734   -3.223493
     34          6           0        1.854929    1.241360   -3.868093
     35          1           0        2.633117    0.900007   -4.545259
     36          8           0        1.895513    3.481814   -4.800083
     37          6           0        1.388151    2.564418   -3.957214
     38          7           0        1.952153    1.550906    0.280478
     39          1           0        1.424665    2.079943   -0.415252
     40          6           0        3.422061    1.770466    0.245315
     41          1           0        3.898679    0.795434    0.083932
     42          6           0        3.913428    2.331163    1.587822
     43          6           0        3.735634    2.724096   -0.910036
     44          1           0        3.176297    2.372395   -1.782847
     45          1           0        3.353763    3.717906   -0.649382
     46          8           0        4.302394    3.443845    1.800181
     47          6           0        5.233988    2.826800   -1.249537
     48          1           0        5.658030    1.822209   -1.389173
     49          1           0        5.767315    3.286207   -0.411286
     50          6           0        5.432278    3.659210   -2.531620
     51          1           0        4.772945    4.537719   -2.484415
     52          1           0        6.456672    4.042567   -2.588776
     53          6           0        5.097156    2.829440   -3.785909
     54          1           0        5.972678    2.241053   -4.083028
     55          1           0        4.324010    2.102377   -3.525496
     56          7           0        4.622473    3.596029   -4.956991
     57          1           0        2.784826    3.246718   -5.135607
     58          1           0        5.342302    3.679968   -5.669154
     59          1           0        4.366791    4.544451   -4.688015
     60          8           0        3.842228    1.358657    2.551520
     61          1           0        2.670693    0.133387    2.098289
     62          1           0        4.111471    1.736877    3.412303
 ---------------------------------------------------------------------

 SCF Done:  E(RB3LYP) =  -1526.23839495     A.U. after    1 cycles

 Alpha  occ. eigenvalues --  -19.36116 -19.35890 -19.29447 -19.24532 -19.23786
 Alpha  occ. eigenvalues --  -19.22954 -19.18874 -14.55937 -14.54703 -14.42478
 Alpha  occ. eigenvalues --  -14.41314 -10.47819 -10.47338 -10.39855 -10.38357
 Alpha  occ. eigenvalues --  -10.37673 -10.36696 -10.36069 -10.34378 -10.31617
 Alpha  occ. eigenvalues --  -10.31606 -10.30883 -10.30115 -10.29854 -10.29405
 Alpha  occ. eigenvalues --  -10.29287 -10.29181 -10.28703 -10.28436 -10.28427
 Alpha  occ. eigenvalues --  -10.28239  -1.26872  -1.25491  -1.17381  -1.15023
 Alpha  occ. eigenvalues --   -1.14667  -1.13540  -1.11725  -1.09407  -1.06894
 Alpha  occ. eigenvalues --   -1.00893  -0.98521  -0.95445  -0.94903  -0.91415
 Alpha  occ. eigenvalues --   -0.89285  -0.87837  -0.84621  -0.84534  -0.82274
 Alpha  occ. eigenvalues --   -0.82057  -0.79777  -0.77285  -0.76060  -0.74847
 Alpha  occ. eigenvalues --   -0.73437  -0.73016  -0.71489  -0.70302  -0.68967
 Alpha  occ. eigenvalues --   -0.68847  -0.68479  -0.67682  -0.66475  -0.66124
 Alpha  occ. eigenvalues --   -0.63896  -0.63845  -0.63199  -0.61362  -0.60817
 Alpha  occ. eigenvalues --   -0.60135  -0.59634  -0.58394  -0.57949  -0.57585
 Alpha  occ. eigenvalues --   -0.57085  -0.56859  -0.56493  -0.55916  -0.55630
 Alpha  occ. eigenvalues --   -0.54912  -0.54479  -0.53051  -0.52556  -0.51956
 Alpha  occ. eigenvalues --   -0.51725  -0.51385  -0.51009  -0.50951  -0.50636
 Alpha  occ. eigenvalues --   -0.50085  -0.49466  -0.48814  -0.48669  -0.48008
 Alpha  occ. eigenvalues --   -0.47838  -0.47205  -0.46912  -0.46640  -0.45915
 Alpha  occ. eigenvalues --   -0.45643  -0.45282  -0.45193  -0.44546  -0.43646
 Alpha  occ. eigenvalues --   -0.42877  -0.42591  -0.42030  -0.41254  -0.38547
 Alpha  occ. eigenvalues --   -0.36807  -0.36127  -0.35480  -0.34762  -0.34627
 Alpha  occ. eigenvalues --   -0.32476  -0.30935
 Alpha virt. eigenvalues --   -0.17164  -0.14848  -0.10927  -0.09126  -0.08342
 Alpha virt. eigenvalues --   -0.08010  -0.07207  -0.05232  -0.03385  -0.03149
 Alpha virt. eigenvalues --   -0.02854  -0.01588  -0.00708  -0.00614  -0.00174

 Mulliken charges:
               1
     1  N   -0.770614
     2  H    0.401191
     3  H    0.399320
     4  H    0.427384
     5  C   -0.110675
     6  H    0.219836
     7  C    0.624785
     8  C   -0.299263
     9  H    0.181345
    10  H    0.165572
    11  O   -0.624006
    12  C   -0.359372
    13  H    0.193582
    14  H    0.171261
    15  C    0.567211
    16  O   -0.607111
    17  O   -0.439953
    18  N   -0.576650
    19  H    0.441111
    20  C   -0.088370
    21  H    0.186314
    22  C    0.646725
    23  C   -0.365881
    24  H    0.204554
    25  H    0.185738
    26  O   -0.544971
    27  C    0.125577
    28  C   -0.235761
    29  H    0.147597
    30  C   -0.200947
    31  H    0.144085
    32  C   -0.159933
    33  H    0.164453
    34  C   -0.204212
    35  H    0.157377
    36  O   -0.661337
    37  C    0.359858
    38  N   -0.580436
    39  H    0.398133
    40  C   -0.069493
    41  H    0.209634
    42  C    0.637718
    43  C   -0.328829
    44  H    0.186330
    45  H    0.186254
    46  O   -0.391185
    47  C   -0.290118
    48  H    0.146612
    49  H    0.177621
    50  C   -0.282168
    51  H    0.149395
    52  H    0.166875
    53  C   -0.139683
    54  H    0.162305
    55  H    0.140636
    56  N   -0.772356
    57  H    0.448752
    58  H    0.334029
    59  H    0.331895
    60  O   -0.616752
    61  H    0.475889
    62  H    0.453122
 Sum of Mulliken charges =   1.00000

 Dipole moment (field-independent basis, Debye):
    X=             13.0593    Y=             -3.0317    Z=              0.4719  Tot=             13.4149
 Quadrupole moment (field-independent basis, Debye-Ang):
   XX=           -127.6269   YY=           -121.4287   ZZ=           -159.3454
   XY=             42.5080   XZ=             -0.2931   YZ=            -41.5240

 Normal termination of Gaussian 16 at Wed Jun  1 23:53:08 2022.
