 Gaussian 16, Revision C.01,
 Gaussian 16:  ES64L-G16RevC.01  3-Jul-2019

 ----------------------------------------------------------------------
 # B3LYP/6-31G* empiricaldispersion=gd3 guess=read geom=check nosymm in
 tegral(ultrafinegrid)
 ----------------------------------------------------------------------

 ------------------------------------------------------
 Candidate Structure: Conf:684 Charge calc in gas phase
 ------------------------------------------------------
 Structure from the checkpoint file:  "conf-684.chk"
 Charge =  1 Multiplicity = 1

                          Input orientation:
 ---------------------------------------------------------------------
 Center     Atomic      Atomic             Coordinates (Angstroms)
 Number     Number       Type             X           Y           Z
 ---------------------------------------------------------------------
      1          7           0       -1.338093   -3.454467    3.103838
      2          1           0       -0.342674   -3.670334    3.203523
      3          1           0       -1.822394   -3.691868    3.972561
      4          1           0       -1.688253   -4.046963    2.342511
      5          6           0       -1.540057   -2.021701    2.730798
      6          1           0       -1.075838   -1.392153    3.495925
      7          6           0       -0.810971   -1.820278    1.395955
      8          6           0       -3.041223   -1.699997    2.674337
      9          1           0       -3.461055   -1.947873    3.658516
     10          1           0       -3.526127   -2.355046    1.937810
     11          8           0       -0.523549   -2.804647    0.711079
     12          6           0       -3.328808   -0.229222    2.366109
     13          1           0       -4.401581   -0.040553    2.438336
     14          1           0       -2.990404    0.029238    1.360226
     15          6           0       -2.581594    0.610092    3.435153
     16          8           0       -1.390873    0.950253    3.116143
     17          8           0       -3.174157    0.815574    4.498533
     18          7           0       -0.572519   -0.527209    1.118591
     19          1           0       -0.862474    0.163005    1.854379
     20          6           0        0.100043   -0.003002   -0.058755
     21          1           0       -0.177617    1.057799   -0.095451
     22          6           0        1.623300   -0.051444    0.100056
     23          6           0       -0.316265   -0.663686   -1.391245
     24          1           0       -0.107635   -1.729120   -1.330121
     25          1           0       -1.402504   -0.541296   -1.459545
     26          8           0        2.310250   -1.027397   -0.151046
     27          6           0        0.371498   -0.097749   -2.609384
     28          6           0        0.121818    1.197140   -3.083956
     29          1           0       -0.636864    1.803339   -2.589233
     30          6           0        1.365826   -0.843287   -3.255616
     31          1           0        1.625389   -1.822925   -2.858076
     32          6           0        0.835569    1.736713   -4.148811
     33          1           0        0.658142    2.752911   -4.486425
     34          6           0        2.068801   -0.346087   -4.337511
     35          1           0        2.867926   -0.919890   -4.798650
     36          8           0        2.681687    1.538013   -5.645318
     37          6           0        1.879325    0.994549   -4.798340
     38          7           0        2.185569    1.154415    0.484661
     39          1           0        1.621155    1.902876    0.861489
     40          6           0        3.594419    1.350621    0.313593
     41          1           0        3.934436    0.391580   -0.087853
     42          6           0        4.256161    1.623361    1.634293
     43          6           0        3.928999    2.495871   -0.675951
     44          1           0        3.781832    3.478145   -0.214685
     45          1           0        4.984596    2.424467   -0.958617
     46          8           0        3.902518    2.144493    2.632569
     47          6           0        2.977609    2.369549   -1.872998
     48          1           0        1.974752    2.624167   -1.512789
     49          1           0        2.905068    1.322802   -2.187016
     50          6           0        3.285210    3.194861   -3.102169
     51          1           0        2.376547    3.212155   -3.723226
     52          1           0        3.529396    4.237589   -2.845897
     53          6           0        4.338718    2.633260   -4.029433
     54          1           0        5.367550    2.688709   -3.659090
     55          1           0        4.101658    1.584124   -4.225714
     56          7           0        4.182012    3.382124   -5.318052
     57          1           0        4.774303    3.035525   -6.076840
     58          1           0        4.377641    4.378022   -5.190982
     59          1           0        3.190228    3.301157   -5.597749
     60          8           0        5.822602    1.611250    1.483019
     61          1           0        6.180001    0.795185    1.183562
     62          1           0        6.183514    1.840482    2.358047
 ---------------------------------------------------------------------

 SCF Done:  E(RB3LYP) =  -1526.06184963     A.U. after    1 cycles

 Alpha  occ. eigenvalues --  -19.47914 -19.37144 -19.23167 -19.20737 -19.13938
 Alpha  occ. eigenvalues --  -19.11737 -19.09899 -14.58561 -14.56000 -14.48969
 Alpha  occ. eigenvalues --  -14.42550 -10.52361 -10.40735 -10.39899 -10.37940
 Alpha  occ. eigenvalues --  -10.35103 -10.34806 -10.34079 -10.32146 -10.30210
 Alpha  occ. eigenvalues --  -10.30118 -10.29042 -10.28328 -10.28003 -10.25089
 Alpha  occ. eigenvalues --  -10.24093 -10.23493 -10.23440 -10.22752 -10.22670
 Alpha  occ. eigenvalues --  -10.22090  -1.36096  -1.27108  -1.15476  -1.14503
 Alpha  occ. eigenvalues --   -1.11352  -1.11116  -1.06517  -1.04373  -1.02844
 Alpha  occ. eigenvalues --   -1.00675  -0.95650  -0.94871  -0.91528  -0.89952
 Alpha  occ. eigenvalues --   -0.89016  -0.86018  -0.85800  -0.84896  -0.81010
 Alpha  occ. eigenvalues --   -0.79821  -0.79112  -0.77913  -0.76746  -0.73032
 Alpha  occ. eigenvalues --   -0.72872  -0.72315  -0.71748  -0.71341  -0.69566
 Alpha  occ. eigenvalues --   -0.69233  -0.68212  -0.67367  -0.67098  -0.65564
 Alpha  occ. eigenvalues --   -0.65505  -0.63988  -0.62900  -0.62147  -0.61774
 Alpha  occ. eigenvalues --   -0.60845  -0.60463  -0.59306  -0.58449  -0.57250
 Alpha  occ. eigenvalues --   -0.56524  -0.55283  -0.54783  -0.53915  -0.53202
 Alpha  occ. eigenvalues --   -0.52927  -0.52353  -0.51707  -0.51351  -0.50935
 Alpha  occ. eigenvalues --   -0.49989  -0.49918  -0.49514  -0.48644  -0.47942
 Alpha  occ. eigenvalues --   -0.47562  -0.46511  -0.46258  -0.46082  -0.45669
 Alpha  occ. eigenvalues --   -0.45393  -0.44944  -0.44522  -0.44023  -0.43253
 Alpha  occ. eigenvalues --   -0.42677  -0.41808  -0.40311  -0.39547  -0.39049
 Alpha  occ. eigenvalues --   -0.38591  -0.38470  -0.37506  -0.35536  -0.34465
 Alpha  occ. eigenvalues --   -0.32900  -0.29938  -0.28578  -0.26865  -0.26421
 Alpha  occ. eigenvalues --   -0.24098  -0.23410
 Alpha virt. eigenvalues --   -0.21770  -0.16772  -0.10467  -0.09252  -0.08619
 Alpha virt. eigenvalues --   -0.08391  -0.07280  -0.06508  -0.05241  -0.04666
 Alpha virt. eigenvalues --   -0.03011  -0.02938  -0.02662  -0.01933  -0.01881

 Mulliken charges:
               1
     1  N   -0.711309
     2  H    0.415344
     3  H    0.414297
     4  H    0.416472
     5  C   -0.167184
     6  H    0.241803
     7  C    0.625025
     8  C   -0.281352
     9  H    0.170355
    10  H    0.148975
    11  O   -0.550892
    12  C   -0.344415
    13  H    0.169475
    14  H    0.139072
    15  C    0.558652
    16  O   -0.631269
    17  O   -0.539085
    18  N   -0.637154
    19  H    0.403339
    20  C   -0.047980
    21  H    0.152099
    22  C    0.652166
    23  C   -0.369510
    24  H    0.205573
    25  H    0.159150
    26  O   -0.493149
    27  C    0.135450
    28  C   -0.197835
    29  H    0.113419
    30  C   -0.182519
    31  H    0.132657
    32  C   -0.241259
    33  H    0.107302
    34  C   -0.214370
    35  H    0.109926
    36  O   -0.724196
    37  C    0.426301
    38  N   -0.608108
    39  H    0.366460
    40  C   -0.059426
    41  H    0.220972
    42  C    0.548261
    43  C   -0.291672
    44  H    0.174708
    45  H    0.149374
    46  O   -0.305016
    47  C   -0.269055
    48  H    0.173279
    49  H    0.198121
    50  C   -0.287016
    51  H    0.177961
    52  H    0.131965
    53  C   -0.182760
    54  H    0.157597
    55  H    0.255798
    56  N   -0.691472
    57  H    0.414688
    58  H    0.374869
    59  H    0.406235
    60  O   -0.607874
    61  H    0.492434
    62  H    0.496302
 Sum of Mulliken charges =   1.00000

 Dipole moment (field-independent basis, Debye):
    X=             27.6998    Y=              2.8829    Z=             -0.1928  Tot=             27.8501
 Quadrupole moment (field-independent basis, Debye-Ang):
   XX=            -25.2871   YY=           -104.1299   ZZ=           -157.8498
   XY=             88.1405   XZ=             -1.8056   YZ=            -88.6295

 Normal termination of Gaussian 16 at Thu Jun  2 00:02:21 2022.
