 Gaussian 16, Revision C.01,
 Gaussian 16:  ES64L-G16RevC.01  3-Jul-2019

 ----------------------------------------------------------------------
 # B3LYP/6-31G* empiricaldispersion=gd3 guess=read geom=check nosymm in
 tegral(ultrafinegrid)
 ----------------------------------------------------------------------

 ------------------------------------------------------
 Candidate Structure: Conf:305 Charge calc in gas phase
 ------------------------------------------------------
 Structure from the checkpoint file:  "conf-305.chk"
 Charge =  1 Multiplicity = 1

                          Input orientation:
 ---------------------------------------------------------------------
 Center     Atomic      Atomic             Coordinates (Angstroms)
 Number     Number       Type             X           Y           Z
 ---------------------------------------------------------------------
      1          7           0       -1.178073   -3.480020    3.156635
      2          1           0       -0.179890   -3.541650    3.359194
      3          1           0       -1.713453   -3.858997    3.934428
      4          1           0       -1.339644   -4.064438    2.335833
      5          6           0       -1.564121   -2.087404    2.859591
      6          1           0       -1.148810   -1.429280    3.631962
      7          6           0       -0.930571   -1.687099    1.522588
      8          6           0       -3.084429   -1.908491    2.869747
      9          1           0       -3.330465   -0.890226    2.559392
     10          1           0       -3.440630   -2.023613    3.898795
     11          8           0       -0.348909   -2.502878    0.826707
     12          6           0       -3.858958   -2.884040    1.991005
     13          1           0       -3.729142   -3.910205    2.345726
     14          1           0       -3.557519   -2.814483    0.945091
     15          6           0       -5.337249   -2.467780    2.149104
     16          8           0       -5.942780   -2.991770    3.101155
     17          8           0       -5.750807   -1.629592    1.327192
     18          7           0       -1.106322   -0.380711    1.183106
     19          1           0       -1.444491    0.225704    1.908973
     20          6           0       -0.379397    0.281245    0.106549
     21          1           0       -0.895132    1.234346   -0.058113
     22          6           0        1.051751    0.608515    0.538577
     23          6           0       -0.433331   -0.488214   -1.228081
     24          1           0        0.157058   -1.395235   -1.161244
     25          1           0       -1.472725   -0.783344   -1.363774
     26          8           0        1.664080   -0.020280    1.404041
     27          6           0        0.021487    0.350077   -2.378279
     28          6           0       -0.741742    1.448770   -2.796199
     29          1           0       -1.696597    1.627766   -2.303911
     30          6           0        1.247426    0.102068   -3.007995
     31          1           0        1.849140   -0.741599   -2.680739
     32          6           0       -0.301246    2.309316   -3.766888
     33          1           0       -0.878516    3.172416   -4.068973
     34          6           0        1.721444    0.918138   -4.006408
     35          1           0        2.687520    0.757160   -4.470722
     36          8           0        1.394848    2.853446   -5.305076
     37          6           0        0.975761    2.091055   -4.425717
     38          7           0        1.624322    1.652723   -0.106943
     39          1           0        1.123118    2.028175   -0.900146
     40          6           0        3.084480    1.800129   -0.144148
     41          1           0        3.515769    0.791644   -0.199546
     42          6           0        3.621829    2.385871    1.131821
     43          6           0        3.507224    2.604251   -1.376256
     44          1           0        2.823905    2.353275   -2.194125
     45          1           0        3.367993    3.666556   -1.179869
     46          8           0        4.589662    3.068351    1.252419
     47          6           0        4.926841    2.308815   -1.826074
     48          1           0        4.964362    1.272855   -2.180616
     49          1           0        5.615917    2.372380   -0.980840
     50          6           0        5.403256    3.233186   -2.939924
     51          1           0        6.416907    2.953078   -3.238482
     52          1           0        4.765796    3.099232   -3.824707
     53          6           0        5.379452    4.709542   -2.556856
     54          1           0        5.881070    5.300569   -3.325617
     55          1           0        4.341262    5.056368   -2.519720
     56          7           0        6.013068    4.961939   -1.239755
     57          1           0        6.168373    5.956190   -1.072434
     58          1           0        6.905504    4.477037   -1.163931
     59          1           0        5.426247    4.617606   -0.477788
     60          8           0        2.902783    1.997227    2.317742
     61          1           0        2.446527    1.082430    2.147212
     62          1           0        3.534968    1.979187    3.066265
 ---------------------------------------------------------------------

 SCF Done:  E(RB3LYP) =  -1525.99472835     A.U. after    3 cycles

 Alpha  occ. eigenvalues --  -19.45835 -19.33184 -19.30163 -19.24810 -19.11294
 Alpha  occ. eigenvalues --  -19.07651 -19.07501 -14.65658 -14.60520 -14.51802
 Alpha  occ. eigenvalues --  -14.48807 -10.48990 -10.44914 -10.42189 -10.42098
 Alpha  occ. eigenvalues --  -10.41075 -10.38357 -10.36174 -10.35206 -10.34407
 Alpha  occ. eigenvalues --  -10.34326 -10.28645 -10.27481 -10.26837 -10.26112
 Alpha  occ. eigenvalues --  -10.24335 -10.24006 -10.23896 -10.22730 -10.21948
 Alpha  occ. eigenvalues --  -10.21831  -1.34512  -1.23604  -1.21843  -1.20749
 Alpha  occ. eigenvalues --   -1.18029  -1.14888  -1.09261  -1.05781  -1.01937
 Alpha  occ. eigenvalues --   -1.01417  -0.98224  -0.94909  -0.92478  -0.92442
 Alpha  occ. eigenvalues --   -0.90559  -0.89484  -0.86891  -0.84805  -0.82232
 Alpha  occ. eigenvalues --   -0.81685  -0.80592  -0.79541  -0.79096  -0.78517
 Alpha  occ. eigenvalues --   -0.77902  -0.76143  -0.74786  -0.73812  -0.73302
 Alpha  occ. eigenvalues --   -0.72773  -0.70595  -0.69748  -0.68611  -0.68144
 Alpha  occ. eigenvalues --   -0.67473  -0.66662  -0.65960  -0.64441  -0.63755
 Alpha  occ. eigenvalues --   -0.63082  -0.62292  -0.61743  -0.60822  -0.60518
 Alpha  occ. eigenvalues --   -0.59256  -0.57977  -0.57247  -0.56675  -0.56433
 Alpha  occ. eigenvalues --   -0.55746  -0.54172  -0.54027  -0.53617  -0.52724
 Alpha  occ. eigenvalues --   -0.52197  -0.51605  -0.50538  -0.50263  -0.50029
 Alpha  occ. eigenvalues --   -0.49924  -0.49717  -0.49275  -0.47735  -0.47487
 Alpha  occ. eigenvalues --   -0.46967  -0.46214  -0.44822  -0.44147  -0.43555
 Alpha  occ. eigenvalues --   -0.43034  -0.42845  -0.42023  -0.41125  -0.39896
 Alpha  occ. eigenvalues --   -0.39381  -0.38826  -0.37632  -0.37250  -0.36079
 Alpha  occ. eigenvalues --   -0.35431  -0.30705  -0.24820  -0.23037  -0.22395
 Alpha  occ. eigenvalues --   -0.21891  -0.21008
 Alpha virt. eigenvalues --   -0.19960  -0.15549  -0.14657  -0.13063  -0.10725
 Alpha virt. eigenvalues --   -0.10119  -0.09481  -0.08832  -0.05818  -0.05556
 Alpha virt. eigenvalues --   -0.05347  -0.04461  -0.04375  -0.03720  -0.02930

 Mulliken charges:
               1
     1  N   -0.700878
     2  H    0.410256
     3  H    0.426536
     4  H    0.429741
     5  C   -0.158588
     6  H    0.185655
     7  C    0.663526
     8  C   -0.299234
     9  H    0.191606
    10  H    0.180224
    11  O   -0.511604
    12  C   -0.358839
    13  H    0.103404
    14  H    0.151739
    15  C    0.561126
    16  O   -0.557002
    17  O   -0.552458
    18  N   -0.590578
    19  H    0.341296
    20  C   -0.085929
    21  H    0.192186
    22  C    0.644605
    23  C   -0.362608
    24  H    0.194849
    25  H    0.199050
    26  O   -0.585115
    27  C    0.101982
    28  C   -0.202648
    29  H    0.118912
    30  C   -0.195368
    31  H    0.096267
    32  C   -0.218916
    33  H    0.128204
    34  C   -0.236979
    35  H    0.094139
    36  O   -0.599743
    37  C    0.407817
    38  N   -0.601583
    39  H    0.389176
    40  C   -0.054743
    41  H    0.214074
    42  C    0.547561
    43  C   -0.333440
    44  H    0.239874
    45  H    0.134191
    46  O   -0.448286
    47  C   -0.311027
    48  H    0.203524
    49  H    0.131515
    50  C   -0.307290
    51  H    0.180806
    52  H    0.247719
    53  C   -0.235594
    54  H    0.239491
    55  H    0.242360
    56  N   -0.730595
    57  H    0.433146
    58  H    0.426708
    59  H    0.435034
    60  O   -0.605852
    61  H    0.481766
    62  H    0.474833
 Sum of Mulliken charges =   1.00000

 Dipole moment (field-independent basis, Debye):
    X=             40.4169    Y=             15.8267    Z=             12.4050  Tot=             45.1430
 Quadrupole moment (field-independent basis, Debye-Ang):
   XX=           -124.5428   YY=            -68.2153   ZZ=           -182.4109
   XY=             88.9005   XZ=             11.3886   YZ=            -18.2721

 Normal termination of Gaussian 16 at Thu Jun  2 00:02:53 2022.
