 Gaussian 16, Revision C.01,
 Gaussian 16:  ES64L-G16RevC.01  3-Jul-2019

 ----------------------------------------------------------------------
 # B3LYP/6-31G* empiricaldispersion=gd3 guess=read geom=check nosymm in
 tegral(ultrafinegrid)
 ----------------------------------------------------------------------

 ------------------------------------------------------
 Candidate Structure: Conf:331 Charge calc in gas phase
 ------------------------------------------------------
 Structure from the checkpoint file:  "conf-331.chk"
 Charge =  1 Multiplicity = 1

                          Input orientation:
 ---------------------------------------------------------------------
 Center     Atomic      Atomic             Coordinates (Angstroms)
 Number     Number       Type             X           Y           Z
 ---------------------------------------------------------------------
      1          7           0        0.466009   -3.342640    2.811070
      2          1           0        0.985930   -2.465005    2.887266
      3          1           0        0.485309   -3.827545    3.706667
      4          1           0        0.939826   -3.916134    2.109392
      5          6           0       -0.925035   -3.099732    2.351628
      6          1           0       -1.435259   -2.464990    3.086275
      7          6           0       -0.774138   -2.371575    1.026253
      8          6           0       -1.682196   -4.409597    2.201313
      9          1           0       -1.559697   -4.971740    3.135063
     10          1           0       -1.205066   -4.991747    1.408667
     11          8           0       -0.323422   -2.955320    0.047942
     12          6           0       -3.174428   -4.238584    1.939034
     13          1           0       -3.389575   -3.833770    0.950390
     14          1           0       -3.612632   -3.577565    2.692200
     15          6           0       -3.906405   -5.613372    2.097179
     16          8           0       -4.731051   -5.887609    1.207338
     17          8           0       -3.603022   -6.242781    3.123314
     18          7           0       -1.072001   -1.038959    1.049063
     19          1           0       -1.299651   -0.667484    1.955067
     20          6           0       -0.349921   -0.073776    0.220358
     21          1           0       -0.884326    0.872307    0.341412
     22          6           0        1.070009    0.125008    0.771885
     23          6           0       -0.349827   -0.417532   -1.278788
     24          1           0        0.253755   -1.300865   -1.454236
     25          1           0       -1.378742   -0.661228   -1.538976
     26          8           0        1.626002   -0.740635    1.466744
     27          6           0        0.151049    0.716127   -2.115163
     28          6           0       -0.588199    1.898814   -2.224881
     29          1           0       -1.567115    1.942541   -1.751110
     30          6           0        1.397601    0.635089   -2.747209
     31          1           0        1.972041   -0.282921   -2.666196
     32          6           0       -0.090104    3.002897   -2.868408
     33          1           0       -0.648320    3.924176   -2.942262
     34          6           0        1.917654    1.695563   -3.446396
     35          1           0        2.878452    1.645616   -3.940299
     36          8           0        1.705846    3.958130   -4.045755
     37          6           0        1.219960    2.962795   -3.489511
     38          7           0        1.657844    1.298142    0.467484
     39          1           0        1.192195    1.868946   -0.223074
     40          6           0        3.110731    1.501744    0.578059
     41          1           0        3.607459    0.607106    0.189688
     42          6           0        3.503428    1.615038    2.027436
     43          6           0        3.522050    2.689512   -0.287781
     44          1           0        4.607466    2.800125   -0.233203
     45          1           0        3.288642    2.398876   -1.321170
     46          8           0        3.700524    2.577338    2.697495
     47          6           0        2.846746    4.014975    0.015932
     48          1           0        3.084013    4.324785    1.032961
     49          1           0        1.760971    3.906248   -0.022956
     50          6           0        3.266790    5.105097   -0.957231
     51          1           0        4.359280    5.157411   -0.996184
     52          1           0        2.918339    4.866898   -1.963602
     53          6           0        2.745009    6.466547   -0.547369
     54          1           0        1.653192    6.444593   -0.518440
     55          1           0        3.088367    6.686270    0.466741
     56          7           0        3.193772    7.545511   -1.461968
     57          1           0        2.841068    8.462172   -1.184632
     58          1           0        2.878460    7.369694   -2.415616
     59          1           0        4.211367    7.602981   -1.485954
     60          8           0        3.619235    0.309098    2.638286
     61          1           0        2.865821   -0.279404    2.251091
     62          1           0        3.557033    0.459799    3.601408
 ---------------------------------------------------------------------

 SCF Done:  E(RB3LYP) =  -1526.00128434     A.U. after    3 cycles

 Alpha  occ. eigenvalues --  -19.45742 -19.32898 -19.32221 -19.24307 -19.12024
 Alpha  occ. eigenvalues --  -19.07521 -19.07277 -14.65832 -14.61291 -14.52777
 Alpha  occ. eigenvalues --  -14.48980 -10.49115 -10.46144 -10.42188 -10.41626
 Alpha  occ. eigenvalues --  -10.40985 -10.37633 -10.36750 -10.34541 -10.33617
 Alpha  occ. eigenvalues --  -10.33456 -10.27779 -10.27561 -10.26937 -10.25647
 Alpha  occ. eigenvalues --  -10.24740 -10.24565 -10.24097 -10.22391 -10.22127
 Alpha  occ. eigenvalues --  -10.21291  -1.34709  -1.23342  -1.22800  -1.20715
 Alpha  occ. eigenvalues --   -1.17761  -1.15064  -1.10215  -1.05934  -1.02776
 Alpha  occ. eigenvalues --   -1.00978  -0.97791  -0.95331  -0.92390  -0.92155
 Alpha  occ. eigenvalues --   -0.90561  -0.89631  -0.87405  -0.84189  -0.82876
 Alpha  occ. eigenvalues --   -0.80934  -0.80367  -0.80060  -0.79127  -0.78758
 Alpha  occ. eigenvalues --   -0.77055  -0.75535  -0.75312  -0.74688  -0.73859
 Alpha  occ. eigenvalues --   -0.73010  -0.70784  -0.69300  -0.68511  -0.67731
 Alpha  occ. eigenvalues --   -0.67297  -0.66704  -0.66296  -0.65537  -0.64091
 Alpha  occ. eigenvalues --   -0.63812  -0.62323  -0.61810  -0.61184  -0.60077
 Alpha  occ. eigenvalues --   -0.59092  -0.58304  -0.58232  -0.57338  -0.55174
 Alpha  occ. eigenvalues --   -0.54441  -0.54145  -0.53207  -0.52869  -0.52165
 Alpha  occ. eigenvalues --   -0.52024  -0.50731  -0.50581  -0.50013  -0.49959
 Alpha  occ. eigenvalues --   -0.49858  -0.49387  -0.48827  -0.47539  -0.47296
 Alpha  occ. eigenvalues --   -0.46873  -0.46579  -0.45175  -0.44213  -0.43792
 Alpha  occ. eigenvalues --   -0.43545  -0.42719  -0.41913  -0.40669  -0.40041
 Alpha  occ. eigenvalues --   -0.39803  -0.39255  -0.37156  -0.36887  -0.36184
 Alpha  occ. eigenvalues --   -0.35287  -0.31195  -0.25789  -0.22855  -0.22764
 Alpha  occ. eigenvalues --   -0.21802  -0.20721
 Alpha virt. eigenvalues --   -0.19716  -0.15766  -0.15393  -0.13473  -0.12463
 Alpha virt. eigenvalues --   -0.10242  -0.09428  -0.08334  -0.06692  -0.06353
 Alpha virt. eigenvalues --   -0.05901  -0.05246  -0.04254  -0.03513  -0.03431

 Mulliken charges:
               1
     1  N   -0.717771
     2  H    0.396063
     3  H    0.421758
     4  H    0.427552
     5  C   -0.164482
     6  H    0.185993
     7  C    0.639002
     8  C   -0.265383
     9  H    0.167277
    10  H    0.179803
    11  O   -0.480287
    12  C   -0.370282
    13  H    0.153630
    14  H    0.129054
    15  C    0.575286
    16  O   -0.529348
    17  O   -0.560825
    18  N   -0.568093
    19  H    0.327262
    20  C   -0.096803
    21  H    0.185848
    22  C    0.655501
    23  C   -0.354672
    24  H    0.198270
    25  H    0.197054
    26  O   -0.624274
    27  C    0.094825
    28  C   -0.201286
    29  H    0.108191
    30  C   -0.199574
    31  H    0.103948
    32  C   -0.230102
    33  H    0.101769
    34  C   -0.225199
    35  H    0.110832
    36  O   -0.653522
    37  C    0.417606
    38  N   -0.589911
    39  H    0.397130
    40  C   -0.073599
    41  H    0.211239
    42  C    0.537621
    43  C   -0.331366
    44  H    0.174602
    45  H    0.223746
    46  O   -0.387331
    47  C   -0.290407
    48  H    0.172988
    49  H    0.165220
    50  C   -0.314145
    51  H    0.153810
    52  H    0.240380
    53  C   -0.224409
    54  H    0.236634
    55  H    0.217967
    56  N   -0.716845
    57  H    0.434168
    58  H    0.448542
    59  H    0.428258
    60  O   -0.604591
    61  H    0.481144
    62  H    0.474534
 Sum of Mulliken charges =   1.00000

 Dipole moment (field-independent basis, Debye):
    X=             30.0599    Y=             34.3608    Z=             11.8684  Tot=             47.1712
 Quadrupole moment (field-independent basis, Debye-Ang):
   XX=           -167.1095   YY=            -55.5175   ZZ=           -176.9963
   XY=              3.5691   XZ=             35.0937   YZ=             -6.9862

 Normal termination of Gaussian 16 at Wed Jun  1 23:53:30 2022.
