 Gaussian 16, Revision C.01,
 Gaussian 16:  ES64L-G16RevC.01  3-Jul-2019

 ----------------------------------------------------------------------
 # B3LYP/6-31G* empiricaldispersion=gd3 guess=read geom=check nosymm in
 tegral(ultrafinegrid)
 ----------------------------------------------------------------------

 ------------------------------------------------------
 Candidate Structure: Conf:796 Charge calc in gas phase
 ------------------------------------------------------
 Structure from the checkpoint file:  "conf-796.chk"
 Charge =  1 Multiplicity = 1

                          Input orientation:
 ---------------------------------------------------------------------
 Center     Atomic      Atomic             Coordinates (Angstroms)
 Number     Number       Type             X           Y           Z
 ---------------------------------------------------------------------
      1          7           0       -1.130605   -4.515205    2.442422
      2          1           0       -0.448061   -4.896848    3.099467
      3          1           0       -1.957799   -5.116185    2.442552
      4          1           0       -0.694063   -4.416040    1.435759
      5          6           0       -1.449252   -3.052083    2.673767
      6          1           0       -0.951208   -2.728087    3.589343
      7          6           0       -0.789343   -2.369336    1.428186
      8          6           0       -2.973332   -2.871460    2.794072
      9          1           0       -3.317658   -3.472192    3.645945
     10          1           0       -3.448333   -3.272078    1.888260
     11          8           0       -0.347778   -3.179706    0.561201
     12          6           0       -3.449110   -1.419139    3.002935
     13          1           0       -4.521305   -1.437270    3.208959
     14          1           0       -3.273770   -0.839827    2.093041
     15          6           0       -2.759923   -0.763311    4.205244
     16          8           0       -1.527133   -0.276811    3.967163
     17          8           0       -3.259923   -0.733484    5.304480
     18          7           0       -0.794416   -1.058859    1.476403
     19          1           0       -1.266511   -0.426995    3.006150
     20          6           0       -0.289189   -0.261630    0.376885
     21          1           0       -0.733261    0.736165    0.488712
     22          6           0        1.209469   -0.063739    0.531559
     23          6           0       -0.575649   -0.703920   -1.092601
     24          1           0       -0.209395   -1.719989   -1.239623
     25          1           0       -1.665345   -0.719032   -1.206964
     26          8           0        1.940751   -1.135844    0.478547
     27          6           0        0.093569    0.278510   -2.023536
     28          6           0       -0.427272    1.567815   -2.198193
     29          1           0       -1.413658    1.805861   -1.803094
     30          6           0        1.347708   -0.007805   -2.585783
     31          1           0        1.759698   -1.009402   -2.484063
     32          6           0        0.293516    2.554317   -2.866164
     33          1           0       -0.124209    3.547738   -2.999774
     34          6           0        2.085605    0.970496   -3.246371
     35          1           0        3.062282    0.754160   -3.668327
     36          8           0        2.367655    3.222187   -3.907309
     37          6           0        1.581606    2.275728   -3.360177
     38          7           0        1.713305    1.139884    0.725889
     39          1           0        1.037078    1.896812    0.724529
     40          6           0        3.139238    1.560896    0.717569
     41          1           0        3.604341    1.104297   -0.165274
     42          6           0        3.841500    1.031488    1.979906
     43          6           0        3.255840    3.089962    0.658432
     44          1           0        2.657717    3.517972    1.474302
     45          1           0        4.294747    3.330805    0.907734
     46          8           0        4.150559    1.669459    2.944696
     47          6           0        2.897998    3.716640   -0.694780
     48          1           0        1.869902    3.468398   -0.978111
     49          1           0        3.532680    3.285758   -1.478492
     50          6           0        3.076833    5.244087   -0.660779
     51          1           0        2.279262    5.695087   -0.051876
     52          1           0        4.017768    5.490840   -0.151135
     53          6           0        3.123803    5.926913   -2.031468
     54          1           0        3.316039    6.998300   -1.877580
     55          1           0        3.962740    5.525442   -2.611835
     56          7           0        1.896669    5.698306   -2.829399
     57          1           0        1.890220    6.332585   -3.628548
     58          1           0        1.071898    5.938368   -2.278798
     59          1           0        2.058857    4.126303   -3.599573
     60          8           0        4.087325   -0.312168    1.853051
     61          1           0        2.868101   -1.005785    0.794970
     62          1           0        4.508267   -0.637857    2.673919
 ---------------------------------------------------------------------

 SCF Done:  E(RB3LYP) =  -1526.24391797     A.U. after    1 cycles

 Alpha  occ. eigenvalues --  -19.35935 -19.35744 -19.29282 -19.23984 -19.23297
 Alpha  occ. eigenvalues --  -19.23236 -19.19201 -14.55952 -14.55470 -14.43842
 Alpha  occ. eigenvalues --  -14.41917 -10.47979 -10.47229 -10.39884 -10.38852
 Alpha  occ. eigenvalues --  -10.37973 -10.36934 -10.35851 -10.33103 -10.32055
 Alpha  occ. eigenvalues --  -10.31807 -10.31276 -10.29459 -10.29159 -10.29083
 Alpha  occ. eigenvalues --  -10.28672 -10.28262 -10.28170 -10.28080 -10.27429
 Alpha  occ. eigenvalues --  -10.27058  -1.26881  -1.25383  -1.17247  -1.15253
 Alpha  occ. eigenvalues --   -1.14924  -1.12101  -1.12057  -1.09479  -1.07156
 Alpha  occ. eigenvalues --   -1.01063  -0.99587  -0.95196  -0.94258  -0.91507
 Alpha  occ. eigenvalues --   -0.89328  -0.88000  -0.83886  -0.83579  -0.82578
 Alpha  occ. eigenvalues --   -0.82451  -0.79504  -0.77383  -0.75715  -0.74968
 Alpha  occ. eigenvalues --   -0.74271  -0.72995  -0.70622  -0.70405  -0.69410
 Alpha  occ. eigenvalues --   -0.68396  -0.67737  -0.67055  -0.66319  -0.65595
 Alpha  occ. eigenvalues --   -0.63896  -0.63396  -0.62323  -0.61373  -0.60660
 Alpha  occ. eigenvalues --   -0.60303  -0.59871  -0.58197  -0.57822  -0.57540
 Alpha  occ. eigenvalues --   -0.57296  -0.56909  -0.56403  -0.55872  -0.55202
 Alpha  occ. eigenvalues --   -0.54866  -0.54177  -0.53695  -0.52694  -0.52356
 Alpha  occ. eigenvalues --   -0.52186  -0.51386  -0.51179  -0.50856  -0.50401
 Alpha  occ. eigenvalues --   -0.49691  -0.49271  -0.48476  -0.47995  -0.47705
 Alpha  occ. eigenvalues --   -0.47428  -0.47313  -0.46863  -0.46651  -0.46157
 Alpha  occ. eigenvalues --   -0.45610  -0.45059  -0.44564  -0.44137  -0.43823
 Alpha  occ. eigenvalues --   -0.42948  -0.42077  -0.41969  -0.40510  -0.38477
 Alpha  occ. eigenvalues --   -0.37114  -0.36406  -0.35931  -0.35027  -0.34250
 Alpha  occ. eigenvalues --   -0.32774  -0.29874
 Alpha virt. eigenvalues --   -0.17032  -0.14702  -0.09573  -0.08698  -0.08490
 Alpha virt. eigenvalues --   -0.08172  -0.07138  -0.05877  -0.05438  -0.03438
 Alpha virt. eigenvalues --   -0.03070  -0.02219  -0.01471  -0.00306   0.00566

 Mulliken charges:
               1
     1  N   -0.772266
     2  H    0.400159
     3  H    0.399680
     4  H    0.430426
     5  C   -0.107789
     6  H    0.216762
     7  C    0.622017
     8  C   -0.298701
     9  H    0.181630
    10  H    0.167198
    11  O   -0.606639
    12  C   -0.358685
    13  H    0.193471
    14  H    0.171545
    15  C    0.567446
    16  O   -0.614040
    17  O   -0.439668
    18  N   -0.593998
    19  H    0.438200
    20  C   -0.033417
    21  H    0.155014
    22  C    0.646557
    23  C   -0.377151
    24  H    0.213602
    25  H    0.172263
    26  O   -0.542365
    27  C    0.129946
    28  C   -0.207210
    29  H    0.136074
    30  C   -0.209003
    31  H    0.142006
    32  C   -0.203138
    33  H    0.137013
    34  C   -0.175826
    35  H    0.150578
    36  O   -0.690941
    37  C    0.371809
    38  N   -0.559597
    39  H    0.388928
    40  C   -0.077189
    41  H    0.220435
    42  C    0.624178
    43  C   -0.317475
    44  H    0.176502
    45  H    0.193205
    46  O   -0.386513
    47  C   -0.284613
    48  H    0.150084
    49  H    0.173353
    50  C   -0.280827
    51  H    0.144705
    52  H    0.161210
    53  C   -0.139048
    54  H    0.158914
    55  H    0.171741
    56  N   -0.780354
    57  H    0.341257
    58  H    0.322183
    59  H    0.475115
    60  O   -0.614925
    61  H    0.475228
    62  H    0.450944
 Sum of Mulliken charges =   1.00000

 Dipole moment (field-independent basis, Debye):
    X=              6.9655    Y=             -1.6394    Z=              2.1249  Tot=              7.4646
 Quadrupole moment (field-independent basis, Debye-Ang):
   XX=           -141.1914   YY=            -66.9806   ZZ=           -199.8432
   XY=             28.6178   XZ=             14.2460   YZ=            -52.9344

 Normal termination of Gaussian 16 at Thu Jun  2 00:02:27 2022.
