 Gaussian 16, Revision C.01,
 Gaussian 16:  ES64L-G16RevC.01  3-Jul-2019

 ----------------------------------------------------------------------
 # B3LYP/6-31G* empiricaldispersion=gd3 guess=read geom=check nosymm in
 tegral(ultrafinegrid)
 ----------------------------------------------------------------------

 ------------------------------------------------------
 Candidate Structure: Conf:584 Charge calc in gas phase
 ------------------------------------------------------
 Structure from the checkpoint file:  "conf-584.chk"
 Charge =  1 Multiplicity = 1

                          Input orientation:
 ---------------------------------------------------------------------
 Center     Atomic      Atomic             Coordinates (Angstroms)
 Number     Number       Type             X           Y           Z
 ---------------------------------------------------------------------
      1          7           0       -0.360114   -3.411843    3.577774
      2          1           0        0.453162   -2.970052    4.008985
      3          1           0       -0.908784   -3.889242    4.289894
      4          1           0       -0.018208   -4.103655    2.906853
      5          6           0       -1.187015   -2.442763    2.830771
      6          1           0       -1.397739   -1.574025    3.462661
      7          6           0       -0.413663   -2.007967    1.589954
      8          6           0       -2.510104   -3.095446    2.423189
      9          1           0       -2.993058   -3.481369    3.327268
     10          1           0       -2.285604   -3.952308    1.782843
     11          8           0        0.307692   -2.794475    0.992837
     12          6           0       -3.504682   -2.193835    1.699233
     13          1           0       -3.106799   -1.856260    0.739418
     14          1           0       -3.778880   -1.333579    2.312106
     15          6           0       -4.733244   -3.091816    1.459492
     16          8           0       -5.618807   -3.049932    2.332140
     17          8           0       -4.690696   -3.787323    0.430244
     18          7           0       -0.663113   -0.742627    1.170914
     19          1           0       -1.159975   -0.124445    1.788874
     20          6           0       -0.039613   -0.133160    0.010554
     21          1           0       -0.609088    0.784588   -0.177291
     22          6           0        1.409864    0.281542    0.311877
     23          6           0       -0.153506   -1.008597   -1.257232
     24          1           0        0.476597   -1.885002   -1.150721
     25          1           0       -1.189854   -1.346328   -1.303789
     26          8           0        2.075861   -0.153187    1.232100
     27          6           0        0.203071   -0.252369   -2.499112
     28          6           0       -0.600220    0.813351   -2.927192
     29          1           0       -1.528645    1.004752   -2.391456
     30          6           0        1.390069   -0.521137   -3.190692
     31          1           0        2.015849   -1.350394   -2.874773
     32          6           0       -0.220909    1.639474   -3.951266
     33          1           0       -0.824700    2.480789   -4.261669
     34          6           0        1.804025    0.271860   -4.235073
     35          1           0        2.730021    0.073889   -4.761414
     36          8           0        1.403699    2.172308   -5.565992
     37          6           0        1.029638    1.419356   -4.649543
     38          7           0        1.905359    1.256119   -0.511037
     39          1           0        1.382275    1.469219   -1.346190
     40          6           0        3.351220    1.448693   -0.620401
     41          1           0        3.830528    0.499279   -0.883428
     42          6           0        3.974817    1.849984    0.689840
     43          6           0        3.612455    2.485553   -1.713492
     44          1           0        2.948945    2.211410   -2.542312
     45          1           0        3.294171    3.465416   -1.352640
     46          8           0        5.062360    1.573389    1.081757
     47          6           0        5.043806    2.533387   -2.215387
     48          1           0        5.335269    1.529125   -2.538281
     49          1           0        5.719703    2.795624   -1.398049
     50          6           0        5.247959    3.531110   -3.354662
     51          1           0        4.873219    4.509959   -3.037624
     52          1           0        6.318502    3.659140   -3.536569
     53          6           0        4.581323    3.158037   -4.673470
     54          1           0        3.523792    2.925416   -4.524006
     55          1           0        4.623134    4.009898   -5.356531
     56          7           0        5.222086    1.988448   -5.326941
     57          1           0        4.675923    1.640319   -6.114903
     58          1           0        5.341534    1.220889   -4.665405
     59          1           0        6.154897    2.225866   -5.668646
     60          8           0        3.151632    2.745261    1.450456
     61          1           0        2.226870    2.439264    1.612870
     62          1           0        3.549572    2.862393    2.332693
 ---------------------------------------------------------------------

 SCF Done:  E(RB3LYP) =  -1525.99219592     A.U. after    3 cycles

 Alpha  occ. eigenvalues --  -19.49685 -19.33320 -19.26459 -19.24243 -19.12118
 Alpha  occ. eigenvalues --  -19.07403 -19.07306 -14.63361 -14.61014 -14.49968
 Alpha  occ. eigenvalues --  -14.48561 -10.50037 -10.42511 -10.41645 -10.40088
 Alpha  occ. eigenvalues --  -10.39369 -10.38069 -10.35248 -10.35014 -10.34333
 Alpha  occ. eigenvalues --  -10.34195 -10.28360 -10.27576 -10.26936 -10.25706
 Alpha  occ. eigenvalues --  -10.24600 -10.24098 -10.23521 -10.22838 -10.22132
 Alpha  occ. eigenvalues --  -10.21890  -1.38088  -1.23817  -1.18958  -1.18273
 Alpha  occ. eigenvalues --   -1.17734  -1.14930  -1.07592  -1.05269  -1.02663
 Alpha  occ. eigenvalues --   -1.01245  -0.97471  -0.94158  -0.92253  -0.92034
 Alpha  occ. eigenvalues --   -0.90379  -0.89286  -0.87073  -0.85783  -0.84464
 Alpha  occ. eigenvalues --   -0.81175  -0.80192  -0.79845  -0.78716  -0.76654
 Alpha  occ. eigenvalues --   -0.76192  -0.75334  -0.74866  -0.74493  -0.72984
 Alpha  occ. eigenvalues --   -0.72628  -0.69985  -0.69166  -0.67968  -0.67217
 Alpha  occ. eigenvalues --   -0.66236  -0.66009  -0.65948  -0.64348  -0.62948
 Alpha  occ. eigenvalues --   -0.62183  -0.61800  -0.61085  -0.60835  -0.60256
 Alpha  occ. eigenvalues --   -0.58163  -0.57270  -0.56293  -0.55476  -0.55073
 Alpha  occ. eigenvalues --   -0.54972  -0.54023  -0.53816  -0.52941  -0.52327
 Alpha  occ. eigenvalues --   -0.51508  -0.50412  -0.50368  -0.50109  -0.49783
 Alpha  occ. eigenvalues --   -0.49706  -0.48890  -0.48228  -0.47447  -0.47315
 Alpha  occ. eigenvalues --   -0.47024  -0.45732  -0.44713  -0.43978  -0.42902
 Alpha  occ. eigenvalues --   -0.42453  -0.41527  -0.40868  -0.40606  -0.40203
 Alpha  occ. eigenvalues --   -0.39542  -0.38046  -0.37327  -0.36934  -0.35907
 Alpha  occ. eigenvalues --   -0.35612  -0.31023  -0.26050  -0.22805  -0.22714
 Alpha  occ. eigenvalues --   -0.22081  -0.20638
 Alpha virt. eigenvalues --   -0.19594  -0.16174  -0.13782  -0.12226  -0.11319
 Alpha virt. eigenvalues --   -0.10044  -0.09795  -0.08520  -0.06240  -0.05695
 Alpha virt. eigenvalues --   -0.05468  -0.04639  -0.04529  -0.03590  -0.03003

 Mulliken charges:
               1
     1  N   -0.708934
     2  H    0.414972
     3  H    0.426008
     4  H    0.426838
     5  C   -0.158701
     6  H    0.183974
     7  C    0.662753
     8  C   -0.288899
     9  H    0.173056
    10  H    0.192245
    11  O   -0.511959
    12  C   -0.342541
    13  H    0.144761
    14  H    0.120451
    15  C    0.549946
    16  O   -0.549206
    17  O   -0.550248
    18  N   -0.589809
    19  H    0.339546
    20  C   -0.085847
    21  H    0.174698
    22  C    0.596937
    23  C   -0.367224
    24  H    0.195637
    25  H    0.198867
    26  O   -0.522767
    27  C    0.092107
    28  C   -0.197240
    29  H    0.115457
    30  C   -0.185792
    31  H    0.099817
    32  C   -0.220017
    33  H    0.125157
    34  C   -0.239509
    35  H    0.023705
    36  O   -0.664071
    37  C    0.429473
    38  N   -0.666592
    39  H    0.388563
    40  C    0.011174
    41  H    0.215879
    42  C    0.547807
    43  C   -0.331377
    44  H    0.202400
    45  H    0.164038
    46  O   -0.373397
    47  C   -0.288158
    48  H    0.130655
    49  H    0.185581
    50  C   -0.298872
    51  H    0.200892
    52  H    0.164702
    53  C   -0.240207
    54  H    0.281561
    55  H    0.229357
    56  N   -0.714025
    57  H    0.444307
    58  H    0.416733
    59  H    0.415937
    60  O   -0.562405
    61  H    0.485918
    62  H    0.485891
 Sum of Mulliken charges =   1.00000

 Dipole moment (field-independent basis, Debye):
    X=             37.0687    Y=             14.2637    Z=              3.9287  Tot=             39.9121
 Quadrupole moment (field-independent basis, Debye-Ang):
   XX=           -141.4226   YY=           -144.5476   ZZ=            -82.0695
   XY=             12.4563   XZ=            -73.3103   YZ=            -40.8842

 Normal termination of Gaussian 16 at Thu Jun  2 00:02:39 2022.
