 Gaussian 16, Revision C.01,
 Gaussian 16:  ES64L-G16RevC.01  3-Jul-2019

 ----------------------------------------------------------------------
 # B3LYP/6-31G* empiricaldispersion=gd3 guess=read geom=check nosymm in
 tegral(ultrafinegrid)
 ----------------------------------------------------------------------

 -----------------------------------------------------
 Candidate Structure: Conf:34 Charge calc in gas phase
 -----------------------------------------------------
 Structure from the checkpoint file:  "conf-34.chk"
 Charge =  1 Multiplicity = 1

                          Input orientation:
 ---------------------------------------------------------------------
 Center     Atomic      Atomic             Coordinates (Angstroms)
 Number     Number       Type             X           Y           Z
 ---------------------------------------------------------------------
      1          7           0       -0.743194   -4.226343    2.675964
      2          1           0       -0.325244   -4.337077    3.601380
      3          1           0       -1.383212   -5.005877    2.508824
      4          1           0        0.036560   -4.155926    1.900925
      5          6           0       -1.376003   -2.867817    2.453634
      6          1           0       -1.368706   -2.321157    3.398113
      7          6           0       -0.388708   -2.206426    1.436151
      8          6           0       -2.816832   -3.049536    1.942877
      9          1           0       -3.378042   -3.605881    2.704930
     10          1           0       -2.793217   -3.661348    1.030850
     11          8           0        0.494018   -2.993048    0.977590
     12          6           0       -3.574674   -1.739789    1.644532
     13          1           0       -4.613710   -1.989147    1.419672
     14          1           0       -3.132674   -1.247851    0.774616
     15          6           0       -3.577600   -0.801914    2.857278
     16          8           0       -2.463656   -0.063527    3.018365
     17          8           0       -4.488960   -0.768792    3.649541
     18          7           0       -0.623455   -0.937149    1.213197
     19          1           0       -1.801762   -0.251521    2.285066
     20          6           0        0.159036   -0.190689    0.258624
     21          1           0       -0.413280    0.715675    0.019990
     22          6           0        1.472738    0.294490    0.821143
     23          6           0        0.468408   -0.883348   -1.126988
     24          1           0        1.006517   -1.811457   -0.932424
     25          1           0       -0.516028   -1.151069   -1.527277
     26          8           0        2.182957   -0.541504    1.516218
     27          6           0        1.230326    0.011504   -2.073267
     28          6           0        2.602744   -0.173839   -2.291034
     29          1           0        3.105398   -1.022658   -1.830465
     30          6           0        0.609229    1.097989   -2.712364
     31          1           0       -0.460551    1.255278   -2.584251
     32          6           0        3.336571    0.688354   -3.106854
     33          1           0        4.391332    0.504414   -3.289303
     34          6           0        1.328055    1.972449   -3.522150
     35          1           0        0.843739    2.807140   -4.018936
     36          8           0        3.354969    2.673228   -4.500831
     37          6           0        2.708662    1.785585   -3.725039
     38          7           0        1.902095    1.506805    0.524808
     39          1           0        1.269032    2.050917   -0.054942
     40          6           0        3.314536    1.968427    0.477044
     41          1           0        3.906839    1.113644    0.124714
     42          6           0        3.825902    2.348825    1.871435
     43          6           0        3.439387    3.130200   -0.513569
     44          1           0        2.745694    2.945140   -1.340461
     45          1           0        3.144011    4.061375   -0.018239
     46          8           0        4.229397    3.422087    2.217429
     47          6           0        4.850748    3.248214   -1.101828
     48          1           0        5.095584    2.280043   -1.557250
     49          1           0        5.584476    3.430332   -0.306739
     50          6           0        4.926552    4.357164   -2.163894
     51          1           0        4.014524    4.344330   -2.770871
     52          1           0        4.973475    5.336127   -1.671455
     53          6           0        6.120338    4.222060   -3.115458
     54          1           0        6.099837    5.057464   -3.821729
     55          1           0        7.068176    4.290348   -2.561785
     56          7           0        6.039554    2.967548   -3.911045
     57          1           0        6.600769    3.059910   -4.756705
     58          1           0        4.350062    2.641626   -4.359731
     59          1           0        6.454548    2.194986   -3.392633
     60          8           0        3.795499    1.254024    2.697339
     61          1           0        2.933473   -0.101352    1.988131
     62          1           0        4.108883    1.510293    3.587435
 ---------------------------------------------------------------------

 SCF Done:  E(RB3LYP) =  -1526.24774387     A.U. after    3 cycles

 Alpha  occ. eigenvalues --  -19.36162 -19.35690 -19.29244 -19.23786 -19.23719
 Alpha  occ. eigenvalues --  -19.23031 -19.18914 -14.55750 -14.54988 -14.43857
 Alpha  occ. eigenvalues --  -14.41595 -10.47826 -10.47165 -10.39610 -10.38578
 Alpha  occ. eigenvalues --  -10.37695 -10.36672 -10.36118 -10.33882 -10.31590
 Alpha  occ. eigenvalues --  -10.31310 -10.31073 -10.29941 -10.29533 -10.28993
 Alpha  occ. eigenvalues --  -10.28917 -10.28797 -10.28434 -10.28221 -10.27836
 Alpha  occ. eigenvalues --  -10.27700  -1.26975  -1.25375  -1.17163  -1.14987
 Alpha  occ. eigenvalues --   -1.14660  -1.12544  -1.11945  -1.09259  -1.06876
 Alpha  occ. eigenvalues --   -1.00990  -0.99415  -0.95146  -0.94685  -0.91373
 Alpha  occ. eigenvalues --   -0.89166  -0.87692  -0.84303  -0.84201  -0.82350
 Alpha  occ. eigenvalues --   -0.82265  -0.79644  -0.77529  -0.75993  -0.74810
 Alpha  occ. eigenvalues --   -0.73701  -0.72500  -0.71131  -0.70176  -0.68648
 Alpha  occ. eigenvalues --   -0.68331  -0.67930  -0.67524  -0.66309  -0.66088
 Alpha  occ. eigenvalues --   -0.63858  -0.63160  -0.62875  -0.61247  -0.60846
 Alpha  occ. eigenvalues --   -0.60601  -0.59775  -0.58525  -0.57913  -0.57483
 Alpha  occ. eigenvalues --   -0.57238  -0.57195  -0.56648  -0.55927  -0.54995
 Alpha  occ. eigenvalues --   -0.54576  -0.53909  -0.53338  -0.52844  -0.52543
 Alpha  occ. eigenvalues --   -0.51626  -0.51327  -0.51014  -0.50944  -0.50116
 Alpha  occ. eigenvalues --   -0.49374  -0.49148  -0.48556  -0.48522  -0.47849
 Alpha  occ. eigenvalues --   -0.47711  -0.47309  -0.47103  -0.46605  -0.46065
 Alpha  occ. eigenvalues --   -0.45315  -0.45150  -0.44414  -0.43877  -0.43422
 Alpha  occ. eigenvalues --   -0.42728  -0.42507  -0.41889  -0.40919  -0.38395
 Alpha  occ. eigenvalues --   -0.36824  -0.36267  -0.36106  -0.35082  -0.34723
 Alpha  occ. eigenvalues --   -0.32503  -0.30485
 Alpha virt. eigenvalues --   -0.17361  -0.14623  -0.10464  -0.08960  -0.08275
 Alpha virt. eigenvalues --   -0.08065  -0.07126  -0.05309  -0.05028  -0.03644
 Alpha virt. eigenvalues --   -0.03258  -0.02353  -0.00691  -0.00386   0.00250

 Mulliken charges:
               1
     1  N   -0.772107
     2  H    0.400399
     3  H    0.398866
     4  H    0.429385
     5  C   -0.108774
     6  H    0.218857
     7  C    0.623517
     8  C   -0.299008
     9  H    0.181466
    10  H    0.165982
    11  O   -0.616215
    12  C   -0.358368
    13  H    0.193195
    14  H    0.170397
    15  C    0.568024
    16  O   -0.610677
    17  O   -0.440014
    18  N   -0.583878
    19  H    0.440733
    20  C   -0.058132
    21  H    0.168290
    22  C    0.636740
    23  C   -0.383725
    24  H    0.214960
    25  H    0.181527
    26  O   -0.543384
    27  C    0.142407
    28  C   -0.216683
    29  H    0.138290
    30  C   -0.219813
    31  H    0.142785
    32  C   -0.196489
    33  H    0.132902
    34  C   -0.170474
    35  H    0.162059
    36  O   -0.676846
    37  C    0.365593
    38  N   -0.555253
    39  H    0.390008
    40  C   -0.077328
    41  H    0.208783
    42  C    0.643955
    43  C   -0.322927
    44  H    0.179776
    45  H    0.191666
    46  O   -0.391725
    47  C   -0.282617
    48  H    0.133700
    49  H    0.163238
    50  C   -0.275728
    51  H    0.172926
    52  H    0.160551
    53  C   -0.154166
    54  H    0.175523
    55  H    0.152142
    56  N   -0.775993
    57  H    0.341855
    58  H    0.468007
    59  H    0.324083
    60  O   -0.621223
    61  H    0.475860
    62  H    0.453100
 Sum of Mulliken charges =   1.00000

 Dipole moment (field-independent basis, Debye):
    X=             14.7149    Y=             -3.6975    Z=              2.4649  Tot=             15.3712
 Quadrupole moment (field-independent basis, Debye-Ang):
   XX=           -113.2680   YY=           -116.4849   ZZ=           -158.3272
   XY=             44.4212   XZ=              1.6208   YZ=            -42.8469

 Normal termination of Gaussian 16 at Wed Jun  1 23:53:28 2022.
