 Gaussian 16, Revision C.01,
 Gaussian 16:  ES64L-G16RevC.01  3-Jul-2019

 ----------------------------------------------------------------------
 # B3LYP/6-31G* empiricaldispersion=gd3 guess=read geom=check nosymm in
 tegral(ultrafinegrid)
 ----------------------------------------------------------------------

 ------------------------------------------------------
 Candidate Structure: Conf:879 Charge calc in gas phase
 ------------------------------------------------------
 Structure from the checkpoint file:  "conf-879.chk"
 Charge =  1 Multiplicity = 1

                          Input orientation:
 ---------------------------------------------------------------------
 Center     Atomic      Atomic             Coordinates (Angstroms)
 Number     Number       Type             X           Y           Z
 ---------------------------------------------------------------------
      1          7           0       -0.325212   -0.616122    4.229207
      2          1           0       -1.351639   -0.628278    4.252787
      3          1           0        0.008903   -1.259539    4.958818
      4          1           0       -0.005046    0.333089    4.458602
      5          6           0        0.244093   -1.091579    2.895208
      6          1           0       -0.053565   -2.156428    2.797281
      7          6           0       -0.225581   -0.200933    1.773088
      8          6           0        1.788744   -1.098591    2.969482
      9          1           0        2.123348   -1.444196    1.991344
     10          1           0        2.048396   -1.916486    3.650325
     11          8           0       -0.288906    1.077135    2.088510
     12          6           0        2.486845    0.232554    3.312861
     13          1           0        2.778524    0.271028    4.370898
     14          1           0        1.861678    1.108758    3.121857
     15          6           0        3.768852    0.396318    2.488270
     16          8           0        4.420498   -0.554275    2.100843
     17          8           0        4.070661    1.674852    2.270946
     18          7           0       -0.430439   -0.713739    0.597507
     19          1           0       -0.498694   -1.753539    0.545768
     20          6           0       -0.139854   -0.115081   -0.726677
     21          1           0       -0.980814    0.514095   -1.036295
     22          6           0        1.116757    0.745576   -0.488307
     23          6           0        0.080190   -1.313297   -1.793626
     24          1           0       -0.824034   -1.358355   -2.408732
     25          1           0        0.909633   -1.000333   -2.437367
     26          8           0        1.971281    0.384687    0.309871
     27          6           0        0.344070   -2.605787   -1.079247
     28          6           0        1.593438   -2.806724   -0.450798
     29          1           0        2.477700   -2.321813   -0.861221
     30          6           0       -0.765687   -3.303718   -0.535860
     31          1           0       -1.733750   -3.222463   -1.031974
     32          6           0        1.699669   -3.494649    0.748069
     33          1           0        2.661292   -3.592702    1.244556
     34          6           0       -0.681316   -3.966517    0.685527
     35          1           0       -1.555196   -4.436652    1.128161
     36          8           0        0.501420   -3.992028    2.755110
     37          6           0        0.520009   -3.886614    1.481367
     38          7           0        1.156246    1.967252   -1.088936
     39          1           0        0.409250    2.204100   -1.730210
     40          6           0        1.790379    3.071824   -0.355150
     41          1           0        2.123155    2.628599    0.593949
     42          6           0        0.704842    4.061148    0.044555
     43          6           0        3.036656    3.687809   -0.989309
     44          1           0        2.809257    4.126563   -1.967249
     45          1           0        3.354281    4.510180   -0.338351
     46          8           0        0.747414    5.257182    0.017431
     47          6           0        4.123774    2.598128   -1.069174
     48          1           0        3.974907    2.003496   -1.980060
     49          1           0        3.968599    1.902130   -0.241340
     50          6           0        5.576890    3.080932   -1.011248
     51          1           0        5.884735    3.525443   -1.965889
     52          1           0        5.689045    3.862372   -0.246975
     53          6           0        6.511164    1.914285   -0.659570
     54          1           0        6.304360    1.068758   -1.325312
     55          1           0        7.556288    2.199830   -0.825692
     56          7           0        6.309502    1.466748    0.748283
     57          1           0        6.298150    0.450036    0.821818
     58          1           0        4.914450    1.705804    1.681963
     59          1           0        7.080490    1.788430    1.331050
     60          8           0       -0.416235    3.383282    0.538748
     61          1           0       -0.430950    1.736352    1.357815
     62          1           0       -1.052632    4.071693    0.815169
 ---------------------------------------------------------------------

 SCF Done:  E(RB3LYP) =  -1526.16625450     A.U. after    1 cycles

 Alpha  occ. eigenvalues --  -19.38611 -19.34899 -19.28479 -19.26213 -19.25881
 Alpha  occ. eigenvalues --  -19.21792 -19.14782 -14.63934 -14.54577 -14.50335
 Alpha  occ. eigenvalues --  -14.42730 -10.50238 -10.46030 -10.43265 -10.41659
 Alpha  occ. eigenvalues --  -10.40601 -10.38905 -10.36746 -10.32274 -10.31484
 Alpha  occ. eigenvalues --  -10.31469 -10.30229 -10.29952 -10.29282 -10.27135
 Alpha  occ. eigenvalues --  -10.26935 -10.26923 -10.26209 -10.25946 -10.24652
 Alpha  occ. eigenvalues --  -10.24264  -1.28235  -1.24414  -1.18762  -1.17998
 Alpha  occ. eigenvalues --   -1.17491  -1.16129  -1.12330  -1.08871  -1.06857
 Alpha  occ. eigenvalues --   -1.03799  -0.98221  -0.96605  -0.93221  -0.91901
 Alpha  occ. eigenvalues --   -0.89858  -0.87416  -0.86206  -0.83010  -0.81778
 Alpha  occ. eigenvalues --   -0.81380  -0.80748  -0.77526  -0.76928  -0.75440
 Alpha  occ. eigenvalues --   -0.74833  -0.74698  -0.74078  -0.72522  -0.71285
 Alpha  occ. eigenvalues --   -0.69066  -0.68252  -0.67412  -0.67092  -0.65620
 Alpha  occ. eigenvalues --   -0.64992  -0.63845  -0.63227  -0.62612  -0.61280
 Alpha  occ. eigenvalues --   -0.60840  -0.59593  -0.59187  -0.59020  -0.58176
 Alpha  occ. eigenvalues --   -0.57500  -0.57196  -0.56589  -0.55972  -0.55606
 Alpha  occ. eigenvalues --   -0.55331  -0.54849  -0.54718  -0.53730  -0.52902
 Alpha  occ. eigenvalues --   -0.52407  -0.51972  -0.50962  -0.50879  -0.50316
 Alpha  occ. eigenvalues --   -0.49758  -0.48911  -0.48575  -0.48404  -0.47945
 Alpha  occ. eigenvalues --   -0.47187  -0.46801  -0.46627  -0.46088  -0.45604
 Alpha  occ. eigenvalues --   -0.45554  -0.44546  -0.43491  -0.42735  -0.42563
 Alpha  occ. eigenvalues --   -0.42034  -0.41330  -0.41180  -0.39739  -0.39271
 Alpha  occ. eigenvalues --   -0.38781  -0.37153  -0.36124  -0.35006  -0.32494
 Alpha  occ. eigenvalues --   -0.28413  -0.25330
 Alpha virt. eigenvalues --   -0.20236  -0.14814  -0.13673  -0.12303  -0.08310
 Alpha virt. eigenvalues --   -0.07592  -0.07540  -0.07149  -0.06932  -0.06415
 Alpha virt. eigenvalues --   -0.04684  -0.03695  -0.02735  -0.01048  -0.00551

 Mulliken charges:
               1
     1  N   -0.731762
     2  H    0.425426
     3  H    0.441842
     4  H    0.427281
     5  C   -0.186137
     6  H    0.289909
     7  C    0.647221
     8  C   -0.294628
     9  H    0.260981
    10  H    0.211847
    11  O   -0.604845
    12  C   -0.399941
    13  H    0.181811
    14  H    0.164468
    15  C    0.627766
    16  O   -0.478115
    17  O   -0.628265
    18  N   -0.556334
    19  H    0.401475
    20  C   -0.057456
    21  H    0.178500
    22  C    0.560902
    23  C   -0.370400
    24  H    0.177127
    25  H    0.182788
    26  O   -0.481114
    27  C    0.059840
    28  C   -0.165473
    29  H    0.136595
    30  C   -0.227279
    31  H    0.131528
    32  C   -0.202136
    33  H    0.148209
    34  C   -0.200185
    35  H    0.135416
    36  O   -0.651205
    37  C    0.361887
    38  N   -0.571883
    39  H    0.346033
    40  C   -0.103282
    41  H    0.234327
    42  C    0.591703
    43  C   -0.255256
    44  H    0.163865
    45  H    0.174272
    46  O   -0.396043
    47  C   -0.292431
    48  H    0.146478
    49  H    0.171793
    50  C   -0.250435
    51  H    0.153225
    52  H    0.142880
    53  C   -0.156318
    54  H    0.161358
    55  H    0.160620
    56  N   -0.786930
    57  H    0.355798
    58  H    0.471512
    59  H    0.334837
    60  O   -0.636338
    61  H    0.483370
    62  H    0.439306
 Sum of Mulliken charges =   1.00000

 Dipole moment (field-independent basis, Debye):
    X=              0.7069    Y=              9.7288    Z=              9.0424  Tot=             13.3009
 Quadrupole moment (field-independent basis, Debye-Ang):
   XX=           -130.2717   YY=           -200.2347   ZZ=           -115.1964
   XY=             16.6076   XZ=            -12.6216   YZ=              4.8300

 Normal termination of Gaussian 16 at Thu Jun  2 00:02:29 2022.
