 Gaussian 16, Revision C.01,
 Gaussian 16:  ES64L-G16RevC.01  3-Jul-2019

 -------------------------------------------------------------------
 # B3LYP/6-31G* guess=read geom=check nosymm integral(ultrafinegrid)
 -------------------------------------------------------------------

 ------------------------------------------------------
 Candidate Structure: Conf:883 Charge calc in gas phase
 ------------------------------------------------------
 Structure from the checkpoint file:  "conf-883.chk"
 Charge =  1 Multiplicity = 1

                          Input orientation:
 ---------------------------------------------------------------------
 Center     Atomic      Atomic             Coordinates (Angstroms)
 Number     Number       Type             X           Y           Z
 ---------------------------------------------------------------------
      1          7           0       -1.908902   -3.438636    3.145388
      2          1           0       -2.246522   -4.013191    2.374847
      3          1           0       -0.897905   -3.374300    3.028236
      4          6           0       -2.467377   -2.104140    3.028501
      5          1           0       -3.528236   -2.144656    3.314727
      6          6           0       -2.387346   -1.519334    1.596116
      7          6           0       -1.770429   -1.153864    4.040308
      8          1           0       -2.362925   -0.246296    4.194430
      9          1           0       -1.727407   -1.686133    4.996670
     10          8           0       -1.700534   -2.038283    0.720478
     11          6           0       -0.341143   -0.791583    3.652398
     12          7           0       -0.071189    0.534198    3.538063
     13          1           0        0.835065    0.775045    3.152804
     14          1           0       -0.809171    1.168253    3.255944
     15          8           0        0.526708   -1.660880    3.487877
     16          7           0       -3.104055   -0.377313    1.364311
     17          1           0       -3.590991    0.064551    2.133023
     18          6           0       -2.904532    0.419062    0.150552
     19          1           0       -3.117314   -0.215823   -0.715786
     20          6           0       -1.430451    0.878868    0.125125
     21          6           0       -3.863300    1.624580    0.166431
     22          1           0       -4.877990    1.242776    0.332847
     23          1           0       -3.597395    2.253124    1.024856
     24          8           0       -0.981798    1.604452    1.017490
     25          6           0       -3.819772    2.442125   -1.107798
     26          6           0       -2.963478    3.545220   -1.223074
     27          1           0       -2.332335    3.820442   -0.381776
     28          6           0       -4.626653    2.098997   -2.200863
     29          1           0       -5.305281    1.251963   -2.122368
     30          6           0       -2.916754    4.288439   -2.403400
     31          1           0       -2.254144    5.147098   -2.473433
     32          6           0       -4.580547    2.839313   -3.382353
     33          1           0       -5.218700    2.563706   -4.217514
     34          6           0       -3.724763    3.937579   -3.486046
     35          1           0       -3.694117    4.520300   -4.402653
     36          7           0       -0.672948    0.400676   -0.886158
     37          1           0       -1.072355   -0.235411   -1.564847
     38          6           0        0.771184    0.489741   -0.865397
     39          1           0        1.040763    1.469990   -0.462428
     40          6           0        1.277976    0.362607   -2.310448
     41          6           0        1.395764   -0.624130    0.040756
     42          1           0        1.625445   -1.508879   -0.567323
     43          1           0        0.648536   -0.946466    0.767079
     44          8           0        0.547070    0.023548   -3.233287
     45          6           0        2.682749   -0.195635    0.734683
     46          7           0        2.805301   -0.573879    2.023056
     47          1           0        3.675245   -0.358220    2.493676
     48          1           0        2.081631   -1.095548    2.531332
     49          8           0        3.567083    0.452783    0.151537
     50          7           0        2.610660    0.630768   -2.451346
     51          1           0        3.152763    0.718472   -1.577878
     52          6           0        3.280254    0.360786   -3.706207
     53          1           0        2.489285    0.015909   -4.387231
     54          6           0        4.253423   -0.809685   -3.533454
     55          6           0        3.958412    1.615886   -4.286499
     56          1           0        3.247430    2.436687   -4.162569
     57          1           0        4.825428    1.870415   -3.663708
     58          8           0        5.437259   -0.819413   -3.859632
     59          6           0        4.360977    1.495211   -5.780379
     60          1           0        4.279871    0.458028   -6.128092
     61          1           0        3.671952    2.075385   -6.401703
     62          6           0        5.782157    1.985831   -6.079122
     63          1           0        5.975123    1.957952   -7.158778
     64          1           0        5.907327    3.020236   -5.730739
     65          7           0        6.739159    1.108099   -5.389856
     66          1           0        6.320163    0.403847   -4.764089
     67          7           0        8.682674    2.077500   -6.226860
     68          1           0        9.642150    1.964351   -6.520667
     69          1           0        8.165368    2.843982   -6.630677
     70          7           0        8.788560    0.122487   -4.983121
     71          1           0        9.771171    0.259455   -4.792100
     72          1           0        8.320984   -0.600122   -4.451229
     73          6           0        8.054005    1.113554   -5.531245
     74          8           0        3.677471   -1.870197   -2.969724
     75          1           0        4.349656   -2.574080   -2.886501
 ---------------------------------------------------------------------

 SCF Done:  E(RB3LYP) =  -1917.39306090     A.U. after    2 cycles

 Alpha  occ. eigenvalues --  -19.31659 -19.27429 -19.20144 -19.19806 -19.19440
 Alpha  occ. eigenvalues --  -19.18648 -19.18329 -14.52914 -14.52273 -14.51319
 Alpha  occ. eigenvalues --  -14.43723 -14.43099 -14.42952 -14.42661 -14.42230
 Alpha  occ. eigenvalues --  -14.36009 -10.48690 -10.44779 -10.37137 -10.37003
 Alpha  occ. eigenvalues --  -10.36632 -10.36551 -10.35606 -10.34897 -10.34275
 Alpha  occ. eigenvalues --  -10.31452 -10.31431 -10.30514 -10.30174 -10.29118
 Alpha  occ. eigenvalues --  -10.27172 -10.26767 -10.26105 -10.25289 -10.24267
 Alpha  occ. eigenvalues --  -10.24213 -10.24177 -10.24105 -10.24092  -1.23207
 Alpha  occ. eigenvalues --   -1.17225  -1.14014  -1.12199  -1.11041  -1.10860
 Alpha  occ. eigenvalues --   -1.10514  -1.09685  -1.06323  -1.05583  -1.01433
 Alpha  occ. eigenvalues --   -0.99664  -0.99223  -0.97638  -0.97359  -0.94187
 Alpha  occ. eigenvalues --   -0.92141  -0.90954  -0.87703  -0.85688  -0.84315
 Alpha  occ. eigenvalues --   -0.82334  -0.81166  -0.79573  -0.79334  -0.79269
 Alpha  occ. eigenvalues --   -0.76333  -0.75085  -0.74210  -0.73008  -0.71558
 Alpha  occ. eigenvalues --   -0.70479  -0.69540  -0.67617  -0.66635  -0.66230
 Alpha  occ. eigenvalues --   -0.65830  -0.65625  -0.65376  -0.65061  -0.64550
 Alpha  occ. eigenvalues --   -0.64172  -0.62806  -0.62375  -0.61438  -0.61102
 Alpha  occ. eigenvalues --   -0.60056  -0.59207  -0.58719  -0.58050  -0.57232
 Alpha  occ. eigenvalues --   -0.56800  -0.56602  -0.56245  -0.56048  -0.55555
 Alpha  occ. eigenvalues --   -0.54681  -0.54230  -0.53717  -0.53564  -0.52735
 Alpha  occ. eigenvalues --   -0.52194  -0.51607  -0.51151  -0.51118  -0.50704
 Alpha  occ. eigenvalues --   -0.50609  -0.49913  -0.49128  -0.48565  -0.48108
 Alpha  occ. eigenvalues --   -0.47886  -0.47366  -0.47135  -0.46807  -0.46308
 Alpha  occ. eigenvalues --   -0.45951  -0.45816  -0.45658  -0.45158  -0.44669
 Alpha  occ. eigenvalues --   -0.44553  -0.44270  -0.44187  -0.44054  -0.43778
 Alpha  occ. eigenvalues --   -0.43210  -0.42831  -0.41272  -0.41045  -0.40962
 Alpha  occ. eigenvalues --   -0.40697  -0.39509  -0.39168  -0.35249  -0.34932
 Alpha  occ. eigenvalues --   -0.34297  -0.34218  -0.33884  -0.33507  -0.33160
 Alpha  occ. eigenvalues --   -0.32373  -0.31921  -0.31084  -0.30154  -0.29827
 Alpha  occ. eigenvalues --   -0.28818
 Alpha virt. eigenvalues --   -0.12619  -0.11957  -0.08530  -0.06451  -0.05715
 Alpha virt. eigenvalues --   -0.05512  -0.05472  -0.05172  -0.05054  -0.04882
 Alpha virt. eigenvalues --   -0.03784  -0.03382  -0.03129  -0.01801  -0.00899

 Mulliken charges:
               1
     1  N   -0.703802
     2  H    0.308960
     3  H    0.331695
     4  C   -0.080165
     5  H    0.160637
     6  C    0.593363
     7  C   -0.353666
     8  H    0.143117
     9  H    0.213796
    10  O   -0.531025
    11  C    0.591787
    12  N   -0.717108
    13  H    0.341824
    14  H    0.360159
    15  O   -0.536278
    16  N   -0.608287
    17  H    0.333037
    18  C   -0.009869
    19  H    0.165743
    20  C    0.649616
    21  C   -0.397820
    22  H    0.164001
    23  H    0.165394
    24  O   -0.576934
    25  C    0.157197
    26  C   -0.180104
    27  H    0.143443
    28  C   -0.181737
    29  H    0.130094
    30  C   -0.129752
    31  H    0.132321
    32  C   -0.126688
    33  H    0.139361
    34  C   -0.126839
    35  H    0.135423
    36  N   -0.581792
    37  H    0.358978
    38  C   -0.052411
    39  H    0.200713
    40  C    0.597836
    41  C   -0.404382
    42  H    0.192180
    43  H    0.214592
    44  O   -0.513765
    45  C    0.616621
    46  N   -0.780882
    47  H    0.343950
    48  H    0.405898
    49  O   -0.558518
    50  N   -0.635649
    51  H    0.389754
    52  C   -0.053998
    53  H    0.224109
    54  C    0.617606
    55  C   -0.288092
    56  H    0.190713
    57  H    0.155931
    58  O   -0.527150
    59  C   -0.314806
    60  H    0.171640
    61  H    0.189475
    62  C   -0.160817
    63  H    0.182815
    64  H    0.182717
    65  N   -0.633729
    66  H    0.429055
    67  N   -0.760664
    68  H    0.383796
    69  H    0.389803
    70  N   -0.762950
    71  H    0.378214
    72  H    0.391042
    73  C    0.812295
    74  O   -0.521885
    75  H    0.430868
 Sum of Mulliken charges =   1.00000

 Dipole moment (field-independent basis, Debye):
    X=             28.1623    Y=              5.8468    Z=            -20.3954  Tot=             35.2600
 Quadrupole moment (field-independent basis, Debye-Ang):
   XX=             55.4467   YY=           -210.5787   ZZ=            -87.4525
   XY=             29.3192   XZ=           -177.6488   YZ=            -29.8952

 Normal termination of Gaussian 16 at Tue Jun  7 03:34:42 2022.
