 Gaussian 16, Revision C.01,
 Gaussian 16:  ES64L-G16RevC.01  3-Jul-2019

 -------------------------------------------------------------------
 # B3LYP/6-31G* guess=read geom=check nosymm integral(ultrafinegrid)
 -------------------------------------------------------------------

 ------------------------------------------------------
 Candidate Structure: Conf:112 Charge calc in gas phase
 ------------------------------------------------------
 Structure from the checkpoint file:  "conf-112.chk"
 Charge =  1 Multiplicity = 1

                          Input orientation:
 ---------------------------------------------------------------------
 Center     Atomic      Atomic             Coordinates (Angstroms)
 Number     Number       Type             X           Y           Z
 ---------------------------------------------------------------------
      1          7           0       -3.279172   -1.090661    4.016000
      2          1           0       -3.848593   -1.761553    3.502435
      3          1           0       -2.341865   -1.491294    4.065900
      4          6           0       -3.179538    0.139376    3.252853
      5          1           0       -4.172755    0.610401    3.224708
      6          6           0       -2.729893   -0.076823    1.787363
      7          6           0       -2.223613    1.129650    3.972483
      8          1           0       -2.388702    2.156494    3.625752
      9          1           0       -2.481593    1.096889    5.037358
     10          8           0       -2.333294   -1.165712    1.368474
     11          6           0       -0.755282    0.731639    3.810289
     12          7           0        0.138079    1.734996    3.646475
     13          1           0        1.124270    1.502400    3.495916
     14          1           0       -0.139347    2.704340    3.673938
     15          8           0       -0.419435   -0.455547    3.799353
     16          7           0       -2.758539    1.022181    0.976909
     17          1           0       -3.208245    1.867251    1.304070
     18          6           0       -2.438345    0.932090   -0.449334
     19          1           0       -2.733141   -0.073609   -0.771797
     20          6           0       -0.909808    1.067447   -0.638832
     21          6           0       -3.194199    1.996381   -1.262639
     22          1           0       -2.805680    2.985354   -0.996809
     23          1           0       -2.933177    1.848930   -2.316926
     24          8           0       -0.405776    2.045266   -1.208139
     25          6           0       -4.696009    1.946561   -1.070041
     26          6           0       -5.451551    0.871957   -1.561087
     27          1           0       -4.956721    0.068902   -2.103801
     28          6           0       -5.361235    2.970963   -0.384633
     29          1           0       -4.795095    3.824846   -0.016403
     30          6           0       -6.830864    0.819994   -1.365680
     31          1           0       -7.399861   -0.020074   -1.754548
     32          6           0       -6.743562    2.923518   -0.186852
     33          1           0       -7.241252    3.730630    0.343751
     34          6           0       -7.481623    1.845990   -0.675395
     35          1           0       -8.556652    1.806247   -0.524731
     36          7           0       -0.172904    0.054211   -0.119986
     37          1           0       -0.687639   -0.672002    0.384372
     38          6           0        1.261732    0.212231    0.164016
     39          1           0        1.419858    1.267045    0.423619
     40          6           0        2.138509   -0.080958   -1.079951
     41          6           0        1.688093   -0.673092    1.344413
     42          1           0        1.872154   -1.692188    0.995319
     43          1           0        0.898293   -0.697472    2.102305
     44          8           0        3.013108   -0.945682   -1.096637
     45          6           0        2.920565   -0.088266    2.031947
     46          7           0        4.094398   -0.713452    1.765786
     47          1           0        4.941278   -0.300630    2.134258
     48          1           0        4.159725   -1.308575    0.950280
     49          8           0        2.843811    0.887524    2.781179
     50          7           0        1.873846    0.723587   -2.148403
     51          1           0        1.143382    1.433563   -2.029440
     52          6           0        2.618228    0.598555   -3.375984
     53          1           0        3.357455   -0.192695   -3.188983
     54          6           0        3.431326    1.850257   -3.699643
     55          6           0        1.706013    0.142148   -4.547762
     56          1           0        1.113119   -0.679702   -4.138183
     57          1           0        0.989345    0.939406   -4.787397
     58          8           0        4.099374    1.999435   -4.717569
     59          6           0        2.435004   -0.343048   -5.823071
     60          1           0        3.478154   -0.583158   -5.589315
     61          1           0        1.979092   -1.277157   -6.171073
     62          6           0        2.386829    0.676259   -6.972786
     63          1           0        1.372316    0.761206   -7.372367
     64          1           0        2.680122    1.671887   -6.635123
     65          7           0        3.253339    0.310181   -8.106583
     66          1           0        2.886363   -0.356202   -8.773965
     67          7           0        5.203509    1.200086   -7.198160
     68          1           0        6.122939    1.588384   -7.355388
     69          1           0        4.771709    1.382387   -6.285349
     70          7           0        5.229465    0.247847   -9.311311
     71          1           0        6.235452    0.317313   -9.360839
     72          1           0        4.742400    0.004924  -10.161720
     73          6           0        4.559859    0.590105   -8.192523
     74          8           0        3.376163    2.789142   -2.758647
     75          1           0        3.942618    3.532729   -3.044662
 ---------------------------------------------------------------------

 SCF Done:  E(RB3LYP) =  -1917.38609080     A.U. after    2 cycles

 Alpha  occ. eigenvalues --  -19.32007 -19.27140 -19.20527 -19.20299 -19.18455
 Alpha  occ. eigenvalues --  -19.17751 -19.16329 -14.53384 -14.53320 -14.52145
 Alpha  occ. eigenvalues --  -14.44059 -14.43376 -14.43280 -14.41436 -14.40084
 Alpha  occ. eigenvalues --  -14.34968 -10.49518 -10.44970 -10.37228 -10.36683
 Alpha  occ. eigenvalues --  -10.36629 -10.35220 -10.34929 -10.34768 -10.34169
 Alpha  occ. eigenvalues --  -10.31616 -10.31418 -10.30963 -10.30955 -10.28365
 Alpha  occ. eigenvalues --  -10.26289 -10.25934 -10.25617 -10.25154 -10.24962
 Alpha  occ. eigenvalues --  -10.24864 -10.24797 -10.24787 -10.24576  -1.23454
 Alpha  occ. eigenvalues --   -1.17887  -1.14062  -1.12431  -1.11566  -1.10176
 Alpha  occ. eigenvalues --   -1.09197  -1.07996  -1.07252  -1.05757  -1.01735
 Alpha  occ. eigenvalues --   -1.00139  -0.99178  -0.96337  -0.94952  -0.93261
 Alpha  occ. eigenvalues --   -0.92301  -0.91470  -0.87680  -0.85874  -0.84575
 Alpha  occ. eigenvalues --   -0.82173  -0.81315  -0.80241  -0.79449  -0.79366
 Alpha  occ. eigenvalues --   -0.75706  -0.75318  -0.74532  -0.72853  -0.71931
 Alpha  occ. eigenvalues --   -0.71061  -0.70373  -0.67627  -0.66886  -0.66547
 Alpha  occ. eigenvalues --   -0.66179  -0.65784  -0.65335  -0.64373  -0.63903
 Alpha  occ. eigenvalues --   -0.63342  -0.62878  -0.61684  -0.60983  -0.60448
 Alpha  occ. eigenvalues --   -0.59480  -0.59257  -0.58647  -0.58507  -0.57967
 Alpha  occ. eigenvalues --   -0.57544  -0.57305  -0.56345  -0.56183  -0.55645
 Alpha  occ. eigenvalues --   -0.55345  -0.53744  -0.53567  -0.52299  -0.51884
 Alpha  occ. eigenvalues --   -0.51768  -0.51528  -0.51233  -0.50882  -0.50536
 Alpha  occ. eigenvalues --   -0.49829  -0.49479  -0.49211  -0.48457  -0.47862
 Alpha  occ. eigenvalues --   -0.47678  -0.47163  -0.46937  -0.46754  -0.46485
 Alpha  occ. eigenvalues --   -0.46136  -0.45699  -0.45670  -0.45248  -0.44821
 Alpha  occ. eigenvalues --   -0.44104  -0.43909  -0.43567  -0.43147  -0.42952
 Alpha  occ. eigenvalues --   -0.42530  -0.41823  -0.41797  -0.41403  -0.41046
 Alpha  occ. eigenvalues --   -0.40417  -0.39885  -0.39758  -0.36206  -0.35379
 Alpha  occ. eigenvalues --   -0.34361  -0.32932  -0.32826  -0.32137  -0.31939
 Alpha  occ. eigenvalues --   -0.31740  -0.31203  -0.30856  -0.30329  -0.30162
 Alpha  occ. eigenvalues --   -0.28017
 Alpha virt. eigenvalues --   -0.13227  -0.11939  -0.09563  -0.06973  -0.06688
 Alpha virt. eigenvalues --   -0.06221  -0.05910  -0.05575  -0.04712  -0.04253
 Alpha virt. eigenvalues --   -0.03433  -0.03330  -0.02587  -0.02103  -0.00709

 Mulliken charges:
               1
     1  N   -0.706264
     2  H    0.304788
     3  H    0.342180
     4  C   -0.075525
     5  H    0.156414
     6  C    0.600504
     7  C   -0.356977
     8  H    0.128953
     9  H    0.209183
    10  O   -0.536527
    11  C    0.603807
    12  N   -0.780245
    13  H    0.399248
    14  H    0.331568
    15  O   -0.522795
    16  N   -0.599137
    17  H    0.337362
    18  C   -0.051297
    19  H    0.187712
    20  C    0.634366
    21  C   -0.388305
    22  H    0.169651
    23  H    0.162868
    24  O   -0.559475
    25  C    0.178664
    26  C   -0.177540
    27  H    0.124735
    28  C   -0.206093
    29  H    0.125017
    30  C   -0.127097
    31  H    0.142166
    32  C   -0.125639
    33  H    0.142490
    34  C   -0.128627
    35  H    0.144624
    36  N   -0.630608
    37  H    0.394597
    38  C   -0.061020
    39  H    0.197893
    40  C    0.624609
    41  C   -0.422192
    42  H    0.173820
    43  H    0.243515
    44  O   -0.534121
    45  C    0.586063
    46  N   -0.723461
    47  H    0.342449
    48  H    0.363971
    49  O   -0.521732
    50  N   -0.626747
    51  H    0.387776
    52  C   -0.068481
    53  H    0.221586
    54  C    0.615474
    55  C   -0.280996
    56  H    0.191905
    57  H    0.160819
    58  O   -0.518014
    59  C   -0.269858
    60  H    0.159786
    61  H    0.166347
    62  C   -0.188202
    63  H    0.194173
    64  H    0.200205
    65  N   -0.596242
    66  H    0.363723
    67  N   -0.793368
    68  H    0.373897
    69  H    0.451377
    70  N   -0.768579
    71  H    0.384014
    72  H    0.383248
    73  C    0.824431
    74  O   -0.516697
    75  H    0.429883
 Sum of Mulliken charges =   1.00000

 Dipole moment (field-independent basis, Debye):
    X=             15.2928    Y=              6.7625    Z=            -34.4867  Tot=             38.3267
 Quadrupole moment (field-independent basis, Debye-Ang):
   XX=            -97.3879   YY=           -208.7134   ZZ=             46.3084
   XY=              6.1748   XZ=           -148.9591   YZ=              0.4404

 Normal termination of Gaussian 16 at Tue Jun  7 03:23:58 2022.
