 Gaussian 16, Revision C.01,
 Gaussian 16:  ES64L-G16RevC.01  3-Jul-2019

 -------------------------------------------------------------------
 # B3LYP/6-31G* guess=read geom=check nosymm integral(ultrafinegrid)
 -------------------------------------------------------------------

 ------------------------------------------------------
 Candidate Structure: Conf:684 Charge calc in gas phase
 ------------------------------------------------------
 Structure from the checkpoint file:  "conf-684.chk"
 Charge =  1 Multiplicity = 1

                          Input orientation:
 ---------------------------------------------------------------------
 Center     Atomic      Atomic             Coordinates (Angstroms)
 Number     Number       Type             X           Y           Z
 ---------------------------------------------------------------------
      1          7           0       -4.376548    1.540604    3.780339
      2          1           0       -5.165420    1.744865    3.168101
      3          1           0       -4.380636    0.520388    3.865739
      4          6           0       -3.144141    1.943025    3.107627
      5          1           0       -3.282248    2.920555    2.635310
      6          6           0       -2.728880    0.912857    2.028883
      7          6           0       -2.047547    2.086544    4.190706
      8          1           0       -2.457224    2.716907    4.990190
      9          1           0       -1.851546    1.107689    4.642534
     10          8           0       -3.049787   -0.265436    2.116474
     11          6           0       -0.752850    2.710158    3.700672
     12          7           0        0.353856    2.456704    4.439019
     13          1           0        1.248699    2.846867    4.166207
     14          1           0        0.333379    1.823278    5.227568
     15          8           0       -0.705344    3.443309    2.694822
     16          7           0       -2.001757    1.432617    0.995695
     17          1           0       -1.605772    2.356600    1.133790
     18          6           0       -1.499785    0.613638   -0.085174
     19          1           0       -1.991660   -0.355956    0.032602
     20          6           0        0.024087    0.427225    0.043109
     21          6           0       -1.886114    1.224155   -1.458996
     22          1           0       -1.437190    2.224607   -1.533114
     23          1           0       -1.444009    0.608537   -2.252046
     24          8           0        0.780959    1.378677    0.361054
     25          6           0       -3.389440    1.317209   -1.613186
     26          6           0       -4.124036    0.207925   -2.052519
     27          1           0       -3.604433   -0.710429   -2.319127
     28          6           0       -4.078526    2.489816   -1.275825
     29          1           0       -3.523191    3.361402   -0.936336
     30          6           0       -5.514352    0.268964   -2.154731
     31          1           0       -6.068420   -0.599330   -2.500527
     32          6           0       -5.468586    2.556181   -1.381600
     33          1           0       -5.986894    3.478988   -1.133127
     34          6           0       -6.190695    1.443965   -1.820010
     35          1           0       -7.272544    1.494463   -1.907113
     36          7           0        0.450699   -0.803233   -0.225365
     37          1           0       -0.209060   -1.525188   -0.546078
     38          6           0        1.835924   -1.279632   -0.158464
     39          1           0        2.270825   -0.859912    0.757584
     40          6           0        2.706211   -0.764109   -1.337239
     41          6           0        1.849648   -2.811384   -0.099655
     42          1           0        1.381462   -3.123056    0.841327
     43          1           0        2.880438   -3.170976   -0.091750
     44          8           0        2.924829   -1.440609   -2.332955
     45          6           0        1.042760   -3.451902   -1.232851
     46          7           0        1.624691   -4.483405   -1.889560
     47          1           0        1.117027   -4.856399   -2.683193
     48          1           0        2.633911   -4.535835   -1.932973
     49          8           0       -0.122483   -3.102169   -1.457174
     50          7           0        3.168509    0.505375   -1.143201
     51          1           0        2.789570    1.007910   -0.345435
     52          6           0        3.894765    1.232793   -2.170956
     53          1           0        3.845931    0.622373   -3.076503
     54          6           0        5.366737    1.362794   -1.785703
     55          6           0        3.316818    2.647146   -2.419835
     56          1           0        3.522167    3.216005   -1.501082
     57          1           0        3.898339    3.101696   -3.230362
     58          8           0        5.840182    2.419558   -1.423411
     59          6           0        1.818160    2.679283   -2.746434
     60          1           0        1.652475    2.639812   -3.829671
     61          1           0        1.320596    1.797424   -2.328916
     62          6           0        1.093443    3.924741   -2.223036
     63          1           0        1.529723    4.827629   -2.659009
     64          1           0        0.043359    3.900312   -2.538362
     65          7           0        1.142358    4.012360   -0.753095
     66          1           0        0.914916    3.148134   -0.237561
     67          7           0        1.849330    6.229829   -0.541965
     68          1           0        2.075512    7.009206    0.054010
     69          1           0        2.267140    6.245888   -1.457110
     70          7           0        1.298562    4.994383    1.327442
     71          1           0        1.513603    5.810659    1.880564
     72          1           0        0.609532    4.355512    1.760092
     73          6           0        1.426545    5.077969    0.001026
     74          8           0        6.063597    0.219563   -1.893162
     75          1           0        6.987293    0.421092   -1.644540
 ---------------------------------------------------------------------

 SCF Done:  E(RB3LYP) =  -1917.39642339     A.U. after    1 cycles

 Alpha  occ. eigenvalues --  -19.28583 -19.24069 -19.23415 -19.22787 -19.21431
 Alpha  occ. eigenvalues --  -19.20706 -19.19536 -14.51505 -14.50196 -14.49695
 Alpha  occ. eigenvalues --  -14.47559 -14.46444 -14.45857 -14.44177 -14.43947
 Alpha  occ. eigenvalues --  -14.38590 -10.47158 -10.41178 -10.40865 -10.39612
 Alpha  occ. eigenvalues --  -10.38474 -10.38415 -10.36277 -10.35610 -10.34255
 Alpha  occ. eigenvalues --  -10.33258 -10.32441 -10.30823 -10.29979 -10.29787
 Alpha  occ. eigenvalues --  -10.29296 -10.29289 -10.28635 -10.26930 -10.25987
 Alpha  occ. eigenvalues --  -10.25683 -10.25664 -10.25477 -10.25407  -1.19472
 Alpha  occ. eigenvalues --   -1.15775  -1.14978  -1.14299  -1.13115  -1.12219
 Alpha  occ. eigenvalues --   -1.11388  -1.10498  -1.05004  -1.03731  -1.03304
 Alpha  occ. eigenvalues --   -1.02434  -1.02079  -1.00911  -0.99129  -0.96360
 Alpha  occ. eigenvalues --   -0.92452  -0.91105  -0.89194  -0.86869  -0.85998
 Alpha  occ. eigenvalues --   -0.85189  -0.81397  -0.81056  -0.80424  -0.77767
 Alpha  occ. eigenvalues --   -0.77029  -0.75538  -0.73626  -0.73099  -0.72244
 Alpha  occ. eigenvalues --   -0.71031  -0.69401  -0.69176  -0.68052  -0.67835
 Alpha  occ. eigenvalues --   -0.67425  -0.67151  -0.66147  -0.65559  -0.64549
 Alpha  occ. eigenvalues --   -0.64535  -0.64035  -0.63096  -0.62345  -0.61217
 Alpha  occ. eigenvalues --   -0.60130  -0.59814  -0.59369  -0.58914  -0.58453
 Alpha  occ. eigenvalues --   -0.58190  -0.57989  -0.57429  -0.56808  -0.56294
 Alpha  occ. eigenvalues --   -0.55626  -0.55183  -0.54427  -0.54385  -0.54002
 Alpha  occ. eigenvalues --   -0.53101  -0.52913  -0.52218  -0.52125  -0.51945
 Alpha  occ. eigenvalues --   -0.51471  -0.50833  -0.50678  -0.49574  -0.49469
 Alpha  occ. eigenvalues --   -0.48888  -0.48733  -0.48707  -0.48559  -0.48356
 Alpha  occ. eigenvalues --   -0.48210  -0.47635  -0.47275  -0.46843  -0.46173
 Alpha  occ. eigenvalues --   -0.45620  -0.45376  -0.45093  -0.44743  -0.44226
 Alpha  occ. eigenvalues --   -0.43138  -0.42514  -0.42308  -0.41145  -0.40798
 Alpha  occ. eigenvalues --   -0.40612  -0.39387  -0.38858  -0.38735  -0.38083
 Alpha  occ. eigenvalues --   -0.37899  -0.37220  -0.35750  -0.34578  -0.34512
 Alpha  occ. eigenvalues --   -0.34233  -0.33829  -0.33239  -0.31550  -0.31330
 Alpha  occ. eigenvalues --   -0.31118
 Alpha virt. eigenvalues --   -0.11154  -0.09628  -0.09431  -0.08965  -0.07749
 Alpha virt. eigenvalues --   -0.07083  -0.06846  -0.06795  -0.06359  -0.05484
 Alpha virt. eigenvalues --   -0.04578  -0.03041  -0.02362  -0.00912  -0.00650

 Mulliken charges:
               1
     1  N   -0.706329
     2  H    0.314289
     3  H    0.323872
     4  C   -0.082436
     5  H    0.161678
     6  C    0.584628
     7  C   -0.358816
     8  H    0.217614
     9  H    0.174365
    10  O   -0.511762
    11  C    0.630634
    12  N   -0.731258
    13  H    0.350650
    14  H    0.364762
    15  O   -0.564272
    16  N   -0.602226
    17  H    0.353102
    18  C   -0.073889
    19  H    0.208293
    20  C    0.646920
    21  C   -0.378468
    22  H    0.131524
    23  H    0.169096
    24  O   -0.609906
    25  C    0.187258
    26  C   -0.177762
    27  H    0.138980
    28  C   -0.177238
    29  H    0.106500
    30  C   -0.125777
    31  H    0.147747
    32  C   -0.132709
    33  H    0.138250
    34  C   -0.127397
    35  H    0.146187
    36  N   -0.605954
    37  H    0.404322
    38  C   -0.067635
    39  H    0.173526
    40  C    0.629027
    41  C   -0.388830
    42  H    0.201536
    43  H    0.176289
    44  O   -0.503182
    45  C    0.633547
    46  N   -0.723677
    47  H    0.357865
    48  H    0.356111
    49  O   -0.530729
    50  N   -0.619348
    51  H    0.355875
    52  C   -0.050535
    53  H    0.209464
    54  C    0.594943
    55  C   -0.281789
    56  H    0.154813
    57  H    0.172523
    58  O   -0.458494
    59  C   -0.297543
    60  H    0.175940
    61  H    0.173528
    62  C   -0.157560
    63  H    0.157459
    64  H    0.196017
    65  N   -0.635185
    66  H    0.416168
    67  N   -0.748272
    68  H    0.374076
    69  H    0.380166
    70  N   -0.787686
    71  H    0.357228
    72  H    0.418739
    73  C    0.778815
    74  O   -0.551329
    75  H    0.423669
 Sum of Mulliken charges =   1.00000

 Dipole moment (field-independent basis, Debye):
    X=              8.1766    Y=             14.8261    Z=              1.8009  Tot=             17.0268
 Quadrupole moment (field-independent basis, Debye-Ang):
   XX=           -184.9060   YY=           -109.3548   ZZ=           -184.3923
   XY=             10.8134   XZ=              3.9194   YZ=              9.9209

 Normal termination of Gaussian 16 at Tue Jun  7 03:23:55 2022.
