 Gaussian 16, Revision C.01,
 Gaussian 16:  ES64L-G16RevC.01  3-Jul-2019

 -------------------------------------------------------------------
 # B3LYP/6-31G* guess=read geom=check nosymm integral(ultrafinegrid)
 -------------------------------------------------------------------

 ------------------------------------------------------
 Candidate Structure: Conf:746 Charge calc in gas phase
 ------------------------------------------------------
 Structure from the checkpoint file:  "conf-746.chk"
 Charge =  1 Multiplicity = 1

                          Input orientation:
 ---------------------------------------------------------------------
 Center     Atomic      Atomic             Coordinates (Angstroms)
 Number     Number       Type             X           Y           Z
 ---------------------------------------------------------------------
      1          7           0       -4.174427    4.514368    2.809483
      2          1           0       -4.864614    4.611838    2.065923
      3          1           0       -4.504451    3.714576    3.352891
      4          6           0       -2.887621    4.158551    2.221065
      5          1           0       -2.691392    4.849785    1.394542
      6          6           0       -2.879085    2.703865    1.677446
      7          6           0       -1.791916    4.392375    3.276042
      8          1           0       -2.071132    5.321356    3.793754
      9          1           0       -1.794957    3.606675    4.042952
     10          8           0       -3.788991    1.925105    1.945518
     11          6           0       -0.374505    4.604274    2.754755
     12          7           0        0.592281    4.473292    3.684417
     13          1           0        1.554233    4.658944    3.435210
     14          1           0        0.386062    4.227962    4.643266
     15          8           0       -0.093808    4.920490    1.585474
     16          7           0       -1.829248    2.361628    0.880158
     17          1           0       -0.996488    2.939585    0.861017
     18          6           0       -1.621811    1.000197    0.417218
     19          1           0       -1.880915    0.311449    1.234533
     20          6           0       -0.106673    0.850808    0.162488
     21          6           0       -2.557891    0.610955   -0.763952
     22          1           0       -2.354408   -0.429475   -1.043670
     23          1           0       -3.569206    0.624798   -0.346594
     24          8           0        0.675856    1.750445    0.488401
     25          6           0       -2.509909    1.487028   -1.999003
     26          6           0       -3.438085    2.530120   -2.170996
     27          1           0       -4.185979    2.705719   -1.401323
     28          6           0       -1.578706    1.256238   -3.020563
     29          1           0       -0.843333    0.466327   -2.908446
     30          6           0       -3.437650    3.315185   -3.327993
     31          1           0       -4.174752    4.104693   -3.446773
     32          6           0       -1.588174    2.023646   -4.189897
     33          1           0       -0.883903    1.790705   -4.985906
     34          6           0       -2.515321    3.058950   -4.349930
     35          1           0       -2.537445    3.642237   -5.266353
     36          7           0        0.280687   -0.318060   -0.388442
     37          1           0       -0.381319   -1.087128   -0.511814
     38          6           0        1.671379   -0.746189   -0.494378
     39          1           0        2.026968   -1.087834    0.488788
     40          6           0        2.578913    0.403888   -0.993910
     41          6           0        1.777910   -1.908990   -1.505620
     42          1           0        2.820574   -2.242490   -1.540806
     43          1           0        1.528810   -1.516016   -2.498926
     44          8           0        2.335036    1.010327   -2.032767
     45          6           0        0.833203   -3.076833   -1.213385
     46          7           0        1.362317   -4.315095   -1.344237
     47          1           0        0.753336   -5.114337   -1.222511
     48          1           0        2.315270   -4.478051   -1.633513
     49          8           0       -0.346679   -2.900524   -0.899490
     50          7           0        3.681670    0.619312   -0.235289
     51          1           0        3.809547    0.143179    0.649872
     52          6           0        4.585658    1.726901   -0.479739
     53          1           0        4.938118    1.654110   -1.513769
     54          6           0        5.783412    1.545919    0.439016
     55          6           0        3.927130    3.136931   -0.268459
     56          1           0        2.958836    2.968970    0.213178
     57          1           0        4.538746    3.747164    0.407882
     58          8           0        5.823951    0.767956    1.367067
     59          6           0        3.718887    3.886150   -1.588036
     60          1           0        4.686916    4.179808   -2.015225
     61          1           0        3.256679    3.189279   -2.297182
     62          6           0        2.874432    5.162010   -1.433254
     63          1           0        3.346404    5.841542   -0.717045
     64          1           0        2.814225    5.701788   -2.385095
     65          7           0        1.504355    4.950504   -0.952505
     66          1           0        1.291367    5.066060    0.036079
     67          7           0        0.667283    4.207328   -3.000042
     68          1           0       -0.134311    3.826006   -3.494844
     69          1           0        1.548602    3.776270   -3.242480
     70          7           0       -0.770769    4.657526   -1.231587
     71          1           0       -1.523492    4.132833   -1.667278
     72          1           0       -0.889149    4.936217   -0.256068
     73          6           0        0.476825    4.573070   -1.715853
     74          8           0        6.781186    2.386371    0.111133
     75          1           0        7.507662    2.240335    0.748215
 ---------------------------------------------------------------------

 SCF Done:  E(RB3LYP) =  -1917.40819275     A.U. after    1 cycles

 Alpha  occ. eigenvalues --  -19.29802 -19.24505 -19.24372 -19.21874 -19.21753
 Alpha  occ. eigenvalues --  -19.21305 -19.20122 -14.48742 -14.48427 -14.47757
 Alpha  occ. eigenvalues --  -14.47505 -14.45871 -14.45800 -14.45164 -14.44132
 Alpha  occ. eigenvalues --  -14.39338 -10.44826 -10.42362 -10.41489 -10.39601
 Alpha  occ. eigenvalues --  -10.38777 -10.38718 -10.36849 -10.34354 -10.34081
 Alpha  occ. eigenvalues --  -10.34073 -10.32793 -10.31727 -10.30545 -10.29965
 Alpha  occ. eigenvalues --  -10.29391 -10.29133 -10.29109 -10.28839 -10.28791
 Alpha  occ. eigenvalues --  -10.28747 -10.28575 -10.28374 -10.28181  -1.20823
 Alpha  occ. eigenvalues --   -1.15486  -1.14091  -1.13477  -1.13407  -1.12893
 Alpha  occ. eigenvalues --   -1.11986  -1.11810  -1.02968  -1.02566  -1.02396
 Alpha  occ. eigenvalues --   -1.02247  -1.01429  -1.00875  -1.00545  -0.97212
 Alpha  occ. eigenvalues --   -0.95142  -0.90679  -0.89210  -0.87443  -0.85936
 Alpha  occ. eigenvalues --   -0.85571  -0.83994  -0.82818  -0.79846  -0.77876
 Alpha  occ. eigenvalues --   -0.76617  -0.75606  -0.74175  -0.72044  -0.71743
 Alpha  occ. eigenvalues --   -0.70286  -0.69929  -0.69828  -0.68971  -0.68573
 Alpha  occ. eigenvalues --   -0.68098  -0.67874  -0.66580  -0.65697  -0.65193
 Alpha  occ. eigenvalues --   -0.63784  -0.62698  -0.62008  -0.61474  -0.61159
 Alpha  occ. eigenvalues --   -0.60687  -0.60523  -0.59533  -0.59050  -0.58988
 Alpha  occ. eigenvalues --   -0.57921  -0.57372  -0.57303  -0.57131  -0.56676
 Alpha  occ. eigenvalues --   -0.55953  -0.55412  -0.54950  -0.54785  -0.54617
 Alpha  occ. eigenvalues --   -0.54404  -0.53661  -0.52987  -0.52797  -0.52154
 Alpha  occ. eigenvalues --   -0.51916  -0.51483  -0.51309  -0.51003  -0.50422
 Alpha  occ. eigenvalues --   -0.50304  -0.50042  -0.49667  -0.49223  -0.48621
 Alpha  occ. eigenvalues --   -0.48244  -0.48065  -0.47517  -0.47317  -0.46743
 Alpha  occ. eigenvalues --   -0.46040  -0.45574  -0.45407  -0.45007  -0.44581
 Alpha  occ. eigenvalues --   -0.44358  -0.43988  -0.43200  -0.42295  -0.41965
 Alpha  occ. eigenvalues --   -0.40064  -0.38949  -0.38629  -0.38229  -0.37651
 Alpha  occ. eigenvalues --   -0.37074  -0.36471  -0.36238  -0.35460  -0.35227
 Alpha  occ. eigenvalues --   -0.34984  -0.34682  -0.34188  -0.33951  -0.33619
 Alpha  occ. eigenvalues --   -0.32335
 Alpha virt. eigenvalues --   -0.10554  -0.10279  -0.09625  -0.09362  -0.09056
 Alpha virt. eigenvalues --   -0.08350  -0.07701  -0.06577  -0.06279  -0.03510
 Alpha virt. eigenvalues --   -0.02729  -0.02102  -0.01948  -0.00886  -0.00518

 Mulliken charges:
               1
     1  N   -0.694109
     2  H    0.312398
     3  H    0.321689
     4  C   -0.095414
     5  H    0.154479
     6  C    0.573505
     7  C   -0.369032
     8  H    0.224992
     9  H    0.176649
    10  O   -0.511717
    11  C    0.630757
    12  N   -0.725125
    13  H    0.355137
    14  H    0.365714
    15  O   -0.564936
    16  N   -0.647457
    17  H    0.372810
    18  C   -0.043168
    19  H    0.198204
    20  C    0.628612
    21  C   -0.391795
    22  H    0.176940
    23  H    0.200115
    24  O   -0.558103
    25  C    0.178372
    26  C   -0.215023
    27  H    0.156426
    28  C   -0.171050
    29  H    0.156857
    30  C   -0.141284
    31  H    0.159499
    32  C   -0.181994
    33  H    0.154664
    34  C   -0.147406
    35  H    0.159475
    36  N   -0.651361
    37  H    0.401364
    38  C   -0.027431
    39  H    0.160981
    40  C    0.664189
    41  C   -0.400975
    42  H    0.165572
    43  H    0.214236
    44  O   -0.553191
    45  C    0.624510
    46  N   -0.736780
    47  H    0.365246
    48  H    0.355902
    49  O   -0.525832
    50  N   -0.630250
    51  H    0.355620
    52  C   -0.003483
    53  H    0.199391
    54  C    0.563042
    55  C   -0.298622
    56  H    0.199852
    57  H    0.158424
    58  O   -0.456358
    59  C   -0.301247
    60  H    0.168512
    61  H    0.184046
    62  C   -0.178894
    63  H    0.180365
    64  H    0.187921
    65  N   -0.603489
    66  H    0.386250
    67  N   -0.760663
    68  H    0.374942
    69  H    0.379590
    70  N   -0.801207
    71  H    0.379997
    72  H    0.405621
    73  C    0.784984
    74  O   -0.560675
    75  H    0.430220
 Sum of Mulliken charges =   1.00000

 Dipole moment (field-independent basis, Debye):
    X=              8.5756    Y=             11.1452    Z=             -2.3253  Tot=             14.2535
 Quadrupole moment (field-independent basis, Debye-Ang):
   XX=           -174.3526   YY=           -132.9925   ZZ=           -179.6416
   XY=              5.8279   XZ=              4.7368   YZ=              9.1116

 Normal termination of Gaussian 16 at Tue Jun  7 03:24:03 2022.
