 Gaussian 16, Revision C.01,
 Gaussian 16:  ES64L-G16RevC.01  3-Jul-2019

 -------------------------------------------------------------------
 # B3LYP/6-31G* guess=read geom=check nosymm integral(ultrafinegrid)
 -------------------------------------------------------------------

 ------------------------------------------------------
 Candidate Structure: Conf:156 Charge calc in gas phase
 ------------------------------------------------------
 Structure from the checkpoint file:  "conf-156.chk"
 Charge =  1 Multiplicity = 1

                          Input orientation:
 ---------------------------------------------------------------------
 Center     Atomic      Atomic             Coordinates (Angstroms)
 Number     Number       Type             X           Y           Z
 ---------------------------------------------------------------------
      1          7           0       -4.023207   -1.812735   -0.152061
      2          1           0       -4.924141   -1.422630   -0.426559
      3          1           0       -3.514702   -2.005033   -1.015341
      4          6           0       -3.257999   -0.826799    0.618748
      5          1           0       -3.907341   -0.459270    1.422316
      6          6           0       -2.785736    0.347116   -0.251221
      7          6           0       -2.002508   -1.477812    1.242966
      8          1           0       -1.433286   -1.969129    0.441938
      9          1           0       -1.352129   -0.708239    1.667800
     10          8           0       -2.295662    0.145809   -1.376924
     11          6           0       -2.241569   -2.490417    2.375688
     12          7           0       -3.309628   -3.311267    2.207620
     13          1           0       -3.495934   -4.007065    2.916437
     14          1           0       -3.894588   -3.226505    1.380702
     15          8           0       -1.481826   -2.535893    3.332753
     16          7           0       -2.873356    1.576620    0.293838
     17          1           0       -3.331524    1.671128    1.191655
     18          6           0       -2.486074    2.817505   -0.389284
     19          1           0       -2.672908    2.649053   -1.456485
     20          6           0       -0.971579    3.109671   -0.216664
     21          6           0       -3.332961    3.999521    0.113807
     22          1           0       -3.079363    4.193953    1.162354
     23          1           0       -3.006669    4.887608   -0.436170
     24          8           0       -0.550568    4.170980    0.230451
     25          6           0       -4.822943    3.777493   -0.041356
     26          6           0       -5.427239    3.816996   -1.306250
     27          1           0       -4.823470    4.039234   -2.184118
     28          6           0       -5.628036    3.515408    1.074604
     29          1           0       -5.183799    3.513162    2.068716
     30          6           0       -6.795790    3.592909   -1.451510
     31          1           0       -7.248625    3.638031   -2.438295
     32          6           0       -6.999711    3.290221    0.934014
     33          1           0       -7.608524    3.099057    1.813425
     34          6           0       -7.586497    3.325598   -0.330779
     35          1           0       -8.654028    3.158900   -0.442943
     36          7           0       -0.159188    2.090614   -0.604068
     37          1           0       -0.554547    1.281496   -1.076989
     38          6           0        1.285240    2.222758   -0.618139
     39          1           0        1.559793    3.144796   -1.149037
     40          6           0        1.832463    1.032588   -1.427879
     41          6           0        1.867271    2.317766    0.823337
     42          1           0        2.047530    1.316198    1.233096
     43          1           0        1.112297    2.799491    1.446541
     44          8           0        1.046407    0.217229   -1.958053
     45          6           0        3.173226    3.104601    0.884021
     46          7           0        3.325270    3.917919    1.949853
     47          1           0        4.172601    4.466663    2.019490
     48          1           0        2.573755    4.112815    2.594524
     49          8           0        4.053473    2.992505    0.022718
     50          7           0        3.159534    0.925318   -1.531148
     51          1           0        3.734161    1.630576   -1.038133
     52          6           0        3.749161   -0.217828   -2.215686
     53          1           0        3.120711   -1.084242   -1.964878
     54          6           0        5.132420   -0.561997   -1.661519
     55          6           0        3.801471   -0.068240   -3.759279
     56          1           0        3.027620    0.646795   -4.059634
     57          1           0        4.760031    0.378005   -4.034082
     58          8           0        5.997037   -1.091236   -2.319746
     59          6           0        3.616986   -1.411775   -4.508277
     60          1           0        4.359124   -1.499750   -5.307403
     61          1           0        3.808906   -2.251957   -3.832027
     62          6           0        2.241471   -1.585547   -5.168039
     63          1           0        2.131061   -0.864963   -5.990814
     64          1           0        2.178690   -2.595892   -5.591937
     65          7           0        1.146352   -1.396277   -4.206806
     66          1           0        1.323637   -0.838568   -3.358936
     67          7           0       -0.542364   -2.132049   -5.638395
     68          1           0       -1.479735   -2.493188   -5.740581
     69          1           0        0.137288   -2.455620   -6.309894
     70          7           0       -1.061766   -1.326816   -3.523338
     71          1           0       -2.037249   -1.264270   -3.776834
     72          1           0       -0.813109   -0.788647   -2.695759
     73          6           0       -0.141618   -1.612837   -4.458925
     74          8           0        5.253904   -0.257838   -0.355994
     75          1           0        6.152980   -0.525411   -0.082393
 ---------------------------------------------------------------------

 SCF Done:  E(RB3LYP) =  -1917.40075496     A.U. after    1 cycles

 Alpha  occ. eigenvalues --  -19.29494 -19.24737 -19.23785 -19.23017 -19.21936
 Alpha  occ. eigenvalues --  -19.20820 -19.16901 -14.51322 -14.49562 -14.49342
 Alpha  occ. eigenvalues --  -14.47302 -14.46678 -14.45615 -14.44734 -14.42623
 Alpha  occ. eigenvalues --  -14.40936 -10.46699 -10.42133 -10.40876 -10.39439
 Alpha  occ. eigenvalues --  -10.39433 -10.37858 -10.35454 -10.35102 -10.34921
 Alpha  occ. eigenvalues --  -10.34514 -10.33225 -10.32935 -10.30282 -10.29943
 Alpha  occ. eigenvalues --  -10.29792 -10.27887 -10.27726 -10.27395 -10.26415
 Alpha  occ. eigenvalues --  -10.26337 -10.26260 -10.26226 -10.26023  -1.20485
 Alpha  occ. eigenvalues --   -1.16073  -1.15171  -1.14428  -1.13485  -1.12591
 Alpha  occ. eigenvalues --   -1.11535  -1.08814  -1.04598  -1.03914  -1.03514
 Alpha  occ. eigenvalues --   -1.03226  -1.01652  -1.00392  -0.99633  -0.95771
 Alpha  occ. eigenvalues --   -0.93015  -0.91560  -0.89058  -0.87656  -0.85957
 Alpha  occ. eigenvalues --   -0.84730  -0.81902  -0.81646  -0.80612  -0.78433
 Alpha  occ. eigenvalues --   -0.77542  -0.75555  -0.73544  -0.73049  -0.72283
 Alpha  occ. eigenvalues --   -0.70141  -0.69916  -0.69422  -0.68775  -0.68258
 Alpha  occ. eigenvalues --   -0.67650  -0.66889  -0.65807  -0.65157  -0.65037
 Alpha  occ. eigenvalues --   -0.64075  -0.63592  -0.62918  -0.62404  -0.61466
 Alpha  occ. eigenvalues --   -0.60715  -0.59996  -0.59811  -0.59109  -0.58751
 Alpha  occ. eigenvalues --   -0.58411  -0.57947  -0.57558  -0.57424  -0.56860
 Alpha  occ. eigenvalues --   -0.56005  -0.55453  -0.54754  -0.54458  -0.53685
 Alpha  occ. eigenvalues --   -0.53466  -0.53393  -0.52827  -0.52732  -0.52459
 Alpha  occ. eigenvalues --   -0.52106  -0.51591  -0.50975  -0.49971  -0.49430
 Alpha  occ. eigenvalues --   -0.49234  -0.49194  -0.48940  -0.48602  -0.48128
 Alpha  occ. eigenvalues --   -0.47838  -0.47577  -0.47060  -0.46587  -0.46141
 Alpha  occ. eigenvalues --   -0.45966  -0.45707  -0.45343  -0.44823  -0.44490
 Alpha  occ. eigenvalues --   -0.43003  -0.42926  -0.41958  -0.41481  -0.41405
 Alpha  occ. eigenvalues --   -0.41256  -0.39330  -0.38916  -0.38371  -0.38078
 Alpha  occ. eigenvalues --   -0.37772  -0.37073  -0.36639  -0.36014  -0.34895
 Alpha  occ. eigenvalues --   -0.34608  -0.33605  -0.32358  -0.32343  -0.31674
 Alpha  occ. eigenvalues --   -0.30788
 Alpha virt. eigenvalues --   -0.10826  -0.09887  -0.09482  -0.09072  -0.07762
 Alpha virt. eigenvalues --   -0.07580  -0.07476  -0.06823  -0.06690  -0.03960
 Alpha virt. eigenvalues --   -0.03139  -0.01998  -0.01600  -0.01336  -0.00982

 Mulliken charges:
               1
     1  N   -0.717447
     2  H    0.323614
     3  H    0.309348
     4  C   -0.088138
     5  H    0.161641
     6  C    0.626505
     7  C   -0.353033
     8  H    0.168359
     9  H    0.173013
    10  O   -0.597134
    11  C    0.578199
    12  N   -0.751913
    13  H    0.343838
    14  H    0.374419
    15  O   -0.502828
    16  N   -0.586430
    17  H    0.349037
    18  C   -0.067743
    19  H    0.187975
    20  C    0.637955
    21  C   -0.393498
    22  H    0.169214
    23  H    0.191764
    24  O   -0.523943
    25  C    0.181476
    26  C   -0.182372
    27  H    0.127128
    28  C   -0.208073
    29  H    0.127935
    30  C   -0.129088
    31  H    0.142680
    32  C   -0.127680
    33  H    0.146381
    34  C   -0.130500
    35  H    0.146768
    36  N   -0.667726
    37  H    0.388662
    38  C   -0.018584
    39  H    0.207241
    40  C    0.612344
    41  C   -0.390019
    42  H    0.198525
    43  H    0.194912
    44  O   -0.599205
    45  C    0.637788
    46  N   -0.732823
    47  H    0.364363
    48  H    0.362713
    49  O   -0.535482
    50  N   -0.623307
    51  H    0.419062
    52  C   -0.043244
    53  H    0.191512
    54  C    0.577869
    55  C   -0.291418
    56  H    0.160536
    57  H    0.194544
    58  O   -0.442917
    59  C   -0.291096
    60  H    0.186268
    61  H    0.177669
    62  C   -0.165981
    63  H    0.181957
    64  H    0.170317
    65  N   -0.644083
    66  H    0.433819
    67  N   -0.761106
    68  H    0.374819
    69  H    0.382528
    70  N   -0.792566
    71  H    0.363233
    72  H    0.431111
    73  C    0.803124
    74  O   -0.554800
    75  H    0.432015
 Sum of Mulliken charges =   1.00000

 Dipole moment (field-independent basis, Debye):
    X=             -2.9673    Y=             -0.7732    Z=            -13.7137  Tot=             14.0523
 Quadrupole moment (field-independent basis, Debye-Ang):
   XX=           -152.8314   YY=           -201.0148   ZZ=           -138.0874
   XY=              9.8849   XZ=              8.5253   YZ=             46.8283

 Normal termination of Gaussian 16 at Tue Jun  7 03:23:53 2022.
