 Gaussian 16, Revision C.01,
 Gaussian 16:  ES64L-G16RevC.01  3-Jul-2019

 -------------------------------------------------------------------
 # B3LYP/6-31G* guess=read geom=check nosymm integral(ultrafinegrid)
 -------------------------------------------------------------------

 ------------------------------------------------------
 Candidate Structure: Conf:433 Charge calc in gas phase
 ------------------------------------------------------
 Structure from the checkpoint file:  "conf-433.chk"
 Charge =  1 Multiplicity = 1

                          Input orientation:
 ---------------------------------------------------------------------
 Center     Atomic      Atomic             Coordinates (Angstroms)
 Number     Number       Type             X           Y           Z
 ---------------------------------------------------------------------
      1          7           0       -3.053382    2.240362    3.539155
      2          1           0       -4.046217    2.197399    3.314986
      3          1           0       -2.923115    2.881862    4.316880
      4          6           0       -2.577745    0.897017    3.873075
      5          1           0       -1.611782    1.008198    4.383813
      6          6           0       -2.249868    0.112290    2.587644
      7          6           0       -3.486483    0.060988    4.792819
      8          1           0       -3.009271   -0.902684    5.001189
      9          1           0       -3.605862    0.578018    5.753676
     10          8           0       -2.093785   -1.119171    2.625847
     11          6           0       -4.859425   -0.186416    4.170063
     12          7           0       -5.721632   -0.916309    4.923147
     13          1           0       -6.667853   -1.043070    4.588977
     14          1           0       -5.505567   -1.199932    5.867906
     15          8           0       -5.159848    0.239081    3.054535
     16          7           0       -2.086459    0.883381    1.493618
     17          1           0       -2.302847    1.867576    1.657920
     18          6           0       -1.753566    0.405664    0.161974
     19          1           0       -1.684852   -0.683068    0.245702
     20          6           0       -0.332917    0.794256   -0.320502
     21          6           0       -2.839804    0.744202   -0.894912
     22          1           0       -3.382188    1.642367   -0.576857
     23          1           0       -2.324222    0.980981   -1.828471
     24          8           0       -0.022256    0.608547   -1.489409
     25          6           0       -3.799550   -0.405875   -1.124867
     26          6           0       -3.623277   -1.245977   -2.234658
     27          1           0       -2.832048   -1.023755   -2.946853
     28          6           0       -4.835239   -0.695415   -0.222029
     29          1           0       -4.995020   -0.063507    0.647713
     30          6           0       -4.458115   -2.349146   -2.443460
     31          1           0       -4.336745   -2.957957   -3.337171
     32          6           0       -5.664039   -1.804719   -0.421167
     33          1           0       -6.466173   -2.006563    0.283491
     34          6           0       -5.479537   -2.637587   -1.530675
     35          1           0       -6.142953   -3.481872   -1.697786
     36          7           0        0.526918    1.223218    0.647859
     37          1           0        0.195789    1.179710    1.606208
     38          6           0        1.967081    0.999714    0.517378
     39          1           0        2.150362    0.675592   -0.507282
     40          6           0        2.273232   -0.131638    1.522288
     41          6           0        2.787961    2.263537    0.799277
     42          1           0        2.742600    2.522050    1.865027
     43          1           0        2.350201    3.102553    0.244771
     44          8           0        1.798052   -0.075435    2.659510
     45          6           0        4.242238    2.061183    0.366565
     46          7           0        5.067036    3.122541    0.567788
     47          1           0        6.020245    3.056681    0.236828
     48          1           0        4.730100    4.020489    0.881975
     49          8           0        4.633903    1.005132   -0.121205
     50          7           0        2.960667   -1.197050    1.047440
     51          1           0        3.569748   -1.051346    0.244446
     52          6           0        3.251271   -2.343957    1.893598
     53          1           0        3.316177   -2.013841    2.936217
     54          6           0        4.600942   -2.911141    1.467634
     55          6           0        2.168672   -3.453055    1.787930
     56          1           0        2.085728   -3.730551    0.727383
     57          1           0        2.534799   -4.334925    2.328813
     58          8           0        5.164769   -2.639202    0.432723
     59          6           0        0.801045   -3.039184    2.349290
     60          1           0        0.904349   -2.787307    3.411019
     61          1           0        0.434418   -2.132007    1.863760
     62          6           0       -0.270210   -4.133257    2.238872
     63          1           0        0.086591   -5.075289    2.670976
     64          1           0       -1.164225   -3.842376    2.794412
     65          7           0       -0.687675   -4.431512    0.856650
     66          1           0       -0.034672   -4.945700    0.280824
     67          7           0       -2.642854   -3.154711    0.837991
     68          1           0       -3.533914   -2.954579    0.393873
     69          1           0       -2.335683   -2.464024    1.541586
     70          7           0       -2.149351   -4.533485   -0.943049
     71          1           0       -2.840107   -4.057745   -1.513273
     72          1           0       -1.671844   -5.332113   -1.333230
     73          6           0       -1.818429   -4.023678    0.260503
     74          8           0        5.074804   -3.789108    2.374660
     75          1           0        5.925444   -4.123120    2.029722
 ---------------------------------------------------------------------

 SCF Done:  E(RB3LYP) =  -1917.40510688     A.U. after    1 cycles

 Alpha  occ. eigenvalues --  -19.28221 -19.22642 -19.22534 -19.21371 -19.20008
 Alpha  occ. eigenvalues --  -19.19936 -19.19048 -14.50484 -14.49829 -14.47916
 Alpha  occ. eigenvalues --  -14.45888 -14.45323 -14.44076 -14.43970 -14.43125
 Alpha  occ. eigenvalues --  -14.41708 -10.46090 -10.40660 -10.39189 -10.38951
 Alpha  occ. eigenvalues --  -10.37254 -10.36935 -10.36814 -10.34170 -10.32946
 Alpha  occ. eigenvalues --  -10.32736 -10.32637 -10.31340 -10.29290 -10.29033
 Alpha  occ. eigenvalues --  -10.28961 -10.28708 -10.28636 -10.28498 -10.28357
 Alpha  occ. eigenvalues --  -10.28270 -10.27884 -10.27873 -10.27806  -1.19189
 Alpha  occ. eigenvalues --   -1.14506  -1.13844  -1.12874  -1.12338  -1.11503
 Alpha  occ. eigenvalues --   -1.10751  -1.10310  -1.04135  -1.03275  -1.01944
 Alpha  occ. eigenvalues --   -1.00833  -1.00494  -1.00048  -0.98525  -0.97862
 Alpha  occ. eigenvalues --   -0.94869  -0.90068  -0.88244  -0.86589  -0.85654
 Alpha  occ. eigenvalues --   -0.84911  -0.83648  -0.82801  -0.79364  -0.76988
 Alpha  occ. eigenvalues --   -0.76688  -0.75975  -0.73604  -0.72005  -0.71061
 Alpha  occ. eigenvalues --   -0.69942  -0.69647  -0.68715  -0.67859  -0.67706
 Alpha  occ. eigenvalues --   -0.66898  -0.66523  -0.66432  -0.65370  -0.64068
 Alpha  occ. eigenvalues --   -0.63650  -0.62488  -0.62368  -0.61725  -0.61237
 Alpha  occ. eigenvalues --   -0.60207  -0.59885  -0.59140  -0.58186  -0.57689
 Alpha  occ. eigenvalues --   -0.57198  -0.56488  -0.56282  -0.56216  -0.55988
 Alpha  occ. eigenvalues --   -0.55499  -0.54784  -0.54637  -0.54365  -0.53592
 Alpha  occ. eigenvalues --   -0.53038  -0.52920  -0.52371  -0.51844  -0.51342
 Alpha  occ. eigenvalues --   -0.51226  -0.51073  -0.50820  -0.50358  -0.50047
 Alpha  occ. eigenvalues --   -0.49835  -0.49084  -0.48769  -0.48371  -0.47822
 Alpha  occ. eigenvalues --   -0.47659  -0.46628  -0.46397  -0.46018  -0.45892
 Alpha  occ. eigenvalues --   -0.45319  -0.45196  -0.44949  -0.44339  -0.43988
 Alpha  occ. eigenvalues --   -0.43505  -0.42999  -0.42813  -0.42451  -0.40522
 Alpha  occ. eigenvalues --   -0.40279  -0.38881  -0.37728  -0.37347  -0.36480
 Alpha  occ. eigenvalues --   -0.36375  -0.35380  -0.35177  -0.34722  -0.34446
 Alpha  occ. eigenvalues --   -0.34308  -0.34002  -0.33951  -0.33308  -0.32756
 Alpha  occ. eigenvalues --   -0.32071
 Alpha virt. eigenvalues --   -0.10625  -0.09828  -0.09677  -0.07900  -0.07798
 Alpha virt. eigenvalues --   -0.07461  -0.07073  -0.06197  -0.05364  -0.04492
 Alpha virt. eigenvalues --   -0.01906  -0.01607  -0.00932  -0.00564  -0.00281

 Mulliken charges:
               1
     1  N   -0.759399
     2  H    0.341705
     3  H    0.324417
     4  C   -0.072117
     5  H    0.189715
     6  C    0.655487
     7  C   -0.380543
     8  H    0.194495
     9  H    0.173327
    10  O   -0.587945
    11  C    0.616438
    12  N   -0.744693
    13  H    0.355864
    14  H    0.352627
    15  O   -0.523905
    16  N   -0.621361
    17  H    0.375826
    18  C   -0.040275
    19  H    0.178844
    20  C    0.587767
    21  C   -0.366347
    22  H    0.167262
    23  H    0.203208
    24  O   -0.507007
    25  C    0.144020
    26  C   -0.183434
    27  H    0.162272
    28  C   -0.201135
    29  H    0.192473
    30  C   -0.182775
    31  H    0.152490
    32  C   -0.163423
    33  H    0.154312
    34  C   -0.145117
    35  H    0.154394
    36  N   -0.605498
    37  H    0.348348
    38  C   -0.045745
    39  H    0.204718
    40  C    0.606527
    41  C   -0.388249
    42  H    0.184164
    43  H    0.188106
    44  O   -0.550868
    45  C    0.617769
    46  N   -0.748986
    47  H    0.357005
    48  H    0.347054
    49  O   -0.511724
    50  N   -0.608733
    51  H    0.389148
    52  C   -0.031131
    53  H    0.202211
    54  C    0.574849
    55  C   -0.278160
    56  H    0.134593
    57  H    0.167165
    58  O   -0.443725
    59  C   -0.254943
    60  H    0.175682
    61  H    0.171122
    62  C   -0.178537
    63  H    0.179616
    64  H    0.196120
    65  N   -0.598797
    66  H    0.354420
    67  N   -0.806261
    68  H    0.380638
    69  H    0.442594
    70  N   -0.777976
    71  H    0.380554
    72  H    0.368229
    73  C    0.799043
    74  O   -0.564339
    75  H    0.426534
 Sum of Mulliken charges =   1.00000

 Dipole moment (field-independent basis, Debye):
    X=             -7.7055    Y=             -9.5830    Z=             10.0832  Tot=             15.9022
 Quadrupole moment (field-independent basis, Debye-Ang):
   XX=           -145.8488   YY=           -127.7579   ZZ=           -170.6146
   XY=             29.0267   XZ=            -21.4399   YZ=              7.0840

 Normal termination of Gaussian 16 at Tue Jun  7 03:23:58 2022.
