 Gaussian 16, Revision C.01,
 Gaussian 16:  ES64L-G16RevC.01  3-Jul-2019

 -------------------------------------------------------------------
 # B3LYP/6-31G* guess=read geom=check nosymm integral(ultrafinegrid)
 -------------------------------------------------------------------

 -----------------------------------------------------
 Candidate Structure: Conf:34 Charge calc in gas phase
 -----------------------------------------------------
 Structure from the checkpoint file:  "conf-34.chk"
 Charge =  1 Multiplicity = 1

                          Input orientation:
 ---------------------------------------------------------------------
 Center     Atomic      Atomic             Coordinates (Angstroms)
 Number     Number       Type             X           Y           Z
 ---------------------------------------------------------------------
      1          7           0       -5.557803    2.379123    3.616485
      2          1           0       -6.416026    2.114994    3.133406
      3          1           0       -5.328269    1.576813    4.208673
      4          6           0       -4.473802    2.524505    2.646239
      5          1           0       -4.853237    3.096147    1.789916
      6          6           0       -3.914290    1.180470    2.139211
      7          6           0       -3.302405    3.308670    3.296313
      8          1           0       -3.129086    2.902214    4.299947
      9          1           0       -2.382925    3.168361    2.724444
     10          8           0       -4.050579    0.150826    2.785031
     11          6           0       -3.586567    4.797639    3.373913
     12          7           0       -4.713014    5.133798    4.014841
     13          1           0       -4.992146    6.104781    4.067488
     14          1           0       -5.356188    4.383976    4.281243
     15          8           0       -2.814714    5.628972    2.852943
     16          7           0       -3.229202    1.279267    0.965453
     17          1           0       -3.060443    2.195735    0.570964
     18          6           0       -2.413345    0.217174    0.417330
     19          1           0       -2.432235   -0.599956    1.144974
     20          6           0       -0.975015    0.735959    0.232610
     21          6           0       -2.960026   -0.295001   -0.949375
     22          1           0       -2.864788    0.514030   -1.683675
     23          1           0       -2.303033   -1.101430   -1.294404
     24          8           0       -0.714547    1.948464    0.177884
     25          6           0       -4.393938   -0.772039   -0.877056
     26          6           0       -4.710844   -1.996524   -0.273012
     27          1           0       -3.917355   -2.615887    0.139904
     28          6           0       -5.433581    0.001669   -1.406534
     29          1           0       -5.202279    0.948281   -1.890661
     30          6           0       -6.032226   -2.434982   -0.199262
     31          1           0       -6.258498   -3.388651    0.269380
     32          6           0       -6.758133   -0.434717   -1.337993
     33          1           0       -7.550875    0.174149   -1.764751
     34          6           0       -7.060787   -1.654510   -0.732160
     35          1           0       -8.089820   -1.999232   -0.681185
     36          7           0       -0.063578   -0.239822    0.068387
     37          1           0       -0.295056   -1.209003    0.292169
     38          6           0        1.317754   -0.019604   -0.312217
     39          1           0        1.873398    0.437709    0.519334
     40          6           0        1.391310    0.890358   -1.558216
     41          6           0        1.974849   -1.367548   -0.703675
     42          1           0        3.028389   -1.184767   -0.937902
     43          1           0        1.490111   -1.719071   -1.622530
     44          8           0        0.589647    0.796447   -2.474647
     45          6           0        1.804539   -2.469528    0.342034
     46          7           0        2.932277   -3.115474    0.724722
     47          1           0        2.840149   -3.907841    1.347566
     48          1           0        3.828153   -2.951916    0.290592
     49          8           0        0.696521   -2.757524    0.795578
     50          7           0        2.455700    1.743648   -1.569944
     51          1           0        3.099874    1.745832   -0.790991
     52          6           0        2.746338    2.597134   -2.706776
     53          1           0        2.063557    2.270217   -3.500729
     54          6           0        4.164735    2.413600   -3.250081
     55          6           0        2.486554    4.083088   -2.391078
     56          1           0        3.100787    4.358538   -1.520679
     57          1           0        2.850541    4.683462   -3.230347
     58          8           0        4.676872    3.166923   -4.043836
     59          6           0        1.006827    4.382351   -2.103019
     60          1           0        0.440886    4.425828   -3.041551
     61          1           0        0.564442    3.577457   -1.505901
     62          6           0        0.882638    5.711423   -1.353011
     63          1           0        1.384458    5.645072   -0.381616
     64          1           0        1.376632    6.512143   -1.913616
     65          7           0       -0.494042    6.171423   -1.104597
     66          1           0       -0.887993    6.836503   -1.756629
     67          7           0       -0.890318    4.959512    0.855013
     68          1           0       -1.398754    4.962218    1.746408
     69          1           0       -0.556655    4.064384    0.500518
     70          7           0       -2.166960    6.823400    0.370261
     71          1           0       -2.667514    6.643311    1.243567
     72          1           0       -2.144390    7.775208    0.031467
     73          6           0       -1.176790    5.975619    0.035914
     74          8           0        4.785729    1.315750   -2.759156
     75          1           0        5.662389    1.287315   -3.190024
 ---------------------------------------------------------------------

 SCF Done:  E(RB3LYP) =  -1917.40881204     A.U. after    1 cycles

 Alpha  occ. eigenvalues --  -19.29025 -19.23457 -19.22919 -19.22100 -19.21214
 Alpha  occ. eigenvalues --  -19.20824 -19.20259 -14.50405 -14.49137 -14.48196
 Alpha  occ. eigenvalues --  -14.46089 -14.45729 -14.45500 -14.44957 -14.44659
 Alpha  occ. eigenvalues --  -14.42004 -10.45855 -10.41245 -10.40319 -10.39115
 Alpha  occ. eigenvalues --  -10.38514 -10.38323 -10.37209 -10.34622 -10.34182
 Alpha  occ. eigenvalues --  -10.33524 -10.32898 -10.31972 -10.30351 -10.30013
 Alpha  occ. eigenvalues --  -10.29082 -10.29016 -10.26986 -10.25903 -10.25007
 Alpha  occ. eigenvalues --  -10.24849 -10.24797 -10.24695 -10.24629  -1.19752
 Alpha  occ. eigenvalues --   -1.14629  -1.14025  -1.13784  -1.12975  -1.12649
 Alpha  occ. eigenvalues --   -1.11977  -1.10710  -1.04073  -1.02622  -1.02186
 Alpha  occ. eigenvalues --   -1.01744  -1.01511  -1.01363  -1.00162  -0.98691
 Alpha  occ. eigenvalues --   -0.91602  -0.90829  -0.88999  -0.87061  -0.85582
 Alpha  occ. eigenvalues --   -0.85173  -0.80981  -0.80209  -0.79918  -0.77501
 Alpha  occ. eigenvalues --   -0.75850  -0.75626  -0.72729  -0.71919  -0.71487
 Alpha  occ. eigenvalues --   -0.70315  -0.69446  -0.69072  -0.68443  -0.67702
 Alpha  occ. eigenvalues --   -0.67467  -0.67086  -0.66171  -0.64879  -0.64382
 Alpha  occ. eigenvalues --   -0.63606  -0.63025  -0.62467  -0.62388  -0.61692
 Alpha  occ. eigenvalues --   -0.61298  -0.60026  -0.59279  -0.58635  -0.57537
 Alpha  occ. eigenvalues --   -0.57195  -0.57065  -0.56904  -0.56558  -0.56202
 Alpha  occ. eigenvalues --   -0.55961  -0.55065  -0.54685  -0.54013  -0.53476
 Alpha  occ. eigenvalues --   -0.52984  -0.52604  -0.51977  -0.51921  -0.51573
 Alpha  occ. eigenvalues --   -0.50994  -0.50870  -0.50467  -0.50154  -0.49769
 Alpha  occ. eigenvalues --   -0.49336  -0.48722  -0.48459  -0.48328  -0.48027
 Alpha  occ. eigenvalues --   -0.47780  -0.47748  -0.47551  -0.46746  -0.46522
 Alpha  occ. eigenvalues --   -0.46118  -0.45121  -0.44801  -0.44398  -0.44150
 Alpha  occ. eigenvalues --   -0.43457  -0.41544  -0.40804  -0.40750  -0.40283
 Alpha  occ. eigenvalues --   -0.39867  -0.39004  -0.37952  -0.37842  -0.37574
 Alpha  occ. eigenvalues --   -0.36720  -0.36423  -0.35991  -0.35659  -0.35437
 Alpha  occ. eigenvalues --   -0.34421  -0.34058  -0.33878  -0.33397  -0.30776
 Alpha  occ. eigenvalues --   -0.30258
 Alpha virt. eigenvalues --   -0.11024  -0.09159  -0.08450  -0.08226  -0.07840
 Alpha virt. eigenvalues --   -0.06199  -0.06036  -0.05870  -0.05663  -0.05555
 Alpha virt. eigenvalues --   -0.02730  -0.02198  -0.01356  -0.01112  -0.00446

 Mulliken charges:
               1
     1  N   -0.730204
     2  H    0.330398
     3  H    0.338615
     4  C   -0.099749
     5  H    0.157604
     6  C    0.605651
     7  C   -0.359103
     8  H    0.201172
     9  H    0.165670
    10  O   -0.502956
    11  C    0.598225
    12  N   -0.713532
    13  H    0.352109
    14  H    0.393799
    15  O   -0.576178
    16  N   -0.583456
    17  H    0.324486
    18  C   -0.087483
    19  H    0.204060
    20  C    0.657780
    21  C   -0.363070
    22  H    0.159211
    23  H    0.171685
    24  O   -0.588980
    25  C    0.191029
    26  C   -0.170553
    27  H    0.131835
    28  C   -0.189163
    29  H    0.114267
    30  C   -0.126253
    31  H    0.143225
    32  C   -0.131374
    33  H    0.134619
    34  C   -0.129692
    35  H    0.141204
    36  N   -0.622302
    37  H    0.389381
    38  C   -0.022898
    39  H    0.156530
    40  C    0.642019
    41  C   -0.407674
    42  H    0.165437
    43  H    0.219187
    44  O   -0.517365
    45  C    0.622947
    46  N   -0.738409
    47  H    0.363986
    48  H    0.352755
    49  O   -0.514702
    50  N   -0.607606
    51  H    0.334543
    52  C   -0.070692
    53  H    0.228429
    54  C    0.592706
    55  C   -0.273788
    56  H    0.139327
    57  H    0.191816
    58  O   -0.444041
    59  C   -0.286887
    60  H    0.163971
    61  H    0.187207
    62  C   -0.165545
    63  H    0.183785
    64  H    0.182035
    65  N   -0.594558
    66  H    0.357334
    67  N   -0.803668
    68  H    0.407894
    69  H    0.414227
    70  N   -0.770544
    71  H    0.409098
    72  H    0.361065
    73  C    0.758030
    74  O   -0.573292
    75  H    0.425362
 Sum of Mulliken charges =   1.00000

 Dipole moment (field-independent basis, Debye):
    X=             -1.8851    Y=             17.6646    Z=              2.0933  Tot=             17.8878
 Quadrupole moment (field-independent basis, Debye-Ang):
   XX=           -136.1996   YY=            -83.7986   ZZ=           -216.3758
   XY=            -58.2896   XZ=            -20.0713   YZ=              6.5583

 Normal termination of Gaussian 16 at Tue Jun  7 03:23:56 2022.
