 Gaussian 16, Revision C.01,
 Gaussian 16:  ES64L-G16RevC.01  3-Jul-2019

 -------------------------------------------------------------------
 # B3LYP/6-31G* guess=read geom=check nosymm integral(ultrafinegrid)
 -------------------------------------------------------------------

 ------------------------------------------------------
 Candidate Structure: Conf:102 Charge calc in gas phase
 ------------------------------------------------------
 Structure from the checkpoint file:  "conf-102.chk"
 Charge =  1 Multiplicity = 1

                          Input orientation:
 ---------------------------------------------------------------------
 Center     Atomic      Atomic             Coordinates (Angstroms)
 Number     Number       Type             X           Y           Z
 ---------------------------------------------------------------------
      1          7           0       -3.389244    4.141019    1.677262
      2          1           0       -4.156648    3.976139    1.020552
      3          1           0       -3.697108    4.912934    2.284231
      4          6           0       -3.329135    2.968213    2.596034
      5          1           0       -2.462055    3.131881    3.248146
      6          6           0       -3.097391    1.712533    1.733284
      7          6           0       -4.583129    2.798962    3.466491
      8          1           0       -5.449100    2.622928    2.815848
      9          1           0       -4.483397    1.895992    4.079428
     10          8           0       -4.007146    0.941526    1.446623
     11          6           0       -4.854860    4.019242    4.345543
     12          7           0       -5.542871    3.775248    5.486040
     13          1           0       -5.803057    4.558691    6.070518
     14          1           0       -5.868964    2.854761    5.740707
     15          8           0       -4.487408    5.156211    4.038329
     16          7           0       -1.830653    1.601477    1.256190
     17          1           0       -1.098521    2.201815    1.613906
     18          6           0       -1.387603    0.581863    0.319975
     19          1           0       -1.541215   -0.411636    0.758037
     20          6           0        0.108673    0.833536    0.102355
     21          6           0       -2.147487    0.635930   -1.049008
     22          1           0       -3.177628    0.917603   -0.819463
     23          1           0       -1.710581    1.424366   -1.671488
     24          8           0        0.634430    1.920754    0.399173
     25          6           0       -2.147115   -0.692882   -1.776698
     26          6           0       -1.305258   -0.934535   -2.872469
     27          1           0       -0.632622   -0.152378   -3.215644
     28          6           0       -3.006477   -1.715309   -1.342877
     29          1           0       -3.670843   -1.529416   -0.501494
     30          6           0       -1.326272   -2.173872   -3.520350
     31          1           0       -0.677308   -2.344896   -4.375178
     32          6           0       -3.024502   -2.950442   -1.989091
     33          1           0       -3.700103   -3.729243   -1.646471
     34          6           0       -2.183679   -3.182893   -3.081054
     35          1           0       -2.202309   -4.143216   -3.588521
     36          7           0        0.813395   -0.183235   -0.429368
     37          1           0        0.301251   -0.965505   -0.823353
     38          6           0        2.206730   -0.002027   -0.811523
     39          1           0        2.741588    0.332468    0.083785
     40          6           0        2.303064    1.099276   -1.893383
     41          6           0        2.808316   -1.346359   -1.303965
     42          1           0        2.712200   -1.428092   -2.393160
     43          1           0        2.254945   -2.172378   -0.851299
     44          8           0        1.403851    1.300870   -2.701883
     45          6           0        4.257543   -1.535954   -0.839128
     46          7           0        5.200903   -0.757718   -1.467834
     47          1           0        6.163590   -0.971034   -1.234365
     48          1           0        5.039581   -0.347515   -2.379547
     49          8           0        4.532042   -2.271815    0.091830
     50          7           0        3.462736    1.810133   -1.875376
     51          1           0        4.168965    1.573137   -1.189105
     52          6           0        3.703517    2.932408   -2.767816
     53          1           0        2.972095    2.824484   -3.579788
     54          6           0        5.079079    2.866278   -3.433491
     55          6           0        3.483020    4.281009   -2.054582
     56          1           0        3.996416    4.238190   -1.083879
     57          1           0        3.970082    5.072353   -2.631916
     58          8           0        5.697078    3.829107   -3.817652
     59          6           0        1.988921    4.599824   -1.860191
     60          1           0        1.584854    5.021004   -2.789379
     61          1           0        1.423561    3.684596   -1.660777
     62          6           0        1.773737    5.596125   -0.711766
     63          1           0        1.913549    5.107828    0.258590
     64          1           0        2.505691    6.408452   -0.764256
     65          7           0        0.455215    6.244773   -0.711656
     66          1           0        0.359880    7.078315   -1.276803
     67          7           0       -0.789668    4.561138    0.358376
     68          1           0       -1.692387    4.325652    0.823995
     69          1           0       -0.119855    3.807532    0.199783
     70          7           0       -1.767763    6.578558   -0.174925
     71          1           0       -2.603300    6.233249    0.279587
     72          1           0       -1.640864    7.581106   -0.156978
     73          6           0       -0.677128    5.770159   -0.170215
     74          8           0        5.522633    1.593289   -3.601161
     75          1           0        6.369183    1.665076   -4.084472
 ---------------------------------------------------------------------

 SCF Done:  E(RB3LYP) =  -1917.39448582     A.U. after    1 cycles

 Alpha  occ. eigenvalues --  -19.30176 -19.24135 -19.23795 -19.21959 -19.21365
 Alpha  occ. eigenvalues --  -19.21075 -19.19616 -14.50941 -14.50114 -14.48309
 Alpha  occ. eigenvalues --  -14.47099 -14.46780 -14.45847 -14.45033 -14.43983
 Alpha  occ. eigenvalues --  -14.43925 -10.46409 -10.42353 -10.40220 -10.39174
 Alpha  occ. eigenvalues --  -10.38793 -10.38463 -10.37560 -10.35149 -10.34496
 Alpha  occ. eigenvalues --  -10.34473 -10.33647 -10.33376 -10.29679 -10.29616
 Alpha  occ. eigenvalues --  -10.29514 -10.29228 -10.27980 -10.27227 -10.26038
 Alpha  occ. eigenvalues --  -10.25947 -10.25925 -10.25894 -10.25830  -1.20805
 Alpha  occ. eigenvalues --   -1.15461  -1.14893  -1.13807  -1.13162  -1.12686
 Alpha  occ. eigenvalues --   -1.11832  -1.11587  -1.04715  -1.03726  -1.03390
 Alpha  occ. eigenvalues --   -1.02607  -1.02202  -1.00180  -0.99675  -0.98542
 Alpha  occ. eigenvalues --   -0.92864  -0.91327  -0.89343  -0.87229  -0.85911
 Alpha  occ. eigenvalues --   -0.85695  -0.82109  -0.81348  -0.80735  -0.77725
 Alpha  occ. eigenvalues --   -0.76621  -0.76321  -0.73975  -0.72782  -0.72177
 Alpha  occ. eigenvalues --   -0.71170  -0.69945  -0.68831  -0.68432  -0.68195
 Alpha  occ. eigenvalues --   -0.67801  -0.67260  -0.66740  -0.65262  -0.64471
 Alpha  occ. eigenvalues --   -0.63943  -0.63526  -0.63039  -0.62264  -0.61808
 Alpha  occ. eigenvalues --   -0.60738  -0.60417  -0.59453  -0.59164  -0.58532
 Alpha  occ. eigenvalues --   -0.57995  -0.57838  -0.57730  -0.57053  -0.56356
 Alpha  occ. eigenvalues --   -0.55876  -0.55798  -0.55530  -0.54555  -0.54157
 Alpha  occ. eigenvalues --   -0.53768  -0.52993  -0.52294  -0.52193  -0.52083
 Alpha  occ. eigenvalues --   -0.51547  -0.51075  -0.50691  -0.50476  -0.49975
 Alpha  occ. eigenvalues --   -0.49892  -0.49608  -0.49234  -0.48754  -0.48745
 Alpha  occ. eigenvalues --   -0.48208  -0.48042  -0.47632  -0.47221  -0.46908
 Alpha  occ. eigenvalues --   -0.46332  -0.45655  -0.45320  -0.45087  -0.44769
 Alpha  occ. eigenvalues --   -0.44477  -0.42774  -0.42050  -0.41255  -0.41100
 Alpha  occ. eigenvalues --   -0.40891  -0.39363  -0.38718  -0.38433  -0.38024
 Alpha  occ. eigenvalues --   -0.37451  -0.36177  -0.35985  -0.35779  -0.35271
 Alpha  occ. eigenvalues --   -0.34983  -0.34790  -0.34356  -0.33072  -0.32074
 Alpha  occ. eigenvalues --   -0.31592
 Alpha virt. eigenvalues --   -0.10812  -0.09860  -0.09503  -0.08410  -0.07880
 Alpha virt. eigenvalues --   -0.07453  -0.07277  -0.06603  -0.06320  -0.06242
 Alpha virt. eigenvalues --   -0.03306  -0.02729  -0.02069  -0.01312  -0.00335

 Mulliken charges:
               1
     1  N   -0.802843
     2  H    0.322518
     3  H    0.363542
     4  C   -0.080838
     5  H    0.164043
     6  C    0.639903
     7  C   -0.378790
     8  H    0.204647
     9  H    0.175136
    10  O   -0.515973
    11  C    0.621929
    12  N   -0.739602
    13  H    0.360590
    14  H    0.355500
    15  O   -0.530074
    16  N   -0.650057
    17  H    0.345677
    18  C   -0.013900
    19  H    0.191995
    20  C    0.629765
    21  C   -0.369479
    22  H    0.198619
    23  H    0.162812
    24  O   -0.582422
    25  C    0.119404
    26  C   -0.224979
    27  H    0.170966
    28  C   -0.184061
    29  H    0.156518
    30  C   -0.135301
    31  H    0.141934
    32  C   -0.128407
    33  H    0.148718
    34  C   -0.126176
    35  H    0.147922
    36  N   -0.600828
    37  H    0.365437
    38  C   -0.029119
    39  H    0.190190
    40  C    0.635023
    41  C   -0.401297
    42  H    0.183308
    43  H    0.202634
    44  O   -0.529762
    45  C    0.558081
    46  N   -0.766306
    47  H    0.351616
    48  H    0.362478
    49  O   -0.463068
    50  N   -0.606731
    51  H    0.349497
    52  C   -0.068676
    53  H    0.226159
    54  C    0.589664
    55  C   -0.272238
    56  H    0.150268
    57  H    0.192166
    58  O   -0.437301
    59  C   -0.289100
    60  H    0.159128
    61  H    0.187836
    62  C   -0.174764
    63  H    0.191393
    64  H    0.186343
    65  N   -0.600641
    66  H    0.359770
    67  N   -0.839201
    68  H    0.431666
    69  H    0.415911
    70  N   -0.766019
    71  H    0.381446
    72  H    0.367646
    73  C    0.795440
    74  O   -0.576975
    75  H    0.429692
 Sum of Mulliken charges =   1.00000

 Dipole moment (field-independent basis, Debye):
    X=             -1.5267    Y=             18.6358    Z=              0.0985  Tot=             18.6985
 Quadrupole moment (field-independent basis, Debye-Ang):
   XX=           -153.1691   YY=           -108.6359   ZZ=           -181.6823
   XY=            -14.8124   XZ=            -57.5452   YZ=             14.0424

 Normal termination of Gaussian 16 at Tue Jun  7 03:23:39 2022.
