 Gaussian 16, Revision C.01,
 Gaussian 16:  ES64L-G16RevC.01  3-Jul-2019

 -------------------------------------------------------------------
 # B3LYP/6-31G* guess=read geom=check nosymm integral(ultrafinegrid)
 -------------------------------------------------------------------

 ------------------------------------------------------
 Candidate Structure: Conf:772 Charge calc in gas phase
 ------------------------------------------------------
 Structure from the checkpoint file:  "conf-772.chk"
 Charge =  1 Multiplicity = 1

                          Input orientation:
 ---------------------------------------------------------------------
 Center     Atomic      Atomic             Coordinates (Angstroms)
 Number     Number       Type             X           Y           Z
 ---------------------------------------------------------------------
      1          7           0       -2.909067    3.922436    1.391949
      2          1           0       -3.741115    3.562621    0.917413
      3          1           0       -3.179236    4.834960    1.778697
      4          6           0       -2.631653    3.085499    2.581643
      5          1           0       -1.748346    3.526532    3.062062
      6          6           0       -2.231672    1.644847    2.221785
      7          6           0       -3.771994    3.073988    3.614002
      8          1           0       -4.698873    2.723017    3.137464
      9          1           0       -3.530740    2.348114    4.396156
     10          8           0       -2.195666    0.765942    3.073029
     11          6           0       -4.025814    4.464504    4.194901
     12          7           0       -4.616526    4.489174    5.413994
     13          1           0       -4.834069    5.385209    5.829356
     14          1           0       -4.822440    3.650935    5.936631
     15          8           0       -3.732583    5.496926    3.588911
     16          7           0       -1.911534    1.437795    0.913023
     17          1           0       -1.923565    2.226473    0.282929
     18          6           0       -1.399332    0.177115    0.431875
     19          1           0       -1.661984   -0.562121    1.196722
     20          6           0        0.143822    0.244947    0.358759
     21          6           0       -2.044641   -0.211200   -0.929612
     22          1           0       -1.583860    0.385783   -1.725761
     23          1           0       -1.799995   -1.259535   -1.146079
     24          8           0        0.781071    1.186936    0.834334
     25          6           0       -3.549697   -0.043085   -0.947793
     26          6           0       -4.377714   -0.893860   -0.202899
     27          1           0       -3.938733   -1.697240    0.384917
     28          6           0       -4.142340    0.976765   -1.702467
     29          1           0       -3.514454    1.630499   -2.305122
     30          6           0       -5.761949   -0.725144   -0.207983
     31          1           0       -6.388824   -1.397207    0.371370
     32          6           0       -5.528771    1.148316   -1.711598
     33          1           0       -5.972259    1.937118   -2.313404
     34          6           0       -6.342136    0.298266   -0.961623
     35          1           0       -7.420973    0.424738   -0.971280
     36          7           0        0.768229   -0.814596   -0.224956
     37          1           0        0.197418   -1.424824   -0.794156
     38          6           0        2.173495   -0.706284   -0.591116
     39          1           0        2.727937   -0.428247    0.308318
     40          6           0        2.341079    0.457273   -1.613851
     41          6           0        2.697450   -2.065358   -1.087305
     42          1           0        2.437374   -2.229645   -2.141516
     43          1           0        2.208684   -2.861283   -0.510673
     44          8           0        1.373254    0.960717   -2.180280
     45          6           0        4.214025   -2.211107   -0.914553
     46          7           0        4.707508   -3.440975   -1.190894
     47          1           0        5.701150   -3.596437   -1.085450
     48          1           0        4.123924   -4.221383   -1.453562
     49          8           0        4.934650   -1.285023   -0.545127
     50          7           0        3.610430    0.905583   -1.761053
     51          1           0        4.351169    0.406955   -1.267435
     52          6           0        3.858149    2.203891   -2.374740
     53          1           0        3.215277    2.272510   -3.262845
     54          6           0        5.298175    2.330654   -2.858640
     55          6           0        3.456456    3.315505   -1.380772
     56          1           0        2.474064    3.009847   -1.013433
     57          1           0        4.149362    3.283630   -0.528874
     58          8           0        5.921214    3.369318   -2.877480
     59          6           0        3.376554    4.750271   -1.915724
     60          1           0        4.380865    5.119087   -2.140484
     61          1           0        2.808532    4.783895   -2.855242
     62          6           0        2.722554    5.710161   -0.906791
     63          1           0        3.141200    5.573251    0.096829
     64          1           0        2.934693    6.747871   -1.177034
     65          7           0        1.249152    5.621903   -0.836355
     66          1           0        0.749337    6.256472   -1.444810
     67          7           0        0.974766    4.015358    0.858850
     68          1           0        0.619643    3.058662    0.989724
     69          1           0        1.950586    4.121300    1.096605
     70          7           0       -0.818641    4.645885   -0.444836
     71          1           0       -1.527415    4.349035    0.272111
     72          1           0       -1.175863    5.133983   -1.255035
     73          6           0        0.484181    4.757314   -0.147934
     74          8           0        5.800303    1.159330   -3.296440
     75          1           0        6.709984    1.343419   -3.601724
 ---------------------------------------------------------------------

 SCF Done:  E(RB3LYP) =  -1917.39817176     A.U. after    2 cycles

 Alpha  occ. eigenvalues --  -19.28258 -19.22688 -19.22407 -19.21605 -19.20400
 Alpha  occ. eigenvalues --  -19.20203 -19.19813 -14.50537 -14.48028 -14.47999
 Alpha  occ. eigenvalues --  -14.46018 -14.45421 -14.44887 -14.44248 -14.44066
 Alpha  occ. eigenvalues --  -14.43342 -10.45650 -10.40929 -10.39405 -10.38963
 Alpha  occ. eigenvalues --  -10.37894 -10.37378 -10.37353 -10.34866 -10.33175
 Alpha  occ. eigenvalues --  -10.33063 -10.32865 -10.32359 -10.30621 -10.28943
 Alpha  occ. eigenvalues --  -10.28738 -10.28410 -10.28392 -10.27793 -10.26800
 Alpha  occ. eigenvalues --  -10.26610 -10.26531 -10.26436 -10.26314  -1.19304
 Alpha  occ. eigenvalues --   -1.14283  -1.13892  -1.13320  -1.12145  -1.11914
 Alpha  occ. eigenvalues --   -1.11723  -1.10244  -1.03577  -1.02581  -1.02047
 Alpha  occ. eigenvalues --   -1.01437  -1.01250  -1.00223  -0.99385  -0.98892
 Alpha  occ. eigenvalues --   -0.93278  -0.90219  -0.88908  -0.86948  -0.85154
 Alpha  occ. eigenvalues --   -0.84930  -0.82113  -0.81922  -0.79828  -0.77373
 Alpha  occ. eigenvalues --   -0.76328  -0.75779  -0.73605  -0.72057  -0.71303
 Alpha  occ. eigenvalues --   -0.70056  -0.68623  -0.68425  -0.67856  -0.67484
 Alpha  occ. eigenvalues --   -0.67091  -0.66666  -0.66494  -0.66032  -0.63743
 Alpha  occ. eigenvalues --   -0.63395  -0.63039  -0.62703  -0.61679  -0.61467
 Alpha  occ. eigenvalues --   -0.59974  -0.59846  -0.59194  -0.58601  -0.57912
 Alpha  occ. eigenvalues --   -0.57368  -0.56860  -0.56591  -0.56366  -0.55529
 Alpha  occ. eigenvalues --   -0.55077  -0.54647  -0.54235  -0.53675  -0.53611
 Alpha  occ. eigenvalues --   -0.53333  -0.52756  -0.52287  -0.52058  -0.51697
 Alpha  occ. eigenvalues --   -0.51664  -0.51081  -0.50852  -0.50491  -0.49735
 Alpha  occ. eigenvalues --   -0.49513  -0.49296  -0.48993  -0.48762  -0.48481
 Alpha  occ. eigenvalues --   -0.47715  -0.47283  -0.46921  -0.46717  -0.46048
 Alpha  occ. eigenvalues --   -0.45804  -0.45352  -0.44700  -0.44308  -0.43819
 Alpha  occ. eigenvalues --   -0.43315  -0.43114  -0.41974  -0.41525  -0.40393
 Alpha  occ. eigenvalues --   -0.39872  -0.39095  -0.37426  -0.37000  -0.36655
 Alpha  occ. eigenvalues --   -0.36323  -0.36013  -0.35604  -0.35360  -0.34568
 Alpha  occ. eigenvalues --   -0.34204  -0.33932  -0.33626  -0.33403  -0.32607
 Alpha  occ. eigenvalues --   -0.32001
 Alpha virt. eigenvalues --   -0.10642  -0.09111  -0.08175  -0.07810  -0.07507
 Alpha virt. eigenvalues --   -0.06997  -0.06664  -0.06265  -0.06072  -0.05613
 Alpha virt. eigenvalues --   -0.03261  -0.02056  -0.01665  -0.01168  -0.00235

 Mulliken charges:
               1
     1  N   -0.816851
     2  H    0.323335
     3  H    0.370606
     4  C   -0.071064
     5  H    0.191909
     6  C    0.625031
     7  C   -0.389100
     8  H    0.183997
     9  H    0.200032
    10  O   -0.517434
    11  C    0.621850
    12  N   -0.741853
    13  H    0.358556
    14  H    0.353977
    15  O   -0.527153
    16  N   -0.605939
    17  H    0.337857
    18  C   -0.067491
    19  H    0.215501
    20  C    0.671399
    21  C   -0.414228
    22  H    0.181287
    23  H    0.155181
    24  O   -0.554691
    25  C    0.195744
    26  C   -0.176841
    27  H    0.134761
    28  C   -0.203462
    29  H    0.121011
    30  C   -0.129602
    31  H    0.148669
    32  C   -0.133160
    33  H    0.141077
    34  C   -0.130315
    35  H    0.147699
    36  N   -0.609639
    37  H    0.344094
    38  C   -0.040165
    39  H    0.208356
    40  C    0.620037
    41  C   -0.420709
    42  H    0.195763
    43  H    0.189529
    44  O   -0.547570
    45  C    0.634802
    46  N   -0.740858
    47  H    0.364423
    48  H    0.354183
    49  O   -0.519384
    50  N   -0.625398
    51  H    0.388067
    52  C   -0.035122
    53  H    0.204736
    54  C    0.575897
    55  C   -0.286482
    56  H    0.165864
    57  H    0.148505
    58  O   -0.454358
    59  C   -0.261854
    60  H    0.203896
    61  H    0.148459
    62  C   -0.182717
    63  H    0.174436
    64  H    0.191934
    65  N   -0.591202
    66  H    0.354556
    67  N   -0.757968
    68  H    0.412849
    69  H    0.363097
    70  N   -0.802181
    71  H    0.436491
    72  H    0.350012
    73  C    0.770527
    74  O   -0.550597
    75  H    0.425397
 Sum of Mulliken charges =   1.00000

 Dipole moment (field-independent basis, Debye):
    X=              0.2230    Y=              9.7820    Z=             -1.5969  Tot=              9.9140
 Quadrupole moment (field-independent basis, Debye-Ang):
   XX=           -146.9468   YY=           -119.3833   ZZ=           -190.0903
   XY=            -27.4622   XZ=            -37.6718   YZ=             10.2304

 Normal termination of Gaussian 16 at Tue Jun  7 03:34:40 2022.
