 Gaussian 16, Revision C.01,
 Gaussian 16:  ES64L-G16RevC.01  3-Jul-2019

 -------------------------------------------------------------------
 # B3LYP/6-31G* guess=read geom=check nosymm integral(ultrafinegrid)
 -------------------------------------------------------------------

 ------------------------------------------------------
 Candidate Structure: Conf:950 Charge calc in gas phase
 ------------------------------------------------------
 Structure from the checkpoint file:  "conf-950.chk"
 Charge =  1 Multiplicity = 1

                          Input orientation:
 ---------------------------------------------------------------------
 Center     Atomic      Atomic             Coordinates (Angstroms)
 Number     Number       Type             X           Y           Z
 ---------------------------------------------------------------------
      1          7           0       -3.745917   -1.433255    3.644976
      2          1           0       -4.591079   -1.688545    3.135611
      3          1           0       -3.081690   -2.189701    3.472414
      4          6           0       -3.180814   -0.202819    3.087803
      5          1           0       -3.991451    0.531240    2.997305
      6          6           0       -2.555545   -0.439351    1.701422
      7          6           0       -2.093410    0.373672    4.028099
      8          1           0       -1.370674   -0.423119    4.251166
      9          1           0       -1.547519    1.180598    3.532940
     10          8           0       -2.098779   -1.545627    1.390242
     11          6           0       -2.614773    0.968654    5.346778
     12          7           0       -3.499205    0.186635    6.017957
     13          1           0       -3.899528    0.544685    6.873972
     14          1           0       -3.861514   -0.655499    5.576728
     15          8           0       -2.217222    2.055816    5.743283
     16          7           0       -2.492968    0.635547    0.875123
     17          1           0       -2.964935    1.485868    1.156409
     18          6           0       -2.052545    0.547217   -0.521398
     19          1           0       -2.408477   -0.416747   -0.905528
     20          6           0       -0.505446    0.550165   -0.613321
     21          6           0       -2.651702    1.697134   -1.350288
     22          1           0       -2.186752    2.634775   -1.027551
     23          1           0       -2.335587    1.545457   -2.388690
     24          8           0        0.121037    1.513317   -1.077545
     25          6           0       -4.160738    1.789884   -1.258104
     26          6           0       -4.980747    0.832062   -1.872350
     27          1           0       -4.529649    0.022732   -2.443193
     28          6           0       -4.768846    2.828141   -0.540144
     29          1           0       -4.150062    3.594610   -0.076189
     30          6           0       -6.368839    0.906982   -1.765871
     31          1           0       -6.988595    0.158238   -2.251498
     32          6           0       -6.159767    2.906048   -0.429677
     33          1           0       -6.612270    3.720879    0.128668
     34          6           0       -6.962890    1.944005   -1.041371
     35          1           0       -8.044451    2.003108   -0.960373
     36          7           0        0.078024   -0.580509   -0.160401
     37          1           0       -0.540285   -1.268609    0.274316
     38          6           0        1.525628   -0.701170    0.041541
     39          1           0        1.908276    0.262236    0.391837
     40          6           0        2.253209   -1.035023   -1.284015
     41          6           0        1.839675   -1.763056    1.090145
     42          1           0        1.618463   -2.761304    0.698455
     43          1           0        1.214122   -1.599957    1.976723
     44          8           0        2.733895   -2.131509   -1.526492
     45          6           0        3.311577   -1.663360    1.504965
     46          7           0        3.798959   -2.746967    2.170118
     47          1           0        4.785198   -2.751385    2.393661
     48          1           0        3.318482   -3.634719    2.159062
     49          8           0        3.974316   -0.654631    1.300826
     50          7           0        2.302349    0.029102   -2.146018
     51          1           0        1.769759    0.856639   -1.876985
     52          6           0        2.960680   -0.049807   -3.437773
     53          1           0        3.228792   -1.101407   -3.571570
     54          6           0        4.264340    0.747040   -3.331425
     55          6           0        2.064246    0.398451   -4.602987
     56          1           0        2.630024    0.292439   -5.538616
     57          1           0        1.248426   -0.327616   -4.666676
     58          8           0        4.396993    1.950375   -3.586789
     59          6           0        1.486382    1.828954   -4.481659
     60          1           0        0.397874    1.809922   -4.604630
     61          1           0        1.657984    2.240226   -3.482161
     62          6           0        2.090908    2.775709   -5.527879
     63          1           0        3.179343    2.684850   -5.555099
     64          1           0        1.725789    2.537458   -6.530870
     65          7           0        1.761983    4.188039   -5.284888
     66          1           0        0.869796    4.527266   -5.620533
     67          7           0        3.475094    4.516890   -3.750951
     68          1           0        4.105995    5.156551   -3.288870
     69          1           0        3.704387    3.519452   -3.697728
     70          7           0        2.103996    6.286638   -4.365245
     71          1           0        2.468093    6.870051   -3.626106
     72          1           0        1.467272    6.714758   -5.021064
     73          6           0        2.447083    4.986322   -4.462281
     74          8           0        5.268584   -0.001775   -2.874346
     75          1           0        6.046712    0.573685   -2.740365
 ---------------------------------------------------------------------

 SCF Done:  E(RB3LYP) =  -1917.38005478     A.U. after    1 cycles

 Alpha  occ. eigenvalues --  -19.30984 -19.26411 -19.21274 -19.21127 -19.19786
 Alpha  occ. eigenvalues --  -19.17853 -19.15284 -14.52532 -14.52474 -14.50810
 Alpha  occ. eigenvalues --  -14.45512 -14.44440 -14.44242 -14.42058 -14.40109
 Alpha  occ. eigenvalues --  -14.39131 -10.48530 -10.44104 -10.37816 -10.37493
 Alpha  occ. eigenvalues --  -10.36763 -10.35764 -10.35763 -10.33798 -10.33351
 Alpha  occ. eigenvalues --  -10.32734 -10.31350 -10.30991 -10.30676 -10.30154
 Alpha  occ. eigenvalues --  -10.28004 -10.27523 -10.27208 -10.26520 -10.26391
 Alpha  occ. eigenvalues --  -10.26292 -10.26278 -10.26055 -10.26026  -1.22062
 Alpha  occ. eigenvalues --   -1.16970  -1.13086  -1.12921  -1.12327  -1.11529
 Alpha  occ. eigenvalues --   -1.09676  -1.07113  -1.06441  -1.04670  -1.01908
 Alpha  occ. eigenvalues --   -1.01526  -1.00744  -0.97385  -0.96838  -0.93982
 Alpha  occ. eigenvalues --   -0.93046  -0.91583  -0.88007  -0.86954  -0.85483
 Alpha  occ. eigenvalues --   -0.83101  -0.81758  -0.81536  -0.80989  -0.78538
 Alpha  occ. eigenvalues --   -0.76240  -0.74732  -0.74364  -0.74022  -0.72405
 Alpha  occ. eigenvalues --   -0.71128  -0.69793  -0.68147  -0.67483  -0.66952
 Alpha  occ. eigenvalues --   -0.66492  -0.65967  -0.65655  -0.65127  -0.64740
 Alpha  occ. eigenvalues --   -0.63125  -0.62858  -0.61358  -0.61218  -0.60171
 Alpha  occ. eigenvalues --   -0.59776  -0.59580  -0.58820  -0.58760  -0.58479
 Alpha  occ. eigenvalues --   -0.57986  -0.57467  -0.57455  -0.57167  -0.56849
 Alpha  occ. eigenvalues --   -0.55585  -0.54026  -0.53364  -0.53027  -0.52774
 Alpha  occ. eigenvalues --   -0.52387  -0.52097  -0.51908  -0.51332  -0.51048
 Alpha  occ. eigenvalues --   -0.50563  -0.50214  -0.49887  -0.49326  -0.48955
 Alpha  occ. eigenvalues --   -0.48703  -0.48178  -0.47795  -0.47566  -0.46695
 Alpha  occ. eigenvalues --   -0.46506  -0.46359  -0.45937  -0.45457  -0.45163
 Alpha  occ. eigenvalues --   -0.44785  -0.44231  -0.44073  -0.43797  -0.43283
 Alpha  occ. eigenvalues --   -0.42978  -0.42905  -0.42836  -0.41414  -0.41294
 Alpha  occ. eigenvalues --   -0.41138  -0.40908  -0.40001  -0.37282  -0.36253
 Alpha  occ. eigenvalues --   -0.35540  -0.34063  -0.33698  -0.33361  -0.32723
 Alpha  occ. eigenvalues --   -0.32407  -0.32352  -0.31843  -0.31591  -0.30651
 Alpha  occ. eigenvalues --   -0.29087
 Alpha virt. eigenvalues --   -0.12265  -0.11608  -0.08772  -0.08092  -0.07760
 Alpha virt. eigenvalues --   -0.07595  -0.06577  -0.05149  -0.04869  -0.03832
 Alpha virt. eigenvalues --   -0.03795  -0.02072  -0.01744  -0.01470  -0.00599

 Mulliken charges:
               1
     1  N   -0.717350
     2  H    0.320377
     3  H    0.327911
     4  C   -0.094470
     5  H    0.160952
     6  C    0.612270
     7  C   -0.350537
     8  H    0.172712
     9  H    0.169859
    10  O   -0.550170
    11  C    0.571538
    12  N   -0.746940
    13  H    0.339254
    14  H    0.374668
    15  O   -0.505583
    16  N   -0.597415
    17  H    0.347043
    18  C   -0.050845
    19  H    0.185144
    20  C    0.641810
    21  C   -0.391999
    22  H    0.171074
    23  H    0.159799
    24  O   -0.567622
    25  C    0.171619
    26  C   -0.180603
    27  H    0.128734
    28  C   -0.210885
    29  H    0.129769
    30  C   -0.128118
    31  H    0.146893
    32  C   -0.126531
    33  H    0.147526
    34  C   -0.129332
    35  H    0.148952
    36  N   -0.637622
    37  H    0.390739
    38  C   -0.047177
    39  H    0.201686
    40  C    0.649013
    41  C   -0.406782
    42  H    0.183592
    43  H    0.186002
    44  O   -0.507452
    45  C    0.626716
    46  N   -0.746892
    47  H    0.350476
    48  H    0.344141
    49  O   -0.515218
    50  N   -0.653007
    51  H    0.389330
    52  C   -0.045051
    53  H    0.220416
    54  C    0.612780
    55  C   -0.286314
    56  H    0.161410
    57  H    0.181270
    58  O   -0.525244
    59  C   -0.274166
    60  H    0.162631
    61  H    0.167121
    62  C   -0.191109
    63  H    0.202974
    64  H    0.191280
    65  N   -0.595397
    66  H    0.360878
    67  N   -0.797452
    68  H    0.371332
    69  H    0.458375
    70  N   -0.772220
    71  H    0.383333
    72  H    0.380212
    73  C    0.827751
    74  O   -0.511570
    75  H    0.429711
 Sum of Mulliken charges =   1.00000

 Dipole moment (field-independent basis, Debye):
    X=              3.7321    Y=             14.2060    Z=            -17.9576  Tot=             23.1995
 Quadrupole moment (field-independent basis, Debye-Ang):
   XX=           -145.3659   YY=           -115.0679   ZZ=           -140.7461
   XY=             34.1583   XZ=            -41.2032   YZ=           -104.1633

 Normal termination of Gaussian 16 at Tue Jun  7 03:34:23 2022.
