 Gaussian 16, Revision C.01,
 Gaussian 16:  ES64L-G16RevC.01  3-Jul-2019

 -------------------------------------------------------------------
 # B3LYP/6-31G* guess=read geom=check nosymm integral(ultrafinegrid)
 -------------------------------------------------------------------

 ------------------------------------------------------
 Candidate Structure: Conf:879 Charge calc in gas phase
 ------------------------------------------------------
 Structure from the checkpoint file:  "conf-879.chk"
 Charge =  1 Multiplicity = 1

                          Input orientation:
 ---------------------------------------------------------------------
 Center     Atomic      Atomic             Coordinates (Angstroms)
 Number     Number       Type             X           Y           Z
 ---------------------------------------------------------------------
      1          7           0       -3.681613   -0.144232    4.050648
      2          1           0       -4.658959   -0.427538    4.034467
      3          1           0       -3.132017   -0.987386    3.875351
      4          6           0       -3.407827    0.796731    2.960016
      5          1           0       -4.331913    1.329508    2.708893
      6          6           0       -2.886337    0.061680    1.711529
      7          6           0       -2.377118    1.878502    3.400754
      8          1           0       -2.138921    2.541025    2.564741
      9          1           0       -2.849323    2.470695    4.191718
     10          8           0       -2.248166   -0.991900    1.830769
     11          6           0       -1.054676    1.317022    3.919070
     12          7           0       -1.130912    0.692556    5.115673
     13          1           0       -0.307462    0.225749    5.472817
     14          1           0       -2.046063    0.419056    5.462294
     15          8           0       -0.001977    1.469279    3.291253
     16          7           0       -3.114164    0.646152    0.512002
     17          1           0       -3.730972    1.448130    0.474722
     18          6           0       -2.784492   -0.001757   -0.766249
     19          1           0       -2.932724   -1.078333   -0.619167
     20          6           0       -1.293170    0.223057   -1.129105
     21          6           0       -3.710230    0.507988   -1.884136
     22          1           0       -3.459102    1.552842   -2.096966
     23          1           0       -3.461371   -0.053532   -2.791349
     24          8           0       -0.949807    0.901133   -2.106065
     25          6           0       -5.182364    0.371102   -1.554237
     26          6           0       -5.954580    1.502345   -1.258659
     27          1           0       -5.500965    2.491013   -1.311245
     28          6           0       -5.798866   -0.888045   -1.518109
     29          1           0       -5.220657   -1.778570   -1.756467
     30          6           0       -7.307232    1.381968   -0.928544
     31          1           0       -7.891521    2.271808   -0.711020
     32          6           0       -7.148180   -1.012267   -1.189803
     33          1           0       -7.611003   -1.995104   -1.172950
     34          6           0       -7.906386    0.123242   -0.891358
     35          1           0       -8.958786    0.026069   -0.640723
     36          7           0       -0.433242   -0.354202   -0.270842
     37          1           0       -0.836674   -0.876433    0.507789
     38          6           0        1.005054   -0.163684   -0.327533
     39          1           0        1.183250    0.875772   -0.633372
     40          6           0        1.617105   -1.028431   -1.454310
     41          6           0        1.606473   -0.393889    1.082619
     42          1           0        1.917612   -1.439125    1.198209
     43          1           0        0.831544   -0.191376    1.824671
     44          8           0        0.879122   -1.587135   -2.284387
     45          6           0        2.822577    0.488380    1.360033
     46          7           0        2.778544    1.178008    2.514085
     47          1           0        3.551329    1.798604    2.718787
     48          1           0        1.910596    1.271825    3.040427
     49          8           0        3.784071    0.537636    0.580327
     50          7           0        2.957917   -1.075306   -1.501591
     51          1           0        3.489701   -0.547052   -0.787839
     52          6           0        3.628915   -1.711561   -2.625756
     53          1           0        2.971223   -2.531815   -2.936869
     54          6           0        4.945893   -2.377510   -2.241608
     55          6           0        3.833392   -0.729546   -3.816325
     56          1           0        3.109434    0.082188   -3.690964
     57          1           0        4.825143   -0.273097   -3.742359
     58          8           0        5.790214   -2.674766   -3.056865
     59          6           0        3.678397   -1.328695   -5.223101
     60          1           0        3.864659   -0.526688   -5.948201
     61          1           0        4.444808   -2.092364   -5.393751
     62          6           0        2.299769   -1.964304   -5.506667
     63          1           0        2.175329   -2.151873   -6.579475
     64          1           0        2.216944   -2.944889   -5.031439
     65          7           0        1.160054   -1.192041   -4.992586
     66          1           0        0.941741   -1.367800   -3.998438
     67          7           0        0.950896    0.278195   -6.792898
     68          1           0        0.455781    1.038554   -7.235006
     69          1           0        1.398407   -0.378870   -7.413805
     70          7           0       -0.210806    0.658354   -4.818466
     71          1           0       -0.628052    1.481101   -5.227677
     72          1           0       -0.349404    0.543327   -3.805927
     73          6           0        0.636728   -0.092893   -5.530285
     74          8           0        5.053628   -2.628148   -0.924204
     75          1           0        5.919762   -3.060146   -0.790484
 ---------------------------------------------------------------------

 SCF Done:  E(RB3LYP) =  -1917.41751562     A.U. after    1 cycles

 Alpha  occ. eigenvalues --  -19.28278 -19.22479 -19.22399 -19.21900 -19.21899
 Alpha  occ. eigenvalues --  -19.20587 -19.20150 -14.50117 -14.48283 -14.48061
 Alpha  occ. eigenvalues --  -14.46830 -14.45108 -14.44722 -14.43717 -14.43052
 Alpha  occ. eigenvalues --  -14.41359 -10.45602 -10.40821 -10.38995 -10.38674
 Alpha  occ. eigenvalues --  -10.38588 -10.37980 -10.37604 -10.34080 -10.33487
 Alpha  occ. eigenvalues --  -10.33448 -10.33286 -10.33065 -10.28782 -10.28702
 Alpha  occ. eigenvalues --  -10.28575 -10.28506 -10.28474 -10.27928 -10.26941
 Alpha  occ. eigenvalues --  -10.26743 -10.26693 -10.26633 -10.26427  -1.19220
 Alpha  occ. eigenvalues --   -1.14379  -1.14080  -1.13573  -1.12729  -1.11872
 Alpha  occ. eigenvalues --   -1.11541  -1.10153  -1.03278  -1.03126  -1.02186
 Alpha  occ. eigenvalues --   -1.01915  -1.01848  -0.99570  -0.98270  -0.97836
 Alpha  occ. eigenvalues --   -0.93467  -0.90035  -0.88668  -0.87227  -0.85156
 Alpha  occ. eigenvalues --   -0.84492  -0.82181  -0.81936  -0.80002  -0.77387
 Alpha  occ. eigenvalues --   -0.76114  -0.75966  -0.73276  -0.72082  -0.71325
 Alpha  occ. eigenvalues --   -0.69735  -0.69070  -0.68741  -0.68006  -0.67384
 Alpha  occ. eigenvalues --   -0.66890  -0.66490  -0.66072  -0.65949  -0.63275
 Alpha  occ. eigenvalues --   -0.63035  -0.62810  -0.62622  -0.61998  -0.60939
 Alpha  occ. eigenvalues --   -0.60681  -0.59724  -0.59085  -0.58783  -0.57863
 Alpha  occ. eigenvalues --   -0.57577  -0.57029  -0.56694  -0.56459  -0.55703
 Alpha  occ. eigenvalues --   -0.55144  -0.54871  -0.54639  -0.54025  -0.53464
 Alpha  occ. eigenvalues --   -0.53414  -0.52769  -0.52544  -0.52453  -0.51785
 Alpha  occ. eigenvalues --   -0.51430  -0.50697  -0.50234  -0.49927  -0.49720
 Alpha  occ. eigenvalues --   -0.49217  -0.49169  -0.48697  -0.48065  -0.47908
 Alpha  occ. eigenvalues --   -0.47599  -0.47298  -0.46547  -0.46469  -0.46325
 Alpha  occ. eigenvalues --   -0.45506  -0.45383  -0.44611  -0.44452  -0.44129
 Alpha  occ. eigenvalues --   -0.43793  -0.43377  -0.41818  -0.41683  -0.40717
 Alpha  occ. eigenvalues --   -0.40110  -0.38286  -0.37690  -0.37038  -0.36818
 Alpha  occ. eigenvalues --   -0.36521  -0.35809  -0.35130  -0.35011  -0.34817
 Alpha  occ. eigenvalues --   -0.34415  -0.34185  -0.33950  -0.33542  -0.32801
 Alpha  occ. eigenvalues --   -0.32208
 Alpha virt. eigenvalues --   -0.09429  -0.09155  -0.08369  -0.08155  -0.07978
 Alpha virt. eigenvalues --   -0.07659  -0.07459  -0.06733  -0.06329  -0.05690
 Alpha virt. eigenvalues --   -0.03269  -0.01505  -0.00273   0.00048   0.00279

 Mulliken charges:
               1
     1  N   -0.737020
     2  H    0.327342
     3  H    0.336757
     4  C   -0.081565
     5  H    0.158448
     6  C    0.630240
     7  C   -0.346380
     8  H    0.173667
     9  H    0.189548
    10  O   -0.553334
    11  C    0.584686
    12  N   -0.718489
    13  H    0.344654
    14  H    0.373556
    15  O   -0.532426
    16  N   -0.596532
    17  H    0.345206
    18  C   -0.063597
    19  H    0.194969
    20  C    0.662985
    21  C   -0.394511
    22  H    0.169187
    23  H    0.170599
    24  O   -0.576163
    25  C    0.171893
    26  C   -0.212140
    27  H    0.128391
    28  C   -0.180450
    29  H    0.132427
    30  C   -0.127208
    31  H    0.147068
    32  C   -0.128145
    33  H    0.148547
    34  C   -0.129396
    35  H    0.149893
    36  N   -0.618052
    37  H    0.393256
    38  C   -0.042189
    39  H    0.203039
    40  C    0.620472
    41  C   -0.433140
    42  H    0.197084
    43  H    0.204563
    44  O   -0.579090
    45  C    0.620077
    46  N   -0.756862
    47  H    0.349445
    48  H    0.392832
    49  O   -0.540712
    50  N   -0.613774
    51  H    0.408624
    52  C   -0.049355
    53  H    0.193407
    54  C    0.583851
    55  C   -0.272969
    56  H    0.149229
    57  H    0.183046
    58  O   -0.452108
    59  C   -0.278014
    60  H    0.151939
    61  H    0.194593
    62  C   -0.186942
    63  H    0.163377
    64  H    0.196394
    65  N   -0.623432
    66  H    0.430038
    67  N   -0.757977
    68  H    0.370212
    69  H    0.377360
    70  N   -0.795008
    71  H    0.359458
    72  H    0.432682
    73  C    0.787193
    74  O   -0.552634
    75  H    0.427380
 Sum of Mulliken charges =   1.00000

 Dipole moment (field-independent basis, Debye):
    X=             -4.3537    Y=              0.7223    Z=             -9.8090  Tot=             10.7561
 Quadrupole moment (field-independent basis, Debye-Ang):
   XX=           -165.6338   YY=           -209.3641   ZZ=            -85.5487
   XY=            -14.1899   XZ=            -19.6335   YZ=             -0.5921

 Normal termination of Gaussian 16 at Tue Jun  7 03:34:38 2022.
