 Gaussian 16, Revision C.01,
 Gaussian 16:  ES64L-G16RevC.01  3-Jul-2019

 -------------------------------------------------------------------
 # B3LYP/6-31G* guess=read geom=check nosymm integral(ultrafinegrid)
 -------------------------------------------------------------------

 ------------------------------------------------------
 Candidate Structure: Conf:549 Charge calc in gas phase
 ------------------------------------------------------
 Structure from the checkpoint file:  "conf-549.chk"
 Charge =  1 Multiplicity = 1

                          Input orientation:
 ---------------------------------------------------------------------
 Center     Atomic      Atomic             Coordinates (Angstroms)
 Number     Number       Type             X           Y           Z
 ---------------------------------------------------------------------
      1          7           0       -4.341149    0.821088    4.061325
      2          1           0       -5.122430    1.174457    3.509777
      3          1           0       -4.337509   -0.191049    3.927558
      4          6           0       -3.081260    1.361839    3.541162
      5          1           0       -3.158658    2.455864    3.553387
      6          6           0       -2.810521    0.861245    2.113754
      7          6           0       -1.942904    0.924268    4.473231
      8          1           0       -2.244872    1.122742    5.506594
      9          1           0       -1.817172   -0.162319    4.370546
     10          8           0       -2.638835   -0.331237    1.884638
     11          6           0       -0.611413    1.581599    4.139817
     12          7           0        0.253138    1.703690    5.181336
     13          1           0        1.156493    2.126558    5.018984
     14          1           0        0.008649    1.437739    6.123536
     15          8           0       -0.320445    1.956900    3.002202
     16          7           0       -2.889245    1.802883    1.116225
     17          1           0       -2.743661    2.765801    1.393714
     18          6           0       -2.526039    1.454254   -0.255131
     19          1           0       -2.784488    0.398424   -0.368032
     20          6           0       -1.003020    1.610260   -0.385084
     21          6           0       -3.303480    2.290560   -1.286287
     22          1           0       -3.094781    3.354511   -1.119050
     23          1           0       -2.904700    2.048957   -2.279751
     24          8           0       -0.467812    2.690301   -0.742606
     25          6           0       -4.797121    2.043728   -1.248481
     26          6           0       -5.658703    2.931716   -0.593864
     27          1           0       -5.252821    3.823975   -0.120898
     28          6           0       -5.343582    0.906474   -1.858271
     29          1           0       -4.691044    0.207594   -2.377921
     30          6           0       -7.032904    2.691312   -0.544992
     31          1           0       -7.687071    3.394008   -0.036005
     32          6           0       -6.715593    0.660570   -1.810153
     33          1           0       -7.121930   -0.225268   -2.290119
     34          6           0       -7.564654    1.553208   -1.152537
     35          1           0       -8.633866    1.364754   -1.118161
     36          7           0       -0.283278    0.554628   -0.011814
     37          1           0       -0.728499   -0.337596    0.223993
     38          6           0        1.152442    0.636869    0.217268
     39          1           0        1.337112    1.538332    0.811738
     40          6           0        1.930798    0.709649   -1.109096
     41          6           0        1.626365   -0.581427    1.041574
     42          1           0        1.182486   -0.495874    2.039364
     43          1           0        2.714039   -0.525097    1.156682
     44          8           0        1.738411   -0.082132   -2.024059
     45          6           0        1.171218   -1.924858    0.465211
     46          7           0        2.139194   -2.852188    0.257206
     47          1           0        1.866322   -3.729598   -0.166357
     48          1           0        3.121336   -2.624573    0.283561
     49          8           0       -0.019186   -2.156395    0.271013
     50          7           0        2.866800    1.701899   -1.161604
     51          1           0        2.982699    2.306245   -0.359823
     52          6           0        3.806190    1.846839   -2.263788
     53          1           0        3.817664    0.881710   -2.786026
     54          6           0        5.237277    2.095838   -1.782929
     55          6           0        3.377730    2.949152   -3.256653
     56          1           0        3.149415    3.851177   -2.673008
     57          1           0        4.232744    3.191720   -3.893587
     58          8           0        6.135906    2.440242   -2.512672
     59          6           0        2.161598    2.540574   -4.117403
     60          1           0        2.503270    2.174811   -5.091638
     61          1           0        1.621150    1.703293   -3.661598
     62          6           0        1.178465    3.686141   -4.369574
     63          1           0        1.726857    4.578660   -4.698804
     64          1           0        0.467999    3.410787   -5.159616
     65          7           0        0.445947    4.003428   -3.135872
     66          1           0        0.364501    3.281734   -2.413428
     67          7           0       -0.342522    6.084247   -3.835625
     68          1           0       -0.718774    6.990037   -3.597397
     69          1           0        0.149087    6.010967   -4.712951
     70          7           0       -0.863161    5.265359   -1.719979
     71          1           0       -1.562560    5.984567   -1.605827
     72          1           0       -0.908745    4.435671   -1.113353
     73          6           0       -0.253841    5.112701   -2.906643
     74          8           0        5.398000    1.882094   -0.455651
     75          1           0        6.340726    2.054156   -0.264545
 ---------------------------------------------------------------------

 SCF Done:  E(RB3LYP) =  -1917.39074631     A.U. after    1 cycles

 Alpha  occ. eigenvalues --  -19.29561 -19.23419 -19.23138 -19.21128 -19.19962
 Alpha  occ. eigenvalues --  -19.19414 -19.19324 -14.51466 -14.50046 -14.49352
 Alpha  occ. eigenvalues --  -14.46326 -14.45332 -14.44440 -14.44220 -14.43866
 Alpha  occ. eigenvalues --  -14.39028 -10.46858 -10.41797 -10.39024 -10.38421
 Alpha  occ. eigenvalues --  -10.37592 -10.37468 -10.36110 -10.35341 -10.34026
 Alpha  occ. eigenvalues --  -10.33439 -10.32284 -10.30369 -10.29644 -10.29400
 Alpha  occ. eigenvalues --  -10.29231 -10.28364 -10.27190 -10.26980 -10.26006
 Alpha  occ. eigenvalues --  -10.25761 -10.25709 -10.25578 -10.25449  -1.20291
 Alpha  occ. eigenvalues --   -1.15496  -1.14034  -1.13012  -1.11623  -1.11336
 Alpha  occ. eigenvalues --   -1.11242  -1.11057  -1.04767  -1.03509  -1.02724
 Alpha  occ. eigenvalues --   -1.02258  -1.00706  -0.98804  -0.98556  -0.96374
 Alpha  occ. eigenvalues --   -0.92522  -0.91054  -0.88537  -0.86825  -0.85771
 Alpha  occ. eigenvalues --   -0.83764  -0.81238  -0.81100  -0.80094  -0.77634
 Alpha  occ. eigenvalues --   -0.76864  -0.74806  -0.73329  -0.72711  -0.71982
 Alpha  occ. eigenvalues --   -0.70096  -0.69518  -0.68883  -0.67875  -0.67515
 Alpha  occ. eigenvalues --   -0.67266  -0.66732  -0.65925  -0.64957  -0.63947
 Alpha  occ. eigenvalues --   -0.63509  -0.63032  -0.62517  -0.61971  -0.61318
 Alpha  occ. eigenvalues --   -0.60059  -0.59523  -0.59101  -0.58696  -0.58122
 Alpha  occ. eigenvalues --   -0.57689  -0.57432  -0.57249  -0.56482  -0.56362
 Alpha  occ. eigenvalues --   -0.55400  -0.54385  -0.53984  -0.53779  -0.53476
 Alpha  occ. eigenvalues --   -0.52886  -0.52635  -0.52244  -0.51798  -0.50931
 Alpha  occ. eigenvalues --   -0.50603  -0.50453  -0.49741  -0.49284  -0.48965
 Alpha  occ. eigenvalues --   -0.48724  -0.48531  -0.48150  -0.47882  -0.47758
 Alpha  occ. eigenvalues --   -0.47476  -0.47375  -0.46507  -0.45995  -0.45695
 Alpha  occ. eigenvalues --   -0.45231  -0.45186  -0.45144  -0.44370  -0.43760
 Alpha  occ. eigenvalues --   -0.42805  -0.42414  -0.42009  -0.41292  -0.41023
 Alpha  occ. eigenvalues --   -0.40851  -0.39249  -0.38163  -0.37968  -0.37077
 Alpha  occ. eigenvalues --   -0.35337  -0.35115  -0.34929  -0.34638  -0.34182
 Alpha  occ. eigenvalues --   -0.33859  -0.33343  -0.32982  -0.31667  -0.31254
 Alpha  occ. eigenvalues --   -0.30502
 Alpha virt. eigenvalues --   -0.10743  -0.09189  -0.08804  -0.07730  -0.07221
 Alpha virt. eigenvalues --   -0.07041  -0.06799  -0.05946  -0.05447  -0.04822
 Alpha virt. eigenvalues --   -0.03747  -0.02390  -0.01679  -0.01048  -0.00383

 Mulliken charges:
               1
     1  N   -0.702025
     2  H    0.312406
     3  H    0.319304
     4  C   -0.060051
     5  H    0.136346
     6  C    0.638307
     7  C   -0.371102
     8  H    0.175294
     9  H    0.202191
    10  O   -0.528279
    11  C    0.616421
    12  N   -0.746357
    13  H    0.344778
    14  H    0.353449
    15  O   -0.547885
    16  N   -0.594586
    17  H    0.327108
    18  C   -0.064184
    19  H    0.208579
    20  C    0.667782
    21  C   -0.372585
    22  H    0.119625
    23  H    0.156880
    24  O   -0.624106
    25  C    0.187046
    26  C   -0.181675
    27  H    0.106403
    28  C   -0.179013
    29  H    0.132118
    30  C   -0.130232
    31  H    0.140547
    32  C   -0.126814
    33  H    0.147048
    34  C   -0.128142
    35  H    0.146673
    36  N   -0.586815
    37  H    0.415385
    38  C   -0.056703
    39  H    0.179281
    40  C    0.629932
    41  C   -0.402524
    42  H    0.214327
    43  H    0.158279
    44  O   -0.516138
    45  C    0.634121
    46  N   -0.738384
    47  H    0.359654
    48  H    0.345612
    49  O   -0.508028
    50  N   -0.604728
    51  H    0.344372
    52  C   -0.068371
    53  H    0.223752
    54  C    0.585400
    55  C   -0.271644
    56  H    0.143211
    57  H    0.196077
    58  O   -0.440796
    59  C   -0.326312
    60  H    0.180398
    61  H    0.203609
    62  C   -0.157386
    63  H    0.164657
    64  H    0.187596
    65  N   -0.626710
    66  H    0.408700
    67  N   -0.764422
    68  H    0.377329
    69  H    0.384469
    70  N   -0.787109
    71  H    0.359844
    72  H    0.420130
    73  C    0.805791
    74  O   -0.574184
    75  H    0.427060
 Sum of Mulliken charges =   1.00000

 Dipole moment (field-independent basis, Debye):
    X=              2.2166    Y=             18.6375    Z=             -3.8665  Tot=             19.1630
 Quadrupole moment (field-independent basis, Debye-Ang):
   XX=           -175.3574   YY=           -113.7483   ZZ=           -152.1318
   XY=            -19.0359   XZ=             12.0283   YZ=            -44.9402

 Normal termination of Gaussian 16 at Tue Jun  7 03:23:54 2022.
