 Gaussian 16, Revision C.01,
 Gaussian 16:  ES64L-G16RevC.01  3-Jul-2019

 -------------------------------------------------------------------
 # B3LYP/6-31G* guess=read geom=check nosymm integral(ultrafinegrid)
 -------------------------------------------------------------------

 ------------------------------------------------------
 Candidate Structure: Conf:472 Charge calc in gas phase
 ------------------------------------------------------
 Structure from the checkpoint file:  "conf-472.chk"
 Charge =  1 Multiplicity = 1

                          Input orientation:
 ---------------------------------------------------------------------
 Center     Atomic      Atomic             Coordinates (Angstroms)
 Number     Number       Type             X           Y           Z
 ---------------------------------------------------------------------
      1          7           0       -5.444871    2.608211    2.892964
      2          1           0       -5.773145    1.646778    2.948598
      3          1           0       -5.579174    3.074051    3.785552
      4          6           0       -4.058943    2.629215    2.470008
      5          1           0       -3.839089    3.609051    2.022891
      6          6           0       -3.877511    1.539787    1.402752
      7          6           0       -2.981972    2.410764    3.593203
      8          1           0       -2.002518    2.740331    3.232411
      9          1           0       -3.247045    3.047757    4.445949
     10          8           0       -4.633671    0.581481    1.326209
     11          6           0       -2.816648    0.948857    4.001037
     12          7           0       -3.547167    0.542591    5.077838
     13          1           0       -3.548650   -0.441676    5.309175
     14          1           0       -4.229262    1.138091    5.521791
     15          8           0       -2.078580    0.188991    3.382388
     16          7           0       -2.780422    1.685648    0.592230
     17          1           0       -2.093316    2.394123    0.834628
     18          6           0       -2.185799    0.512814   -0.015379
     19          1           0       -2.670881   -0.374286    0.401206
     20          6           0       -0.676298    0.525797    0.276092
     21          6           0       -2.306736    0.512144   -1.565922
     22          1           0       -1.778213    1.408655   -1.914159
     23          1           0       -1.746668   -0.358022   -1.929646
     24          8           0       -0.081788    1.597262    0.437447
     25          6           0       -3.701812    0.490261   -2.145369
     26          6           0       -4.410930   -0.719578   -2.264794
     27          1           0       -3.971749   -1.637558   -1.878851
     28          6           0       -4.308168    1.666856   -2.610490
     29          1           0       -3.787743    2.615361   -2.497084
     30          6           0       -5.687013   -0.746769   -2.832895
     31          1           0       -6.228950   -1.686498   -2.897361
     32          6           0       -5.586307    1.640532   -3.179019
     33          1           0       -6.042336    2.564831   -3.521991
     34          6           0       -6.276320    0.434765   -3.295803
     35          1           0       -7.270682    0.413518   -3.731676
     36          7           0       -0.061270   -0.672878    0.170513
     37          1           0       -0.590004   -1.536533    0.323064
     38          6           0        1.390171   -0.805795    0.325091
     39          1           0        1.715156   -0.108082    1.105004
     40          6           0        2.058289   -0.421602   -1.026920
     41          6           0        1.793185   -2.252011    0.681586
     42          1           0        2.807983   -2.233703    1.090862
     43          1           0        1.838395   -2.820809   -0.253252
     44          8           0        2.389834   -1.265149   -1.855927
     45          6           0        0.817647   -2.981022    1.597559
     46          7           0        1.321840   -3.481984    2.749367
     47          1           0        0.700242   -3.985760    3.367934
     48          1           0        2.283714   -3.358823    3.026094
     49          8           0       -0.363735   -3.136447    1.277151
     50          7           0        2.192125    0.915642   -1.229123
     51          1           0        1.840385    1.558975   -0.524330
     52          6           0        2.785696    1.450140   -2.437233
     53          1           0        3.370380    0.645556   -2.892478
     54          6           0        3.721905    2.596650   -2.060972
     55          6           0        1.743189    1.961976   -3.468976
     56          1           0        1.223030    2.828371   -3.036942
     57          1           0        2.285280    2.321119   -4.351692
     58          8           0        3.728977    3.161552   -0.992935
     59          6           0        0.707994    0.896260   -3.853748
     60          1           0        1.203833    0.024763   -4.297089
     61          1           0        0.213154    0.540612   -2.946760
     62          6           0       -0.362084    1.463904   -4.802462
     63          1           0       -0.689604    2.448180   -4.456965
     64          1           0        0.026014    1.622050   -5.816308
     65          7           0       -1.595661    0.655197   -4.873326
     66          1           0       -2.378079    0.955995   -4.297382
     67          7           0       -0.829563   -0.973272   -6.353470
     68          1           0       -0.817883   -1.941620   -6.639146
     69          1           0       -0.024022   -0.416218   -6.594647
     70          7           0       -2.828697   -1.269534   -5.221066
     71          1           0       -3.072878   -2.052143   -5.810749
     72          1           0       -3.465095   -1.036286   -4.460300
     73          6           0       -1.742179   -0.525701   -5.474460
     74          8           0        4.520075    2.932053   -3.097201
     75          1           0        5.071392    3.681868   -2.800659
 ---------------------------------------------------------------------

 SCF Done:  E(RB3LYP) =  -1917.36609010     A.U. after    1 cycles

 Alpha  occ. eigenvalues --  -19.28269 -19.22615 -19.20681 -19.20044 -19.19514
 Alpha  occ. eigenvalues --  -19.18482 -19.17292 -14.52934 -14.52436 -14.52036
 Alpha  occ. eigenvalues --  -14.44154 -14.43969 -14.43942 -14.42558 -14.42120
 Alpha  occ. eigenvalues --  -14.37357 -10.49001 -10.40672 -10.37432 -10.37288
 Alpha  occ. eigenvalues --  -10.37129 -10.36718 -10.35328 -10.35212 -10.32994
 Alpha  occ. eigenvalues --  -10.32365 -10.31541 -10.30485 -10.30109 -10.29877
 Alpha  occ. eigenvalues --  -10.29649 -10.29335 -10.29124 -10.29036 -10.28986
 Alpha  occ. eigenvalues --  -10.28847 -10.28622 -10.27952 -10.26372  -1.19166
 Alpha  occ. eigenvalues --   -1.17365  -1.12646  -1.11725  -1.11276  -1.10428
 Alpha  occ. eigenvalues --   -1.10290  -1.08997  -1.06585  -1.05472  -1.01223
 Alpha  occ. eigenvalues --   -1.00644  -0.99610  -0.98556  -0.96695  -0.95550
 Alpha  occ. eigenvalues --   -0.94913  -0.91679  -0.88633  -0.87113  -0.85799
 Alpha  occ. eigenvalues --   -0.84348  -0.83163  -0.81576  -0.81458  -0.78360
 Alpha  occ. eigenvalues --   -0.76612  -0.75205  -0.74761  -0.72493  -0.72133
 Alpha  occ. eigenvalues --   -0.70568  -0.70320  -0.69859  -0.67811  -0.67328
 Alpha  occ. eigenvalues --   -0.66671  -0.66521  -0.65912  -0.65538  -0.65238
 Alpha  occ. eigenvalues --   -0.64758  -0.62167  -0.61967  -0.61259  -0.60663
 Alpha  occ. eigenvalues --   -0.60366  -0.59568  -0.59333  -0.58846  -0.58256
 Alpha  occ. eigenvalues --   -0.57192  -0.56891  -0.56707  -0.56579  -0.55437
 Alpha  occ. eigenvalues --   -0.54909  -0.54638  -0.53918  -0.53647  -0.53161
 Alpha  occ. eigenvalues --   -0.52629  -0.52489  -0.51955  -0.51730  -0.51564
 Alpha  occ. eigenvalues --   -0.50841  -0.50597  -0.50202  -0.50038  -0.49152
 Alpha  occ. eigenvalues --   -0.48615  -0.48138  -0.47839  -0.47817  -0.47586
 Alpha  occ. eigenvalues --   -0.46976  -0.46306  -0.46044  -0.45881  -0.45506
 Alpha  occ. eigenvalues --   -0.45142  -0.44912  -0.44669  -0.43996  -0.43813
 Alpha  occ. eigenvalues --   -0.43627  -0.43535  -0.43075  -0.42982  -0.42021
 Alpha  occ. eigenvalues --   -0.41103  -0.40340  -0.36481  -0.36005  -0.35392
 Alpha  occ. eigenvalues --   -0.35311  -0.34839  -0.34634  -0.33984  -0.33518
 Alpha  occ. eigenvalues --   -0.33113  -0.32749  -0.32326  -0.32168  -0.30972
 Alpha  occ. eigenvalues --   -0.29232
 Alpha virt. eigenvalues --   -0.12828  -0.11021  -0.10505  -0.08726  -0.07793
 Alpha virt. eigenvalues --   -0.06948  -0.05871  -0.05555  -0.05150  -0.04613
 Alpha virt. eigenvalues --   -0.04126  -0.03654  -0.02411  -0.00813  -0.00459

 Mulliken charges:
               1
     1  N   -0.718670
     2  H    0.326065
     3  H    0.294824
     4  C   -0.066462
     5  H    0.156385
     6  C    0.631865
     7  C   -0.378179
     8  H    0.174230
     9  H    0.152457
    10  O   -0.518996
    11  C    0.607330
    12  N   -0.736271
    13  H    0.348825
    14  H    0.336235
    15  O   -0.522020
    16  N   -0.603516
    17  H    0.348588
    18  C   -0.048423
    19  H    0.205707
    20  C    0.637763
    21  C   -0.366926
    22  H    0.138972
    23  H    0.153010
    24  O   -0.558525
    25  C    0.159192
    26  C   -0.221748
    27  H    0.154514
    28  C   -0.202862
    29  H    0.146419
    30  C   -0.134749
    31  H    0.158869
    32  C   -0.120683
    33  H    0.159749
    34  C   -0.126588
    35  H    0.160433
    36  N   -0.634184
    37  H    0.386975
    38  C   -0.047845
    39  H    0.189287
    40  C    0.620022
    41  C   -0.397642
    42  H    0.162688
    43  H    0.219480
    44  O   -0.532715
    45  C    0.625155
    46  N   -0.740506
    47  H    0.359311
    48  H    0.352014
    49  O   -0.530245
    50  N   -0.606390
    51  H    0.378393
    52  C   -0.047932
    53  H    0.206816
    54  C    0.585146
    55  C   -0.281103
    56  H    0.157977
    57  H    0.172853
    58  O   -0.444512
    59  C   -0.282123
    60  H    0.163555
    61  H    0.184870
    62  C   -0.180381
    63  H    0.193761
    64  H    0.176360
    65  N   -0.605142
    66  H    0.377317
    67  N   -0.755106
    68  H    0.384391
    69  H    0.388271
    70  N   -0.778732
    71  H    0.377378
    72  H    0.395114
    73  C    0.820849
    74  O   -0.566210
    75  H    0.425974
 Sum of Mulliken charges =   1.00000

 Dipole moment (field-independent basis, Debye):
    X=             -5.5648    Y=             -0.6755    Z=            -15.7868  Tot=             16.7525
 Quadrupole moment (field-independent basis, Debye-Ang):
   XX=           -176.3972   YY=           -193.9104   ZZ=            -58.9511
   XY=              1.0223   XZ=             19.2750   YZ=              2.4429

 Normal termination of Gaussian 16 at Tue Jun  7 03:23:58 2022.
