 Gaussian 16, Revision C.01,
 Gaussian 16:  ES64L-G16RevC.01  3-Jul-2019

 -------------------------------------------------------------------
 # B3LYP/6-31G* guess=read geom=check nosymm integral(ultrafinegrid)
 -------------------------------------------------------------------

 ------------------------------------------------------
 Candidate Structure: Conf:123 Charge calc in gas phase
 ------------------------------------------------------
 Structure from the checkpoint file:  "conf-123.chk"
 Charge =  1 Multiplicity = 1

                          Input orientation:
 ---------------------------------------------------------------------
 Center     Atomic      Atomic             Coordinates (Angstroms)
 Number     Number       Type             X           Y           Z
 ---------------------------------------------------------------------
      1          7           0       -6.092642    2.215160    2.829219
      2          1           0       -6.198234    3.003488    2.193191
      3          1           0       -6.550138    1.426599    2.368504
      4          6           0       -4.678166    1.880929    2.970055
      5          1           0       -4.101462    2.808340    3.062313
      6          6           0       -4.147550    1.062301    1.780017
      7          6           0       -4.470005    1.108548    4.288641
      8          1           0       -5.196147    0.290365    4.355813
      9          1           0       -3.467376    0.664176    4.322184
     10          8           0       -4.896268    0.407489    1.053199
     11          6           0       -4.566304    2.080784    5.467399
     12          7           0       -5.341721    1.673882    6.513962
     13          1           0       -5.494868    2.342567    7.257816
     14          1           0       -6.034844    0.949940    6.394129
     15          8           0       -3.928554    3.124305    5.478369
     16          7           0       -2.799466    1.088054    1.594220
     17          1           0       -2.196766    1.691012    2.144757
     18          6           0       -2.139669    0.312058    0.568378
     19          1           0       -2.447760   -0.737471    0.653863
     20          6           0       -0.626865    0.421567    0.797678
     21          6           0       -2.509202    0.755262   -0.891839
     22          1           0       -1.806056    0.272939   -1.582727
     23          1           0       -3.503110    0.350744   -1.092499
     24          8           0       -0.135682    1.359172    1.419324
     25          6           0       -2.532891    2.253303   -1.113775
     26          6           0       -3.761425    2.914664   -1.275142
     27          1           0       -4.680044    2.335703   -1.222486
     28          6           0       -1.359441    3.029802   -1.134803
     29          1           0       -0.397655    2.557459   -0.958073
     30          6           0       -3.820068    4.303448   -1.449529
     31          1           0       -4.785706    4.793211   -1.547620
     32          6           0       -1.414869    4.418333   -1.304732
     33          1           0       -0.497075    5.000299   -1.280311
     34          6           0       -2.646026    5.060825   -1.467999
     35          1           0       -2.689801    6.139993   -1.583062
     36          7           0        0.110365   -0.570157    0.216140
     37          1           0       -0.367507   -1.181199   -0.440471
     38          6           0        1.508394   -0.357442   -0.131895
     39          1           0        1.771976    0.659425    0.171026
     40          6           0        1.588828   -0.475748   -1.674579
     41          6           0        2.452972   -1.328244    0.612964
     42          1           0        2.486324   -2.308148    0.118813
     43          1           0        2.039377   -1.496148    1.613624
     44          8           0        0.644561   -0.959609   -2.309673
     45          6           0        3.873209   -0.772212    0.736210
     46          7           0        4.679163   -1.418432    1.610367
     47          1           0        5.628513   -1.089023    1.724164
     48          1           0        4.359168   -2.178633    2.191773
     49          8           0        4.260569    0.199697    0.086228
     50          7           0        2.705690    0.011457   -2.257705
     51          1           0        3.495289    0.257048   -1.650480
     52          6           0        2.897772   -0.091124   -3.693848
     53          1           0        2.285099   -0.926271   -4.051779
     54          6           0        4.360033   -0.420924   -3.978289
     55          6           0        2.461540    1.185084   -4.462288
     56          1           0        3.140815    2.011157   -4.212918
     57          1           0        2.577745    0.983751   -5.533370
     58          8           0        5.230490   -0.496249   -3.144529
     59          6           0        1.016088    1.586177   -4.138436
     60          1           0        0.349222    0.725195   -4.245760
     61          1           0        0.963114    1.894165   -3.087485
     62          6           0        0.508658    2.734646   -5.015359
     63          1           0        1.200438    3.586030   -4.995689
     64          1           0        0.416187    2.397882   -6.052679
     65          7           0       -0.816954    3.177106   -4.546819
     66          1           0       -0.944575    3.239873   -3.536348
     67          7           0       -1.778663    3.627998   -6.623682
     68          1           0       -2.598823    3.608402   -7.212278
     69          1           0       -0.882745    3.725528   -7.076024
     70          7           0       -3.091809    3.575746   -4.722839
     71          1           0       -3.821155    4.097736   -5.188242
     72          1           0       -3.224060    3.407456   -3.728196
     73          6           0       -1.880378    3.463552   -5.292453
     74          8           0        4.564488   -0.611499   -5.299889
     75          1           0        5.512794   -0.816280   -5.412619
 ---------------------------------------------------------------------

 SCF Done:  E(RB3LYP) =  -1917.37728597     A.U. after    1 cycles

 Alpha  occ. eigenvalues --  -19.28648 -19.23018 -19.21291 -19.20851 -19.20486
 Alpha  occ. eigenvalues --  -19.18328 -19.15656 -14.53070 -14.52555 -14.52042
 Alpha  occ. eigenvalues --  -14.44610 -14.44482 -14.44340 -14.42897 -14.40301
 Alpha  occ. eigenvalues --  -14.36894 -10.49070 -10.41131 -10.38176 -10.38146
 Alpha  occ. eigenvalues --  -10.37693 -10.36761 -10.34939 -10.33568 -10.33475
 Alpha  occ. eigenvalues --  -10.32538 -10.32198 -10.30607 -10.30488 -10.30022
 Alpha  occ. eigenvalues --  -10.29985 -10.29900 -10.29722 -10.29666 -10.29432
 Alpha  occ. eigenvalues --  -10.29093 -10.28354 -10.28167 -10.25088  -1.19587
 Alpha  occ. eigenvalues --   -1.17433  -1.13403  -1.12479  -1.12101  -1.10727
 Alpha  occ. eigenvalues --   -1.10024  -1.07567  -1.06775  -1.05488  -1.01811
 Alpha  occ. eigenvalues --   -1.01249  -0.99597  -0.99131  -0.96158  -0.94951
 Alpha  occ. eigenvalues --   -0.94330  -0.92027  -0.88729  -0.87671  -0.86048
 Alpha  occ. eigenvalues --   -0.85136  -0.83192  -0.81279  -0.80953  -0.78723
 Alpha  occ. eigenvalues --   -0.77407  -0.75267  -0.74999  -0.72135  -0.71621
 Alpha  occ. eigenvalues --   -0.70986  -0.70730  -0.70050  -0.68567  -0.67837
 Alpha  occ. eigenvalues --   -0.67262  -0.66366  -0.66065  -0.65265  -0.65028
 Alpha  occ. eigenvalues --   -0.63369  -0.62698  -0.62179  -0.61989  -0.61301
 Alpha  occ. eigenvalues --   -0.60434  -0.59279  -0.58597  -0.58485  -0.57804
 Alpha  occ. eigenvalues --   -0.57058  -0.56707  -0.56650  -0.56375  -0.55975
 Alpha  occ. eigenvalues --   -0.55693  -0.55210  -0.54793  -0.53944  -0.53472
 Alpha  occ. eigenvalues --   -0.52758  -0.52504  -0.52308  -0.52084  -0.51767
 Alpha  occ. eigenvalues --   -0.51201  -0.51134  -0.50231  -0.50023  -0.49723
 Alpha  occ. eigenvalues --   -0.49032  -0.48388  -0.47955  -0.47419  -0.47190
 Alpha  occ. eigenvalues --   -0.47098  -0.46472  -0.46436  -0.46247  -0.45611
 Alpha  occ. eigenvalues --   -0.45360  -0.45211  -0.44613  -0.44261  -0.44148
 Alpha  occ. eigenvalues --   -0.43789  -0.43550  -0.42703  -0.41446  -0.41092
 Alpha  occ. eigenvalues --   -0.40764  -0.40201  -0.36821  -0.36354  -0.35835
 Alpha  occ. eigenvalues --   -0.35432  -0.35316  -0.35190  -0.34740  -0.34600
 Alpha  occ. eigenvalues --   -0.33827  -0.32513  -0.32390  -0.31466  -0.29776
 Alpha  occ. eigenvalues --   -0.29439
 Alpha virt. eigenvalues --   -0.12931  -0.11728  -0.11137  -0.08388  -0.08149
 Alpha virt. eigenvalues --   -0.07478  -0.06892  -0.06110  -0.05059  -0.04502
 Alpha virt. eigenvalues --   -0.03246  -0.02436  -0.01779  -0.01515  -0.00675

 Mulliken charges:
               1
     1  N   -0.702099
     2  H    0.299636
     3  H    0.313706
     4  C   -0.094590
     5  H    0.176188
     6  C    0.594874
     7  C   -0.338662
     8  H    0.148200
     9  H    0.169787
    10  O   -0.544710
    11  C    0.616642
    12  N   -0.740329
    13  H    0.345535
    14  H    0.339574
    15  O   -0.510582
    16  N   -0.626095
    17  H    0.361752
    18  C   -0.006402
    19  H    0.182383
    20  C    0.588684
    21  C   -0.396703
    22  H    0.167832
    23  H    0.197013
    24  O   -0.521160
    25  C    0.180516
    26  C   -0.221274
    27  H    0.175044
    28  C   -0.230202
    29  H    0.166517
    30  C   -0.163371
    31  H    0.158578
    32  C   -0.152055
    33  H    0.159664
    34  C   -0.131752
    35  H    0.159502
    36  N   -0.597577
    37  H    0.352553
    38  C   -0.073757
    39  H    0.211045
    40  C    0.593282
    41  C   -0.384327
    42  H    0.191084
    43  H    0.194877
    44  O   -0.549312
    45  C    0.632409
    46  N   -0.741318
    47  H    0.363263
    48  H    0.353737
    49  O   -0.521827
    50  N   -0.624728
    51  H    0.408059
    52  C   -0.045319
    53  H    0.207457
    54  C    0.580454
    55  C   -0.276047
    56  H    0.159909
    57  H    0.172071
    58  O   -0.439329
    59  C   -0.294859
    60  H    0.192433
    61  H    0.160137
    62  C   -0.154385
    63  H    0.190182
    64  H    0.168895
    65  N   -0.611432
    66  H    0.377516
    67  N   -0.758075
    68  H    0.384836
    69  H    0.387282
    70  N   -0.769175
    71  H    0.374506
    72  H    0.395903
    73  C    0.807992
    74  O   -0.567538
    75  H    0.427484
 Sum of Mulliken charges =   1.00000

 Dipole moment (field-independent basis, Debye):
    X=             -3.4619    Y=              9.4087    Z=            -20.2385  Tot=             22.5855
 Quadrupole moment (field-independent basis, Debye-Ang):
   XX=           -162.1718   YY=           -169.6598   ZZ=            -74.0045
   XY=            -43.5535   XZ=             19.4345   YZ=            -96.4698

 Normal termination of Gaussian 16 at Tue Jun  7 03:23:48 2022.
