 Gaussian 16, Revision C.01,
 Gaussian 16:  ES64L-G16RevC.01  3-Jul-2019

 -------------------------------------------------------------------
 # B3LYP/6-31G* guess=read geom=check nosymm integral(ultrafinegrid)
 -------------------------------------------------------------------

 ------------------------------------------------------
 Candidate Structure: Conf:962 Charge calc in gas phase
 ------------------------------------------------------
 Structure from the checkpoint file:  "conf-962.chk"
 Charge =  1 Multiplicity = 1

                          Input orientation:
 ---------------------------------------------------------------------
 Center     Atomic      Atomic             Coordinates (Angstroms)
 Number     Number       Type             X           Y           Z
 ---------------------------------------------------------------------
      1          7           0       -3.914711    2.323291    2.428955
      2          1           0       -4.813837    1.844064    2.432409
      3          1           0       -3.944734    3.026424    3.163416
      4          6           0       -2.812516    1.387980    2.642942
      5          1           0       -1.910594    1.988026    2.818890
      6          6           0       -2.520782    0.615343    1.347365
      7          6           0       -2.927672    0.421004    3.834412
      8          1           0       -3.256826    0.993826    4.711571
      9          1           0       -3.680894   -0.351479    3.643705
     10          8           0       -2.127429   -0.561048    1.375242
     11          6           0       -1.581499   -0.210035    4.190776
     12          7           0       -1.636217   -1.425825    4.780665
     13          1           0       -0.772549   -1.883472    5.039228
     14          1           0       -2.491311   -1.958994    4.833835
     15          8           0       -0.518691    0.393371    4.014358
     16          7           0       -2.636285    1.341845    0.216279
     17          1           0       -3.014587    2.281065    0.315199
     18          6           0       -2.238217    0.872687   -1.113616
     19          1           0       -2.519343   -0.185372   -1.178711
     20          6           0       -0.688096    0.922444   -1.247909
     21          6           0       -2.975939    1.647842   -2.231453
     22          1           0       -2.397375    1.509885   -3.150482
     23          1           0       -3.942931    1.158827   -2.386696
     24          8           0       -0.088494    1.662095   -2.039295
     25          6           0       -3.219074    3.127838   -1.981839
     26          6           0       -4.507492    3.572989   -1.651809
     27          1           0       -5.320117    2.853144   -1.580889
     28          6           0       -2.189250    4.077523   -2.078452
     29          1           0       -1.185372    3.743547   -2.320444
     30          6           0       -4.766704    4.927278   -1.430126
     31          1           0       -5.774216    5.250175   -1.182904
     32          6           0       -2.446929    5.430358   -1.856847
     33          1           0       -1.638709    6.152509   -1.939181
     34          6           0       -3.735875    5.860802   -1.533361
     35          1           0       -3.934329    6.915608   -1.365274
     36          7           0       -0.071690    0.092647   -0.384909
     37          1           0       -0.678978   -0.474357    0.209707
     38          6           0        1.343819    0.127621   -0.075954
     39          1           0        1.659427    1.179618   -0.065487
     40          6           0        2.178171   -0.533165   -1.193661
     41          6           0        1.555427   -0.483209    1.335277
     42          1           0        1.804094   -1.548632    1.255381
     43          1           0        0.618942   -0.410533    1.893390
     44          8           0        1.641248   -0.898961   -2.252623
     45          6           0        2.672694    0.199569    2.118507
     46          7           0        2.384388    0.472630    3.404419
     47          1           0        3.092487    0.933736    3.960497
     48          1           0        1.442026    0.378343    3.780747
     49          8           0        3.765323    0.461358    1.598545
     50          7           0        3.497802   -0.619814   -0.956182
     51          1           0        3.851837   -0.259202   -0.055518
     52          6           0        4.401153   -1.075506   -2.002196
     53          1           0        3.833386   -1.810476   -2.585125
     54          6           0        5.604541   -1.840118   -1.461342
     55          6           0        4.852612    0.084375   -2.934899
     56          1           0        4.095918    0.871965   -2.858518
     57          1           0        5.784528    0.512434   -2.553040
     58          8           0        6.594718   -2.060366   -2.121394
     59          6           0        5.049207   -0.280972   -4.414547
     60          1           0        5.374439    0.623477   -4.943028
     61          1           0        5.854877   -1.015788   -4.517541
     62          6           0        3.791369   -0.850050   -5.106414
     63          1           0        3.921938   -0.855782   -6.194324
     64          1           0        3.626607   -1.893433   -4.826531
     65          7           0        2.544702   -0.154763   -4.749624
     66          1           0        2.105370   -0.475674   -3.871553
     67          7           0        2.700702    1.575187   -6.308617
     68          1           0        2.313003    2.420988   -6.701207
     69          1           0        3.214697    0.989026   -6.949870
     70          7           0        1.160538    1.687938   -4.570980
     71          1           0        0.806327    2.558522   -4.940879
     72          1           0        0.847197    1.446413   -3.621904
     73          6           0        2.137986    1.027199   -5.205894
     74          8           0        5.435623   -2.267444   -0.195827
     75          1           0        6.249496   -2.749749    0.048462
 ---------------------------------------------------------------------

 SCF Done:  E(RB3LYP) =  -1917.41749608     A.U. after    2 cycles

 Alpha  occ. eigenvalues --  -19.28375 -19.22512 -19.21893 -19.21859 -19.21197
 Alpha  occ. eigenvalues --  -19.20896 -19.20237 -14.50023 -14.48227 -14.48019
 Alpha  occ. eigenvalues --  -14.44937 -14.44840 -14.44758 -14.44606 -14.43292
 Alpha  occ. eigenvalues --  -14.41490 -10.45514 -10.40922 -10.38615 -10.38532
 Alpha  occ. eigenvalues --  -10.38343 -10.37752 -10.37744 -10.34038 -10.33383
 Alpha  occ. eigenvalues --  -10.33351 -10.32763 -10.31647 -10.28902 -10.28702
 Alpha  occ. eigenvalues --  -10.28577 -10.28558 -10.27689 -10.26992 -10.25968
 Alpha  occ. eigenvalues --  -10.25805 -10.25771 -10.25670 -10.25576  -1.19311
 Alpha  occ. eigenvalues --   -1.14082  -1.13601  -1.13023  -1.12524  -1.12109
 Alpha  occ. eigenvalues --   -1.11646  -1.10270  -1.03196  -1.02333  -1.01965
 Alpha  occ. eigenvalues --   -1.01887  -1.01404  -0.99610  -0.98416  -0.98130
 Alpha  occ. eigenvalues --   -0.92471  -0.90043  -0.88084  -0.86498  -0.84985
 Alpha  occ. eigenvalues --   -0.84490  -0.81505  -0.81140  -0.79982  -0.77278
 Alpha  occ. eigenvalues --   -0.76026  -0.75878  -0.72859  -0.71984  -0.71221
 Alpha  occ. eigenvalues --   -0.69653  -0.68752  -0.68087  -0.67363  -0.67134
 Alpha  occ. eigenvalues --   -0.66764  -0.66359  -0.66200  -0.64843  -0.63139
 Alpha  occ. eigenvalues --   -0.62900  -0.62777  -0.62484  -0.61722  -0.61557
 Alpha  occ. eigenvalues --   -0.60271  -0.59333  -0.58648  -0.58105  -0.57912
 Alpha  occ. eigenvalues --   -0.57358  -0.56900  -0.56571  -0.55970  -0.55532
 Alpha  occ. eigenvalues --   -0.55276  -0.54930  -0.54709  -0.53285  -0.52940
 Alpha  occ. eigenvalues --   -0.52737  -0.52431  -0.52358  -0.52022  -0.51788
 Alpha  occ. eigenvalues --   -0.51486  -0.50503  -0.50220  -0.49980  -0.49104
 Alpha  occ. eigenvalues --   -0.48880  -0.48677  -0.48320  -0.48269  -0.47950
 Alpha  occ. eigenvalues --   -0.47828  -0.46961  -0.46353  -0.46191  -0.45410
 Alpha  occ. eigenvalues --   -0.45054  -0.44906  -0.44560  -0.44317  -0.44060
 Alpha  occ. eigenvalues --   -0.43699  -0.42481  -0.40920  -0.40721  -0.40649
 Alpha  occ. eigenvalues --   -0.40230  -0.37761  -0.37334  -0.36981  -0.36537
 Alpha  occ. eigenvalues --   -0.36118  -0.36034  -0.35179  -0.35037  -0.34654
 Alpha  occ. eigenvalues --   -0.34506  -0.34160  -0.33558  -0.32921  -0.31868
 Alpha  occ. eigenvalues --   -0.31420
 Alpha virt. eigenvalues --   -0.09521  -0.08968  -0.08114  -0.07541  -0.07436
 Alpha virt. eigenvalues --   -0.07145  -0.06783  -0.06284  -0.06048  -0.05718
 Alpha virt. eigenvalues --   -0.03261  -0.00883  -0.00376  -0.00030   0.00169

 Mulliken charges:
               1
     1  N   -0.734163
     2  H    0.315352
     3  H    0.324439
     4  C   -0.079607
     5  H    0.202140
     6  C    0.637444
     7  C   -0.373335
     8  H    0.182328
     9  H    0.161775
    10  O   -0.568985
    11  C    0.649531
    12  N   -0.737024
    13  H    0.351155
    14  H    0.354942
    15  O   -0.544433
    16  N   -0.601462
    17  H    0.379869
    18  C   -0.060346
    19  H    0.192084
    20  C    0.643766
    21  C   -0.360924
    22  H    0.165248
    23  H    0.162708
    24  O   -0.570218
    25  C    0.115399
    26  C   -0.184406
    27  H    0.132147
    28  C   -0.185819
    29  H    0.145886
    30  C   -0.123074
    31  H    0.143768
    32  C   -0.128509
    33  H    0.136754
    34  C   -0.127967
    35  H    0.144763
    36  N   -0.619100
    37  H    0.397897
    38  C   -0.039286
    39  H    0.199987
    40  C    0.620186
    41  C   -0.439952
    42  H    0.198935
    43  H    0.204106
    44  O   -0.576220
    45  C    0.625034
    46  N   -0.768465
    47  H    0.350142
    48  H    0.398027
    49  O   -0.539728
    50  N   -0.614163
    51  H    0.406608
    52  C   -0.049376
    53  H    0.192193
    54  C    0.584610
    55  C   -0.273289
    56  H    0.150373
    57  H    0.180803
    58  O   -0.451261
    59  C   -0.277912
    60  H    0.153915
    61  H    0.195675
    62  C   -0.184270
    63  H    0.163154
    64  H    0.196199
    65  N   -0.622515
    66  H    0.430073
    67  N   -0.754838
    68  H    0.369833
    69  H    0.376402
    70  N   -0.794139
    71  H    0.360447
    72  H    0.432578
    73  C    0.782852
    74  O   -0.553825
    75  H    0.427083
 Sum of Mulliken charges =   1.00000

 Dipole moment (field-independent basis, Debye):
    X=              1.1594    Y=              3.5637    Z=             -6.9986  Tot=              7.9388
 Quadrupole moment (field-independent basis, Debye-Ang):
   XX=           -168.2979   YY=           -193.4743   ZZ=            -89.1989
   XY=            -10.8750   XZ=            -53.5320   YZ=            -29.0483

 Normal termination of Gaussian 16 at Tue Jun  7 03:34:36 2022.
