 Gaussian 16, Revision C.01,
 Gaussian 16:  ES64L-G16RevC.01  3-Jul-2019

 -------------------------------------------------------------------
 # B3LYP/6-31G* guess=read geom=check nosymm integral(ultrafinegrid)
 -------------------------------------------------------------------

 ------------------------------------------------------
 Candidate Structure: Conf:727 Charge calc in gas phase
 ------------------------------------------------------
 Structure from the checkpoint file:  "conf-727.chk"
 Charge =  1 Multiplicity = 1

                          Input orientation:
 ---------------------------------------------------------------------
 Center     Atomic      Atomic             Coordinates (Angstroms)
 Number     Number       Type             X           Y           Z
 ---------------------------------------------------------------------
      1          7           0       -5.492694    2.467386    2.054648
      2          1           0       -5.845857    2.759569    1.143853
      3          1           0       -5.787173    1.492325    2.134919
      4          6           0       -4.032009    2.482286    2.016964
      5          1           0       -3.702692    3.441541    1.604841
      6          6           0       -3.467882    1.344132    1.132075
      7          6           0       -3.489607    2.392789    3.458671
      8          1           0       -4.194303    2.939607    4.097085
      9          1           0       -3.489794    1.353757    3.815574
     10          8           0       -4.169583    0.377186    0.825195
     11          6           0       -2.096951    2.993083    3.633801
     12          7           0       -1.625130    2.985422    4.909215
     13          1           0       -0.727295    3.410918    5.093136
     14          1           0       -2.183467    2.678323    5.691674
     15          8           0       -1.439859    3.461575    2.704904
     16          7           0       -2.182149    1.473570    0.714278
     17          1           0       -1.590357    2.201882    1.116222
     18          6           0       -1.566372    0.409554   -0.052145
     19          1           0       -1.870604   -0.551578    0.380362
     20          6           0       -0.044520    0.547760    0.064101
     21          6           0       -2.048313    0.421111   -1.542905
     22          1           0       -3.091947    0.744791   -1.511210
     23          1           0       -1.487838    1.179603   -2.102900
     24          8           0        0.480338    1.499714    0.650192
     25          6           0       -1.976403   -0.925058   -2.233316
     26          6           0       -1.063781   -1.184844   -3.265986
     27          1           0       -0.385888   -0.399540   -3.595213
     28          6           0       -2.849451   -1.951284   -1.834003
     29          1           0       -3.568818   -1.752335   -1.042678
     30          6           0       -1.020437   -2.438124   -3.885109
     31          1           0       -0.311816   -2.617843   -4.689272
     32          6           0       -2.806756   -3.200551   -2.450803
     33          1           0       -3.493668   -3.980843   -2.134654
     34          6           0       -1.891415   -3.448564   -3.478100
     35          1           0       -1.863134   -4.421427   -3.960895
     36          7           0        0.682149   -0.437652   -0.523474
     37          1           0        0.203350   -1.122212   -1.098145
     38          6           0        2.146355   -0.454156   -0.492148
     39          1           0        2.462295   -0.124561    0.500200
     40          6           0        2.725257    0.532356   -1.532137
     41          6           0        2.670736   -1.863596   -0.746882
     42          1           0        2.463064   -2.163717   -1.780254
     43          1           0        2.159840   -2.568571   -0.079353
     44          8           0        3.167898    0.177203   -2.619084
     45          6           0        4.177185   -1.924446   -0.479180
     46          7           0        4.781757   -3.086362   -0.850973
     47          1           0        5.783318   -3.158653   -0.736914
     48          1           0        4.312203   -3.787516   -1.404070
     49          8           0        4.778481   -1.008293    0.066225
     50          7           0        2.672193    1.838392   -1.134145
     51          1           0        2.155589    2.049093   -0.280788
     52          6           0        3.159454    2.890075   -1.989680
     53          1           0        3.765118    2.389807   -2.756021
     54          6           0        4.096468    3.839690   -1.253001
     55          6           0        1.998729    3.629413   -2.718793
     56          1           0        1.361229    2.828274   -3.102097
     57          1           0        1.390517    4.177556   -1.986880
     58          8           0        4.725128    4.745235   -1.792986
     59          6           0        2.411829    4.542161   -3.895259
     60          1           0        3.380632    4.217269   -4.292263
     61          1           0        1.693889    4.423271   -4.715238
     62          6           0        2.477478    6.034165   -3.528446
     63          1           0        1.474264    6.434946   -3.358698
     64          1           0        3.045125    6.200089   -2.611495
     65          7           0        3.082978    6.859802   -4.588499
     66          1           0        2.482236    7.145044   -5.351301
     67          7           0        5.290593    6.425379   -3.984020
     68          1           0        6.256248    6.722740   -3.996293
     69          1           0        5.030245    5.729746   -3.274114
     70          7           0        4.822122    7.839939   -5.759952
     71          1           0        5.802109    7.912062   -5.991552
     72          1           0        4.196654    8.498325   -6.201166
     73          6           0        4.399183    7.032887   -4.765343
     74          8           0        4.178885    3.617424    0.054807
     75          1           0        4.809978    4.261401    0.431985
 ---------------------------------------------------------------------

 SCF Done:  E(RB3LYP) =  -1917.37979182     A.U. after    1 cycles

 Alpha  occ. eigenvalues --  -19.31297 -19.26424 -19.19759 -19.19211 -19.17777
 Alpha  occ. eigenvalues --  -19.17504 -19.16643 -14.52868 -14.52841 -14.51596
 Alpha  occ. eigenvalues --  -14.43898 -14.43296 -14.41900 -14.41873 -14.40415
 Alpha  occ. eigenvalues --  -14.35910 -10.49007 -10.44285 -10.36579 -10.36167
 Alpha  occ. eigenvalues --  -10.36080 -10.35461 -10.35393 -10.33984 -10.33158
 Alpha  occ. eigenvalues --  -10.31071 -10.30746 -10.30298 -10.29898 -10.27419
 Alpha  occ. eigenvalues --  -10.26854 -10.25946 -10.25747 -10.25305 -10.25242
 Alpha  occ. eigenvalues --  -10.25117 -10.24842 -10.24786 -10.24513  -1.22764
 Alpha  occ. eigenvalues --   -1.17373  -1.13354  -1.11805  -1.10887  -1.09443
 Alpha  occ. eigenvalues --   -1.09326  -1.08254  -1.06747  -1.05236  -1.00930
 Alpha  occ. eigenvalues --   -1.00193  -0.97373  -0.96599  -0.96545  -0.93456
 Alpha  occ. eigenvalues --   -0.91710  -0.91558  -0.87237  -0.85753  -0.84122
 Alpha  occ. eigenvalues --   -0.81699  -0.81553  -0.80311  -0.79224  -0.78821
 Alpha  occ. eigenvalues --   -0.75369  -0.74879  -0.74061  -0.72807  -0.71488
 Alpha  occ. eigenvalues --   -0.70565  -0.69871  -0.67524  -0.66592  -0.66420
 Alpha  occ. eigenvalues --   -0.65750  -0.65338  -0.64852  -0.64601  -0.63823
 Alpha  occ. eigenvalues --   -0.63119  -0.62410  -0.61227  -0.60520  -0.60263
 Alpha  occ. eigenvalues --   -0.59738  -0.59181  -0.58876  -0.58108  -0.57601
 Alpha  occ. eigenvalues --   -0.57207  -0.56825  -0.56419  -0.55043  -0.54945
 Alpha  occ. eigenvalues --   -0.54191  -0.53253  -0.53077  -0.51870  -0.51654
 Alpha  occ. eigenvalues --   -0.51582  -0.51281  -0.51047  -0.50780  -0.50638
 Alpha  occ. eigenvalues --   -0.49725  -0.49237  -0.48985  -0.48226  -0.47766
 Alpha  occ. eigenvalues --   -0.47619  -0.47207  -0.46649  -0.46289  -0.46177
 Alpha  occ. eigenvalues --   -0.45916  -0.45713  -0.45433  -0.45126  -0.44494
 Alpha  occ. eigenvalues --   -0.43982  -0.43679  -0.43405  -0.43232  -0.42725
 Alpha  occ. eigenvalues --   -0.42444  -0.41349  -0.41250  -0.41075  -0.40329
 Alpha  occ. eigenvalues --   -0.40175  -0.39817  -0.39153  -0.35613  -0.33952
 Alpha  occ. eigenvalues --   -0.33270  -0.33010  -0.32918  -0.31930  -0.31729
 Alpha  occ. eigenvalues --   -0.31444  -0.31047  -0.30882  -0.30595  -0.29858
 Alpha  occ. eigenvalues --   -0.28810
 Alpha virt. eigenvalues --   -0.12724  -0.11266  -0.09130  -0.07055  -0.06231
 Alpha virt. eigenvalues --   -0.05481  -0.05135  -0.04737  -0.04255  -0.03500
 Alpha virt. eigenvalues --   -0.03257  -0.02762  -0.02534  -0.01646  -0.00717

 Mulliken charges:
               1
     1  N   -0.699949
     2  H    0.303103
     3  H    0.313865
     4  C   -0.079284
     5  H    0.165024
     6  C    0.570183
     7  C   -0.376760
     8  H    0.196055
     9  H    0.175672
    10  O   -0.537969
    11  C    0.612403
    12  N   -0.742654
    13  H    0.348078
    14  H    0.347727
    15  O   -0.525840
    16  N   -0.638923
    17  H    0.396072
    18  C   -0.030644
    19  H    0.188979
    20  C    0.607275
    21  C   -0.351107
    22  H    0.196273
    23  H    0.135513
    24  O   -0.544892
    25  C    0.125131
    26  C   -0.211774
    27  H    0.127714
    28  C   -0.186147
    29  H    0.173913
    30  C   -0.129149
    31  H    0.138469
    32  C   -0.129455
    33  H    0.147005
    34  C   -0.129950
    35  H    0.142343
    36  N   -0.629534
    37  H    0.358194
    38  C   -0.040138
    39  H    0.206168
    40  C    0.645780
    41  C   -0.407265
    42  H    0.182257
    43  H    0.185461
    44  O   -0.535031
    45  C    0.629752
    46  N   -0.752661
    47  H    0.350278
    48  H    0.342814
    49  O   -0.511892
    50  N   -0.621730
    51  H    0.383042
    52  C   -0.066862
    53  H    0.219321
    54  C    0.620993
    55  C   -0.283409
    56  H    0.188972
    57  H    0.165787
    58  O   -0.519887
    59  C   -0.272919
    60  H    0.160823
    61  H    0.164663
    62  C   -0.188498
    63  H    0.194331
    64  H    0.200033
    65  N   -0.595685
    66  H    0.362919
    67  N   -0.791313
    68  H    0.373130
    69  H    0.450094
    70  N   -0.768592
    71  H    0.382876
    72  H    0.382152
    73  C    0.823034
    74  O   -0.514368
    75  H    0.430613
 Sum of Mulliken charges =   1.00000

 Dipole moment (field-independent basis, Debye):
    X=             16.9691    Y=             24.7715    Z=            -16.3663  Tot=             34.1969
 Quadrupole moment (field-independent basis, Debye-Ang):
   XX=           -142.5478   YY=              2.0264   ZZ=            -97.8672
   XY=            112.2251   XZ=            -82.5428   YZ=           -121.0476

 Normal termination of Gaussian 16 at Tue Jun  7 03:23:52 2022.
