 Gaussian 16, Revision C.01,
 Gaussian 16:  ES64L-G16RevC.01  3-Jul-2019

 ----------------------------------------------------------------------
 # B3LYP/6-31G* empiricaldispersion=gd3 guess=read geom=check nosymm in
 tegral(ultrafinegrid)
 ----------------------------------------------------------------------

 ------------------------------------------------------
 Candidate Structure: Conf:553 Charge calc in gas phase
 ------------------------------------------------------
 Structure from the checkpoint file:  "conf-553.chk"
 Charge =  1 Multiplicity = 1

                          Input orientation:
 ---------------------------------------------------------------------
 Center     Atomic      Atomic             Coordinates (Angstroms)
 Number     Number       Type             X           Y           Z
 ---------------------------------------------------------------------
      1          7           0       -4.763234    5.146074    1.689961
      2          1           0       -4.209781    5.557259    2.441430
      3          1           0       -3.778734    4.506127    0.346596
      4          1           0       -5.408044    5.852987    1.339724
      5          6           0       -5.530595    4.007974    2.246343
      6          1           0       -6.238794    4.329554    3.026139
      7          6           0       -4.458871    3.118880    2.901046
      8          6           0       -6.321588    3.320728    1.110379
      9          1           0       -5.601427    2.887591    0.406726
     10          1           0       -6.913098    2.502242    1.539908
     11          8           0       -3.440556    3.638842    3.373246
     12          6           0       -7.255782    4.266922    0.388167
     13          6           0       -8.523845    4.546229    0.914759
     14          1           0       -8.846505    4.051503    1.828803
     15          6           0       -6.858130    4.904219   -0.795245
     16          1           0       -5.871826    4.695271   -1.205693
     17          6           0       -9.380329    5.442473    0.275669
     18          1           0      -10.362871    5.643115    0.693547
     19          6           0       -7.715930    5.801706   -1.436083
     20          1           0       -7.399059    6.282541   -2.358934
     21          6           0       -8.977087    6.072694   -0.903197
     22          1           0       -9.644698    6.766514   -1.406223
     23          7           0       -4.616080    1.773714    2.854802
     24          1           0       -5.402285    1.366549    2.360152
     25          6           0       -3.474683    0.862548    2.995393
     26          1           0       -2.838046    1.209286    3.814491
     27          6           0       -2.678987    0.913151    1.673224
     28          6           0       -3.995703   -0.552802    3.256553
     29          1           0       -4.527909   -0.569048    4.211625
     30          1           0       -3.143965   -1.243660    3.315534
     31          8           0       -2.565432   -0.072915    0.926997
     32          8           0       -4.926964   -0.936974    2.257607
     33          1           0       -4.400738   -1.084605    1.451777
     34          7           0       -2.174218    2.122905    1.358033
     35          1           0       -2.228838    2.862687    2.056921
     36          6           0       -1.674919    2.451309    0.028267
     37          1           0       -2.217842    1.825242   -0.689153
     38          6           0       -0.187475    2.078476   -0.017087
     39          6           0       -1.992467    3.922450   -0.301227
     40          1           0       -1.476309    4.189901   -1.232948
     41          1           0       -1.576886    4.567041    0.491809
     42          8           0        0.729266    2.933141   -0.121381
     43          8           0       -3.373112    4.100139   -0.471707
     44          7           0        0.046473    0.768426    0.106431
     45          1           0       -0.789822    0.188460    0.223052
     46          6           0        1.327174    0.198369    0.550237
     47          1           0        1.769368    0.908731    1.257380
     48          6           0        2.283342   -0.001448   -0.650376
     49          6           0        1.068903   -1.132878    1.250967
     50          1           0        0.592206   -1.843848    0.567650
     51          1           0        2.022016   -1.597658    1.524506
     52          8           0        2.437310   -1.083874   -1.193711
     53          6           0        0.228238   -0.982823    2.504637
     54          8           0       -0.156657    0.066882    2.981911
     55          8           0       -0.042882   -2.184557    3.045389
     56          7           0        2.902805    1.149493   -1.033294
     57          1           0        2.631973    2.004538   -0.560654
     58          6           0        3.815488    1.231991   -2.157737
     59          1           0        3.729046    0.279385   -2.696335
     60          6           0        5.281347    1.342467   -1.719375
     61          6           0        3.432306    2.405708   -3.071302
     62          1           0        4.206387    2.539126   -3.830615
     63          1           0        3.446638    3.320642   -2.461341
     64          8           0        6.118188    1.981219   -2.316508
     65          6           0        2.053454    2.207910   -3.719257
     66          1           0        1.410147    1.601065   -3.069000
     67          1           0        2.147028    1.651396   -4.658255
     68          6           0        1.330610    3.530322   -3.998718
     69          1           0        1.979452    4.210745   -4.558322
     70          1           0        0.424513    3.369481   -4.591183
     71          7           0        0.953435    4.153777   -2.716539
     72          1           0        0.682815    3.504881   -1.978602
     73          7           0        1.709416    6.335136   -3.080509
     74          1           0        2.084260    7.199749   -2.719441
     75          1           0        1.567816    6.271914   -4.077022
     76          7           0        1.256805    5.575026   -0.930311
     77          1           0        1.003430    4.795116   -0.316849
     78          1           0        1.248765    6.513876   -0.559035
     79          6           0        1.305470    5.355298   -2.253703
     80          8           0        5.534517    0.619960   -0.612174
     81          1           0        6.492174    0.696479   -0.437718
     82          1           0       -0.552788   -2.029143    3.862846
 ---------------------------------------------------------------------

 SCF Done:  E(RB3LYP) =  -2166.42338462     A.U. after    1 cycles

 Alpha  occ. eigenvalues --  -19.28627 -19.28221 -19.25803 -19.23368 -19.23121
 Alpha  occ. eigenvalues --  -19.22657 -19.22486 -19.21440 -19.21368 -19.20949
 Alpha  occ. eigenvalues --  -14.52387 -14.51148 -14.50818 -14.47623 -14.46202
 Alpha  occ. eigenvalues --  -14.45710 -14.45519 -14.42221 -10.48136 -10.41656
 Alpha  occ. eigenvalues --  -10.41488 -10.40756 -10.39443 -10.38481 -10.38234
 Alpha  occ. eigenvalues --  -10.36069 -10.34205 -10.33945 -10.33691 -10.33511
 Alpha  occ. eigenvalues --  -10.32671 -10.32040 -10.32006 -10.30566 -10.29881
 Alpha  occ. eigenvalues --  -10.29624 -10.27565 -10.26689 -10.25613 -10.25527
 Alpha  occ. eigenvalues --  -10.25453 -10.25437 -10.25318  -1.19725  -1.19230
 Alpha  occ. eigenvalues --   -1.16831  -1.16184  -1.14750  -1.13324  -1.12965
 Alpha  occ. eigenvalues --   -1.10752  -1.10275  -1.09982  -1.09364  -1.05963
 Alpha  occ. eigenvalues --   -1.04801  -1.04427  -1.03048  -1.02465  -1.01621
 Alpha  occ. eigenvalues --   -0.98680  -0.92125  -0.91655  -0.89987  -0.87331
 Alpha  occ. eigenvalues --   -0.86517  -0.85589  -0.83958  -0.81046  -0.80898
 Alpha  occ. eigenvalues --   -0.79483  -0.79387  -0.78011  -0.75082  -0.74070
 Alpha  occ. eigenvalues --   -0.73763  -0.72961  -0.72759  -0.70994  -0.69979
 Alpha  occ. eigenvalues --   -0.69221  -0.68979  -0.68622  -0.68119  -0.67766
 Alpha  occ. eigenvalues --   -0.67100  -0.65180  -0.64874  -0.64810  -0.63826
 Alpha  occ. eigenvalues --   -0.63241  -0.62530  -0.61526  -0.60793  -0.60352
 Alpha  occ. eigenvalues --   -0.60023  -0.59845  -0.59329  -0.59012  -0.58147
 Alpha  occ. eigenvalues --   -0.57819  -0.57744  -0.57475  -0.56915  -0.56719
 Alpha  occ. eigenvalues --   -0.55822  -0.55538  -0.55334  -0.55063  -0.54434
 Alpha  occ. eigenvalues --   -0.54261  -0.53935  -0.52821  -0.52495  -0.52340
 Alpha  occ. eigenvalues --   -0.52057  -0.51949  -0.51300  -0.50973  -0.50796
 Alpha  occ. eigenvalues --   -0.50051  -0.49743  -0.49073  -0.48815  -0.48581
 Alpha  occ. eigenvalues --   -0.48356  -0.48162  -0.48010  -0.47769  -0.47592
 Alpha  occ. eigenvalues --   -0.47078  -0.46952  -0.46535  -0.46408  -0.45970
 Alpha  occ. eigenvalues --   -0.45647  -0.45301  -0.45244  -0.42987  -0.42409
 Alpha  occ. eigenvalues --   -0.41950  -0.41798  -0.41096  -0.40944  -0.40624
 Alpha  occ. eigenvalues --   -0.40443  -0.40345  -0.40335  -0.39535  -0.38145
 Alpha  occ. eigenvalues --   -0.37779  -0.36892  -0.36402  -0.36197  -0.35970
 Alpha  occ. eigenvalues --   -0.34936  -0.34720  -0.34106  -0.33962  -0.33596
 Alpha  occ. eigenvalues --   -0.31568  -0.31051
 Alpha virt. eigenvalues --   -0.12091  -0.11514  -0.10326  -0.08489  -0.08217
 Alpha virt. eigenvalues --   -0.07813  -0.07062  -0.06891  -0.06748  -0.06232
 Alpha virt. eigenvalues --   -0.04353  -0.02818  -0.02442  -0.01898  -0.00574

 Mulliken charges:
               1
     1  N   -0.776257
     2  H    0.341263
     3  H    0.464666
     4  H    0.338839
     5  C   -0.063124
     6  H    0.176014
     7  C    0.641671
     8  C   -0.388995
     9  H    0.173323
    10  H    0.158671
    11  O   -0.558067
    12  C    0.142363
    13  C   -0.180306
    14  H    0.130668
    15  C   -0.200262
    16  H    0.157019
    17  C   -0.128068
    18  H    0.146508
    19  C   -0.132002
    20  H    0.138281
    21  C   -0.126615
    22  H    0.144933
    23  N   -0.596366
    24  H    0.362770
    25  C   -0.095219
    26  H    0.210647
    27  C    0.664840
    28  C   -0.049137
    29  H    0.174637
    30  H    0.140802
    31  O   -0.580095
    32  O   -0.626587
    33  H    0.419912
    34  N   -0.605114
    35  H    0.385739
    36  C   -0.088290
    37  H    0.204217
    38  C    0.645742
    39  C   -0.049381
    40  H    0.122725
    41  H    0.126386
    42  O   -0.613248
    43  O   -0.661600
    44  N   -0.592000
    45  H    0.399614
    46  C   -0.062389
    47  H    0.191741
    48  C    0.637429
    49  C   -0.400517
    50  H    0.223003
    51  H    0.223059
    52  O   -0.499352
    53  C    0.596636
    54  O   -0.480829
    55  O   -0.552695
    56  N   -0.616766
    57  H    0.349663
    58  C   -0.067193
    59  H    0.222765
    60  C    0.596744
    61  C   -0.282179
    62  H    0.196298
    63  H    0.135040
    64  O   -0.452939
    65  C   -0.299717
    66  H    0.168430
    67  H    0.184513
    68  C   -0.165404
    69  H    0.168349
    70  H    0.196498
    71  N   -0.617228
    72  H    0.395166
    73  N   -0.755708
    74  H    0.381777
    75  H    0.385801
    76  N   -0.786973
    77  H    0.423577
    78  H    0.367949
    79  C    0.799556
    80  O   -0.552870
    81  H    0.425188
    82  H    0.422057
 Sum of Mulliken charges =   1.00000

 Dipole moment (field-independent basis, Debye):
    X=             -0.9473    Y=             21.9683    Z=             -3.6848  Tot=             22.2953
 Quadrupole moment (field-independent basis, Debye-Ang):
   XX=           -188.8788   YY=           -114.5898   ZZ=           -199.5133
   XY=             -7.5880   XZ=            -23.5437   YZ=            -47.0687

 Normal termination of Gaussian 16 at Tue May 17 01:31:03 2022.
