 Gaussian 16, Revision C.01,
 Gaussian 16:  ES64L-G16RevC.01  3-Jul-2019

 ----------------------------------------------------------------------
 # B3LYP/6-31G* empiricaldispersion=gd3 guess=read geom=check nosymm in
 tegral(ultrafinegrid)
 ----------------------------------------------------------------------

 ------------------------------------------------------
 Candidate Structure: Conf:879 Charge calc in gas phase
 ------------------------------------------------------
 Structure from the checkpoint file:  "conf-879.chk"
 Charge =  1 Multiplicity = 1

                          Input orientation:
 ---------------------------------------------------------------------
 Center     Atomic      Atomic             Coordinates (Angstroms)
 Number     Number       Type             X           Y           Z
 ---------------------------------------------------------------------
      1          7           0       -6.672811   -0.312982    7.074666
      2          1           0       -5.856516   -0.189203    7.676199
      3          1           0       -7.130277    0.598095    6.984254
      4          1           0       -7.315452   -0.967485    7.516935
      5          6           0       -6.286981   -0.755741    5.721260
      6          1           0       -5.580019   -1.587550    5.788933
      7          6           0       -5.638437    0.422940    4.996056
      8          6           0       -7.513526   -1.222695    4.929819
      9          1           0       -8.005113   -2.005347    5.513813
     10          1           0       -8.198389   -0.375304    4.855602
     11          8           0       -5.986789    1.574212    5.210532
     12          6           0       -7.150132   -1.726427    3.558311
     13          6           0       -7.308445   -0.913564    2.437871
     14          1           0       -7.701635    0.090511    2.561007
     15          6           0       -6.597646   -2.994904    3.399413
     16          1           0       -6.454533   -3.615852    4.279251
     17          6           0       -6.933993   -1.370936    1.175877
     18          1           0       -7.059380   -0.724820    0.313502
     19          6           0       -6.228895   -3.459625    2.138642
     20          1           0       -5.810354   -4.452957    2.033034
     21          6           0       -6.398358   -2.644845    1.022244
     22          1           0       -6.113286   -2.999501    0.039562
     23          7           0       -4.694780    0.094905    4.083265
     24          1           0       -4.533406   -0.868187    3.822498
     25          6           0       -4.145750    1.078212    3.180215
     26          1           0       -4.922048    1.786939    2.867197
     27          6           0       -3.608830    0.313111    1.974393
     28          6           0       -3.032523    1.897910    3.851255
     29          1           0       -2.214145    1.231311    4.157363
     30          1           0       -3.453846    2.368504    4.734674
     31          8           0       -3.287507   -0.860296    2.054752
     32          8           0       -2.582851    2.918600    2.986136
     33          1           0       -1.921253    2.551114    2.381774
     34          7           0       -3.491280    1.034836    0.825466
     35          1           0       -3.555129    2.035179    0.897256
     36          6           0       -2.619755    0.578545   -0.221088
     37          1           0       -2.674558   -0.510213   -0.235715
     38          6           0       -1.178896    1.009430    0.050092
     39          6           0       -3.129486    1.124266   -1.615243
     40          1           0       -4.137550    0.659892   -1.702487
     41          1           0       -2.523918    0.562400   -2.370810
     42          8           0       -0.877504    1.809630    0.937663
     43          8           0       -3.130964    2.389457   -1.747710
     44          7           0       -0.243402    0.506616   -0.768679
     45          1           0       -0.453661   -0.215991   -1.439169
     46          6           0        1.158762    0.740791   -0.513991
     47          1           0        1.309719    1.814934   -0.408937
     48          6           0        1.919877    0.223166   -1.738825
     49          6           0        1.664147    0.111640    0.794937
     50          1           0        2.702152    0.405030    0.967330
     51          1           0        1.054403    0.511095    1.606622
     52          8           0        1.423858   -0.554354   -2.532714
     53          6           0        1.617325   -1.391040    0.864819
     54          8           0        2.550608   -2.094774    1.165470
     55          8           0        0.392640   -1.890891    0.587152
     56          7           0        3.197065    0.658748   -1.854641
     57          1           0        3.637667    1.210458   -1.134707
     58          6           0        4.048086    0.161353   -2.917233
     59          1           0        3.921926   -0.921874   -2.988642
     60          6           0        5.477481    0.453860   -2.527401
     61          6           0        3.692336    0.747062   -4.291633
     62          1           0        2.651599    0.480680   -4.476905
     63          1           0        4.296132    0.234826   -5.039808
     64          8           0        5.813463    1.135437   -1.591756
     65          6           0        3.868144    2.251727   -4.404265
     66          1           0        4.918394    2.525666   -4.286307
     67          1           0        3.322239    2.753255   -3.601118
     68          6           0        3.352203    2.769120   -5.731633
     69          1           0        2.315946    2.448351   -5.855698
     70          1           0        3.368153    3.864588   -5.750585
     71          7           0        4.165059    2.219104   -6.838570
     72          1           0        5.154277    2.176775   -6.644300
     73          7           0        2.646273    2.895274   -8.478306
     74          1           0        2.546913    3.301919   -9.395684
     75          1           0        2.105231    3.342955   -7.754557
     76          7           0        4.783412    2.133520   -9.079544
     77          1           0        5.497071    1.468921   -8.806399
     78          1           0        4.410757    1.956260  -10.001898
     79          6           0        3.862127    2.430009   -8.126095
     80          8           0        6.354411   -0.134080   -3.363070
     81          1           0        7.234239    0.103891   -3.042650
     82          1           0        0.461843   -2.848541    0.687118
 ---------------------------------------------------------------------

 SCF Done:  E(RB3LYP) =  -2166.23182118     A.U. after    1 cycles

 Alpha  occ. eigenvalues --  -19.28629 -19.23602 -19.23154 -19.22336 -19.18634
 Alpha  occ. eigenvalues --  -19.17984 -19.16573 -19.15482 -19.14302 -19.00381
 Alpha  occ. eigenvalues --  -14.61365 -14.51461 -14.51429 -14.51267 -14.44543
 Alpha  occ. eigenvalues --  -14.43230 -14.38354 -14.37448 -10.46328 -10.40933
 Alpha  occ. eigenvalues --  -10.39402 -10.38530 -10.36259 -10.35437 -10.35306
 Alpha  occ. eigenvalues --  -10.32186 -10.32034 -10.31873 -10.30414 -10.29623
 Alpha  occ. eigenvalues --  -10.28904 -10.28104 -10.28099 -10.28008 -10.27640
 Alpha  occ. eigenvalues --  -10.26807 -10.26366 -10.26131 -10.25721 -10.25664
 Alpha  occ. eigenvalues --  -10.24857 -10.21393 -10.18728  -1.20104  -1.17433
 Alpha  occ. eigenvalues --   -1.16157  -1.14950  -1.13787  -1.11537  -1.10946
 Alpha  occ. eigenvalues --   -1.08141  -1.06334  -1.05764  -1.05704  -1.04754
 Alpha  occ. eigenvalues --   -1.04549  -1.01132  -1.00477  -0.95961  -0.94823
 Alpha  occ. eigenvalues --   -0.94789  -0.91322  -0.91106  -0.90581  -0.86303
 Alpha  occ. eigenvalues --   -0.84245  -0.83412  -0.81855  -0.81428  -0.79541
 Alpha  occ. eigenvalues --   -0.77856  -0.77569  -0.75667  -0.74911  -0.73796
 Alpha  occ. eigenvalues --   -0.73535  -0.73084  -0.72210  -0.70915  -0.69508
 Alpha  occ. eigenvalues --   -0.68855  -0.68381  -0.66395  -0.66101  -0.65663
 Alpha  occ. eigenvalues --   -0.65515  -0.65304  -0.64024  -0.63711  -0.61831
 Alpha  occ. eigenvalues --   -0.61514  -0.60952  -0.60288  -0.60078  -0.59459
 Alpha  occ. eigenvalues --   -0.58874  -0.58110  -0.57771  -0.56980  -0.56625
 Alpha  occ. eigenvalues --   -0.56291  -0.55759  -0.54934  -0.54257  -0.53841
 Alpha  occ. eigenvalues --   -0.53675  -0.53343  -0.53138  -0.52526  -0.52349
 Alpha  occ. eigenvalues --   -0.52057  -0.51307  -0.50817  -0.50281  -0.50224
 Alpha  occ. eigenvalues --   -0.49738  -0.49364  -0.49211  -0.48951  -0.48287
 Alpha  occ. eigenvalues --   -0.48228  -0.47519  -0.47436  -0.46965  -0.46726
 Alpha  occ. eigenvalues --   -0.46215  -0.45182  -0.44965  -0.44674  -0.44131
 Alpha  occ. eigenvalues --   -0.44050  -0.43316  -0.43259  -0.42855  -0.42567
 Alpha  occ. eigenvalues --   -0.42209  -0.42058  -0.41554  -0.41452  -0.40969
 Alpha  occ. eigenvalues --   -0.40652  -0.39693  -0.38120  -0.37027  -0.36803
 Alpha  occ. eigenvalues --   -0.36671  -0.36239  -0.36058  -0.34959  -0.33234
 Alpha  occ. eigenvalues --   -0.32643  -0.32324  -0.32167  -0.31511  -0.31258
 Alpha  occ. eigenvalues --   -0.30197  -0.29601  -0.29003  -0.28472  -0.27102
 Alpha  occ. eigenvalues --   -0.15734  -0.14533
 Alpha virt. eigenvalues --   -0.13415  -0.11234  -0.08683  -0.08419  -0.08124
 Alpha virt. eigenvalues --   -0.07921  -0.07538  -0.05230  -0.04392  -0.04227
 Alpha virt. eigenvalues --   -0.03689  -0.03407  -0.03063  -0.02167  -0.01585

 Mulliken charges:
               1
     1  N   -0.712891
     2  H    0.429932
     3  H    0.424038
     4  H    0.418399
     5  C   -0.148081
     6  H    0.213424
     7  C    0.627715
     8  C   -0.373920
     9  H    0.166709
    10  H    0.187012
    11  O   -0.522826
    12  C    0.157339
    13  C   -0.180218
    14  H    0.148301
    15  C   -0.194223
    16  H    0.118141
    17  C   -0.121817
    18  H    0.172784
    19  C   -0.115461
    20  H    0.151081
    21  C   -0.106679
    22  H    0.161270
    23  N   -0.598793
    24  H    0.361156
    25  C   -0.054126
    26  H    0.187983
    27  C    0.580620
    28  C   -0.029592
    29  H    0.132239
    30  H    0.153827
    31  O   -0.546394
    32  O   -0.646839
    33  H    0.441631
    34  N   -0.564820
    35  H    0.343653
    36  C   -0.128196
    37  H    0.147215
    38  C    0.670706
    39  C    0.094937
    40  H    0.020748
    41  H   -0.004072
    42  O   -0.581059
    43  O   -0.630771
    44  N   -0.593205
    45  H    0.356711
    46  C   -0.047098
    47  H    0.185081
    48  C    0.627282
    49  C   -0.355387
    50  H    0.163761
    51  H    0.222214
    52  O   -0.525832
    53  C    0.562862
    54  O   -0.461329
    55  O   -0.545676
    56  N   -0.635990
    57  H    0.359600
    58  C   -0.022138
    59  H    0.211008
    60  C    0.575418
    61  C   -0.277505
    62  H    0.198551
    63  H    0.154618
    64  O   -0.454366
    65  C   -0.315545
    66  H    0.154338
    67  H    0.195057
    68  C   -0.177156
    69  H    0.199024
    70  H    0.185863
    71  N   -0.578177
    72  H    0.358178
    73  N   -0.730896
    74  H    0.376613
    75  H    0.387985
    76  N   -0.733832
    77  H    0.371022
    78  H    0.371839
    79  C    0.722720
    80  O   -0.570395
    81  H    0.424157
    82  H    0.410544
 Sum of Mulliken charges =   1.00000

 Dipole moment (field-independent basis, Debye):
    X=              0.4142    Y=             -0.6818    Z=             -4.9932  Tot=              5.0565
 Quadrupole moment (field-independent basis, Debye-Ang):
   XX=            -27.4134   YY=           -239.1353   ZZ=            171.6308
   XY=             84.3203   XZ=           -300.5656   YZ=            -94.2675

 Normal termination of Gaussian 16 at Tue May 17 01:30:54 2022.
