 Gaussian 16, Revision C.01,
 Gaussian 16:  ES64L-G16RevC.01  3-Jul-2019

 ----------------------------------------------------------------------
 # B3LYP/6-31G* empiricaldispersion=gd3 guess=read geom=check nosymm in
 tegral(ultrafinegrid)
 ----------------------------------------------------------------------

 ------------------------------------------------------
 Candidate Structure: Conf:497 Charge calc in gas phase
 ------------------------------------------------------
 Structure from the checkpoint file:  "conf-497.chk"
 Charge =  1 Multiplicity = 1

                          Input orientation:
 ---------------------------------------------------------------------
 Center     Atomic      Atomic             Coordinates (Angstroms)
 Number     Number       Type             X           Y           Z
 ---------------------------------------------------------------------
      1          7           0       -8.770029    2.936051    2.947991
      2          1           0       -8.990926    3.407389    3.826633
      3          1           0       -8.303498    3.615283    2.336965
      4          1           0       -9.619969    2.584467    2.505344
      5          6           0       -7.801728    1.845791    3.147409
      6          1           0       -8.003281    1.340611    4.095766
      7          6           0       -6.405454    2.452505    3.155044
      8          6           0       -7.898355    0.817150    2.014256
      9          1           0       -7.722330    1.330286    1.065036
     10          1           0       -7.096198    0.086103    2.135551
     11          8           0       -6.167026    3.506014    2.592877
     12          6           0       -9.239579    0.134222    1.993020
     13          6           0       -9.592415   -0.757002    3.005379
     14          1           0       -8.874066   -0.966693    3.790466
     15          6           0      -10.174144    0.423372    1.003917
     16          1           0       -9.920406    1.131962    0.221477
     17          6           0      -10.840558   -1.371859    3.011164
     18          1           0      -11.088132   -2.070006    3.802891
     19          6           0      -11.431131   -0.175312    1.010827
     20          1           0      -12.144249    0.067174    0.231675
     21          6           0      -11.766435   -1.079455    2.013997
     22          1           0      -12.742226   -1.551596    2.019235
     23          7           0       -5.440226    1.719800    3.795139
     24          1           0       -5.683618    0.768248    4.015183
     25          6           0       -4.055606    1.875023    3.387157
     26          1           0       -3.865118    2.929236    3.194730
     27          6           0       -3.784236    1.042862    2.140531
     28          6           0       -3.129024    1.368825    4.493022
     29          1           0       -3.444310    0.356686    4.779699
     30          1           0       -3.184282    2.027741    5.362046
     31          8           0       -4.165795   -0.119726    2.080936
     32          8           0       -1.735805    1.301086    4.027491
     33          1           0       -1.648633    0.516798    3.501178
     34          7           0       -3.072315    1.653357    1.161297
     35          1           0       -2.680949    2.568504    1.330113
     36          6           0       -2.460623    0.896897    0.098333
     37          1           0       -2.771862   -0.139737    0.214481
     38          6           0       -0.953721    1.077228    0.191151
     39          6           0       -2.983385    1.427911   -1.297969
     40          1           0       -2.327718    0.946798   -2.057982
     41          1           0       -2.659995    2.492515   -1.310047
     42          8           0       -0.466136    2.185539    0.379904
     43          8           0       -4.224449    1.219207   -1.506681
     44          7           0       -0.210263   -0.047382    0.035995
     45          1           0       -0.605747   -0.882869   -0.374302
     46          6           0        1.230502    0.010050   -0.017746
     47          1           0        1.526870    1.020209   -0.310599
     48          6           0        1.663234   -1.017708   -1.072780
     49          6           0        1.896993   -0.326131    1.330082
     50          1           0        1.585238   -1.321904    1.652029
     51          1           0        2.980298   -0.329273    1.204883
     52          8           0        0.913922   -1.894244   -1.462295
     53          6           0        1.586043    0.697305    2.402353
     54          8           0        2.329341    1.599571    2.704080
     55          8           0        0.388037    0.499618    3.007561
     56          7           0        2.942984   -0.907764   -1.497086
     57          1           0        3.525066   -0.144837   -1.190250
     58          6           0        3.457648   -1.843764   -2.483427
     59          1           0        3.067543   -2.834745   -2.237496
     60          6           0        4.965867   -1.907241   -2.413442
     61          6           0        2.986261   -1.486327   -3.900987
     62          1           0        3.411810   -0.527111   -4.199002
     63          1           0        1.904503   -1.358404   -3.841423
     64          8           0        5.627760   -2.895489   -2.605239
     65          6           0        3.324971   -2.559319   -4.927063
     66          1           0        2.903584   -3.511738   -4.595892
     67          1           0        4.404407   -2.694978   -4.999881
     68          6           0        2.760062   -2.227887   -6.297620
     69          1           0        1.676360   -2.108753   -6.222502
     70          1           0        3.171200   -1.273761   -6.650408
     71          7           0        3.067759   -3.314867   -7.245637
     72          1           0        3.955339   -3.768751   -7.092825
     73          7           0        1.730593   -2.396628   -8.924719
     74          1           0        1.640876   -2.223298   -9.913367
     75          1           0        1.588558   -1.590418   -8.336873
     76          7           0        3.151540   -4.206563   -9.391999
     77          1           0        3.524084   -5.049510   -8.973060
     78          1           0        2.580530   -4.389392  -10.204641
     79          6           0        2.653533   -3.292124   -8.520277
     80          8           0        5.514495   -0.699572   -2.153400
     81          1           0        6.471927   -0.821995   -2.150734
     82          1           0        0.278991    1.202513    3.669740
 ---------------------------------------------------------------------

 SCF Done:  E(RB3LYP) =  -2166.20783725     A.U. after    3 cycles

 Alpha  occ. eigenvalues --  -19.28373 -19.23467 -19.22549 -19.22523 -19.20204
 Alpha  occ. eigenvalues --  -19.18804 -19.17032 -19.14984 -19.13158 -19.00103
 Alpha  occ. eigenvalues --  -14.59721 -14.51205 -14.51051 -14.50852 -14.45660
 Alpha  occ. eigenvalues --  -14.43639 -14.38370 -14.38240 -10.45786 -10.40626
 Alpha  occ. eigenvalues --  -10.40195 -10.38200 -10.35565 -10.35502 -10.35249
 Alpha  occ. eigenvalues --  -10.32244 -10.31846 -10.30654 -10.30160 -10.29757
 Alpha  occ. eigenvalues --  -10.29626 -10.29351 -10.29264 -10.28656 -10.28351
 Alpha  occ. eigenvalues --  -10.28245 -10.28159 -10.27891 -10.27819 -10.27629
 Alpha  occ. eigenvalues --  -10.25011 -10.21032 -10.18210  -1.19647  -1.17088
 Alpha  occ. eigenvalues --   -1.15782  -1.13888  -1.13611  -1.11563  -1.10459
 Alpha  occ. eigenvalues --   -1.07897  -1.06504  -1.05450  -1.05358  -1.04585
 Alpha  occ. eigenvalues --   -1.04451  -1.02201  -1.00770  -0.95756  -0.95734
 Alpha  occ. eigenvalues --   -0.94908  -0.91495  -0.91350  -0.90135  -0.86128
 Alpha  occ. eigenvalues --   -0.85517  -0.83687  -0.83181  -0.82352  -0.79522
 Alpha  occ. eigenvalues --   -0.77623  -0.77183  -0.75665  -0.73895  -0.73725
 Alpha  occ. eigenvalues --   -0.73005  -0.72917  -0.71551  -0.70821  -0.69926
 Alpha  occ. eigenvalues --   -0.69235  -0.68756  -0.68347  -0.67790  -0.66187
 Alpha  occ. eigenvalues --   -0.64928  -0.63915  -0.63865  -0.63250  -0.62103
 Alpha  occ. eigenvalues --   -0.61809  -0.61344  -0.60937  -0.60478  -0.60025
 Alpha  occ. eigenvalues --   -0.59290  -0.58635  -0.57044  -0.56755  -0.56605
 Alpha  occ. eigenvalues --   -0.56199  -0.55691  -0.55026  -0.54737  -0.54402
 Alpha  occ. eigenvalues --   -0.54238  -0.54057  -0.53803  -0.53159  -0.52176
 Alpha  occ. eigenvalues --   -0.52035  -0.51139  -0.51040  -0.50785  -0.50388
 Alpha  occ. eigenvalues --   -0.50105  -0.49725  -0.49420  -0.49010  -0.48283
 Alpha  occ. eigenvalues --   -0.48152  -0.47639  -0.47379  -0.47281  -0.46719
 Alpha  occ. eigenvalues --   -0.45953  -0.45450  -0.45220  -0.45143  -0.44351
 Alpha  occ. eigenvalues --   -0.43972  -0.43544  -0.43456  -0.43180  -0.43093
 Alpha  occ. eigenvalues --   -0.42954  -0.42508  -0.42088  -0.40927  -0.40578
 Alpha  occ. eigenvalues --   -0.40477  -0.39912  -0.39851  -0.38252  -0.37542
 Alpha  occ. eigenvalues --   -0.36511  -0.36182  -0.35333  -0.34758  -0.34387
 Alpha  occ. eigenvalues --   -0.33938  -0.33381  -0.33269  -0.32773  -0.31375
 Alpha  occ. eigenvalues --   -0.30566  -0.29158  -0.28809  -0.28013  -0.26440
 Alpha  occ. eigenvalues --   -0.15199  -0.14059
 Alpha virt. eigenvalues --   -0.13056  -0.11109  -0.09665  -0.08634  -0.08399
 Alpha virt. eigenvalues --   -0.08080  -0.07765  -0.04570  -0.03916  -0.03678
 Alpha virt. eigenvalues --   -0.02694  -0.02170  -0.02071  -0.01885  -0.01811

 Mulliken charges:
               1
     1  N   -0.717001
     2  H    0.423683
     3  H    0.424178
     4  H    0.412013
     5  C   -0.150479
     6  H    0.207175
     7  C    0.643145
     8  C   -0.399744
     9  H    0.216440
    10  H    0.242215
    11  O   -0.490504
    12  C    0.149602
    13  C   -0.182468
    14  H    0.134840
    15  C   -0.216145
    16  H    0.149340
    17  C   -0.124101
    18  H    0.158659
    19  C   -0.122721
    20  H    0.160044
    21  C   -0.124684
    22  H    0.160835
    23  N   -0.584265
    24  H    0.338133
    25  C   -0.090170
    26  H    0.192274
    27  C    0.594288
    28  C   -0.044198
    29  H    0.145215
    30  H    0.168775
    31  O   -0.559052
    32  O   -0.653877
    33  H    0.435790
    34  N   -0.536477
    35  H    0.342766
    36  C   -0.124019
    37  H    0.154705
    38  C    0.621148
    39  C    0.109800
    40  H    0.000139
    41  H    0.030692
    42  O   -0.556899
    43  O   -0.634078
    44  N   -0.615326
    45  H    0.355425
    46  C   -0.072449
    47  H    0.195915
    48  C    0.627086
    49  C   -0.325348
    50  H    0.175137
    51  H    0.161653
    52  O   -0.526839
    53  C    0.593427
    54  O   -0.454295
    55  O   -0.586052
    56  N   -0.634142
    57  H    0.361111
    58  C   -0.011219
    59  H    0.205302
    60  C    0.572406
    61  C   -0.290420
    62  H    0.158801
    63  H    0.196078
    64  O   -0.452999
    65  C   -0.313624
    66  H    0.182848
    67  H    0.168830
    68  C   -0.161236
    69  H    0.195193
    70  H    0.174440
    71  N   -0.589145
    72  H    0.360551
    73  N   -0.734884
    74  H    0.374626
    75  H    0.384660
    76  N   -0.735223
    77  H    0.370857
    78  H    0.369465
    79  C    0.721249
    80  O   -0.569061
    81  H    0.427434
    82  H    0.434753
 Sum of Mulliken charges =   1.00000

 Dipole moment (field-independent basis, Debye):
    X=            -12.8338    Y=             -7.6517    Z=            -16.0894  Tot=             21.9574
 Quadrupole moment (field-independent basis, Debye-Ang):
   XX=             82.9035   YY=           -201.9034   ZZ=             63.4939
   XY=            -89.9735   XZ=           -211.9936   YZ=            119.3469

 Normal termination of Gaussian 16 at Tue May 17 01:31:24 2022.
