 Gaussian 16, Revision C.01,
 Gaussian 16:  ES64L-G16RevC.01  3-Jul-2019

 ----------------------------------------------------------------------
 # B3LYP/6-31G* empiricaldispersion=gd3 guess=read geom=check nosymm in
 tegral(ultrafinegrid)
 ----------------------------------------------------------------------

 ------------------------------------------------------
 Candidate Structure: Conf:883 Charge calc in gas phase
 ------------------------------------------------------
 Structure from the checkpoint file:  "conf-883.chk"
 Charge =  1 Multiplicity = 1

                          Input orientation:
 ---------------------------------------------------------------------
 Center     Atomic      Atomic             Coordinates (Angstroms)
 Number     Number       Type             X           Y           Z
 ---------------------------------------------------------------------
      1          7           0       -8.932438    4.095673    2.697375
      2          1           0       -8.432233    5.008763    2.508658
      3          1           0       -9.591625    3.927127    1.918879
      4          1           0       -9.443078    4.110685    3.582508
      5          6           0       -7.810376    3.083718    2.643564
      6          1           0       -7.499304    2.893161    3.675394
      7          6           0       -6.678963    3.883296    1.933816
      8          6           0       -8.273637    1.774369    1.965088
      9          1           0       -7.413247    1.099471    1.909175
     10          1           0       -8.995669    1.284374    2.629085
     11          8           0       -6.822963    5.108334    1.824548
     12          6           0       -8.878814    2.011622    0.597801
     13          6           0      -10.260697    2.240085    0.476459
     14          1           0      -10.909421    2.117288    1.344158
     15          6           0       -8.074500    2.072226   -0.549882
     16          1           0       -7.010466    1.861597   -0.482910
     17          6           0      -10.825979    2.549955   -0.764336
     18          1           0      -11.896567    2.712727   -0.845475
     19          6           0       -8.643738    2.373610   -1.787098
     20          1           0       -8.013942    2.406789   -2.671223
     21          6           0      -10.014558    2.623936   -1.896356
     22          1           0      -10.450015    2.858231   -2.862983
     23          7           0       -5.618775    3.190614    1.532218
     24          1           0       -5.624448    2.172340    1.506340
     25          6           0       -4.532336    3.750879    0.739529
     26          1           0       -4.885415    4.646036    0.220169
     27          6           0       -4.128590    2.649484   -0.248356
     28          6           0       -3.324055    4.141054    1.646852
     29          1           0       -3.042482    3.262520    2.243618
     30          1           0       -3.667734    4.927071    2.327910
     31          8           0       -4.547149    1.496747   -0.105805
     32          8           0       -2.243880    4.634607    0.892973
     33          1           0       -1.661449    3.864870    0.692478
     34          7           0       -3.266578    3.036249   -1.218173
     35          1           0       -2.850256    3.951307   -1.059157
     36          6           0       -2.387857    2.049806   -1.831339
     37          1           0       -2.992987    1.209405   -2.180077
     38          6           0       -1.361434    1.556051   -0.791612
     39          6           0       -1.647522    2.691410   -3.034823
     40          1           0       -1.140812    3.601355   -2.675628
     41          1           0       -2.397389    2.999982   -3.776459
     42          8           0       -1.063575    2.226577    0.208967
     43          8           0       -0.697247    1.807571   -3.567217
     44          7           0       -0.786780    0.378296   -1.080091
     45          1           0       -0.969129   -0.039832   -1.989110
     46          6           0        0.486345   -0.028108   -0.500370
     47          1           0        1.025732    0.868584   -0.184984
     48          6           0        1.235387   -0.747362   -1.636831
     49          6           0        0.303790   -0.950591    0.724255
     50          1           0       -0.213204   -0.376592    1.502210
     51          1           0       -0.309335   -1.815876    0.464256
     52          8           0        0.620094   -1.397841   -2.478726
     53          6           0        1.615145   -1.467627    1.286563
     54          8           0        1.823634   -2.598519    1.649962
     55          8           0        2.564744   -0.488500    1.332625
     56          7           0        2.575143   -0.571721   -1.642159
     57          1           0        3.026264   -0.151195   -0.837886
     58          6           0        3.430730   -1.176590   -2.646291
     59          1           0        2.942690   -2.088717   -3.006676
     60          6           0        4.737592   -1.557376   -1.965167
     61          6           0        3.672458   -0.233510   -3.855394
     62          1           0        4.279265   -0.772728   -4.591919
     63          1           0        4.263686    0.629480   -3.518290
     64          8           0        5.031568   -1.268371   -0.823346
     65          6           0        2.352760    0.247088   -4.467738
     66          1           0        1.766854    0.772014   -3.706413
     67          1           0        1.745584   -0.611392   -4.775266
     68          6           0        2.518260    1.202402   -5.654941
     69          1           0        3.189618    2.030450   -5.399950
     70          1           0        2.960882    0.692164   -6.515677
     71          7           0        1.229233    1.801737   -6.046801
     72          1           0        0.832693    2.346142   -5.284757
     73          7           0        0.647649    0.200197   -7.636942
     74          1           0       -0.078403   -0.286424   -8.144825
     75          1           0        1.381546    0.566672   -8.230211
     76          7           0       -0.973760    1.085789   -6.126260
     77          1           0       -0.981134    1.489704   -4.481987
     78          1           0       -1.652544    0.580487   -6.692862
     79          6           0        0.231729    1.017268   -6.603063
     80          8           0        5.546673   -2.236740   -2.796813
     81          1           0        6.366935   -2.435596   -2.305872
     82          1           0        3.396337   -0.911310    1.623284
 ---------------------------------------------------------------------

 SCF Done:  E(RB3LYP) =  -2166.39226203     A.U. after    1 cycles

 Alpha  occ. eigenvalues --  -19.27077 -19.26455 -19.26103 -19.22419 -19.21931
 Alpha  occ. eigenvalues --  -19.21655 -19.20589 -19.20255 -19.19661 -19.18763
 Alpha  occ. eigenvalues --  -14.59158 -14.49247 -14.45161 -14.43388 -14.43057
 Alpha  occ. eigenvalues --  -14.42164 -14.40651 -14.36713 -10.43365 -10.40700
 Alpha  occ. eigenvalues --  -10.39608 -10.38918 -10.38564 -10.36929 -10.35944
 Alpha  occ. eigenvalues --  -10.35791 -10.34125 -10.33662 -10.32535 -10.31966
 Alpha  occ. eigenvalues --  -10.31403 -10.31192 -10.31073 -10.30915 -10.30866
 Alpha  occ. eigenvalues --  -10.30123 -10.29862 -10.29757 -10.29640 -10.28224
 Alpha  occ. eigenvalues --  -10.27143 -10.25917 -10.23985  -1.18953  -1.18096
 Alpha  occ. eigenvalues --   -1.16678  -1.14326  -1.13293  -1.12016  -1.10835
 Alpha  occ. eigenvalues --   -1.09656  -1.09164  -1.07879  -1.07426  -1.05931
 Alpha  occ. eigenvalues --   -1.04672  -1.02040  -1.00346  -0.99948  -0.97370
 Alpha  occ. eigenvalues --   -0.95457  -0.93009  -0.91681  -0.88080  -0.87446
 Alpha  occ. eigenvalues --   -0.85936  -0.85545  -0.85225  -0.82688  -0.81039
 Alpha  occ. eigenvalues --   -0.79598  -0.76401  -0.74982  -0.74208  -0.73972
 Alpha  occ. eigenvalues --   -0.72779  -0.72052  -0.71081  -0.70718  -0.69710
 Alpha  occ. eigenvalues --   -0.69092  -0.68046  -0.67575  -0.66898  -0.66009
 Alpha  occ. eigenvalues --   -0.65751  -0.65508  -0.65275  -0.63469  -0.62506
 Alpha  occ. eigenvalues --   -0.61188  -0.61053  -0.60385  -0.59185  -0.58897
 Alpha  occ. eigenvalues --   -0.58646  -0.58345  -0.57457  -0.57183  -0.56853
 Alpha  occ. eigenvalues --   -0.56661  -0.56311  -0.55526  -0.55513  -0.55113
 Alpha  occ. eigenvalues --   -0.54779  -0.54484  -0.54099  -0.53839  -0.53673
 Alpha  occ. eigenvalues --   -0.53069  -0.52893  -0.52509  -0.52103  -0.52058
 Alpha  occ. eigenvalues --   -0.51703  -0.51340  -0.50890  -0.50621  -0.50481
 Alpha  occ. eigenvalues --   -0.50174  -0.49560  -0.48988  -0.48591  -0.48257
 Alpha  occ. eigenvalues --   -0.47856  -0.47633  -0.47195  -0.46572  -0.46218
 Alpha  occ. eigenvalues --   -0.45832  -0.45448  -0.45296  -0.44979  -0.44714
 Alpha  occ. eigenvalues --   -0.44137  -0.43572  -0.43245  -0.42226  -0.41456
 Alpha  occ. eigenvalues --   -0.41350  -0.41067  -0.40432  -0.40081  -0.39532
 Alpha  occ. eigenvalues --   -0.39020  -0.38367  -0.36847  -0.36388  -0.36275
 Alpha  occ. eigenvalues --   -0.35939  -0.35501  -0.35091  -0.34875  -0.34399
 Alpha  occ. eigenvalues --   -0.33885  -0.33529  -0.32953  -0.32870  -0.32334
 Alpha  occ. eigenvalues --   -0.31972  -0.29785
 Alpha virt. eigenvalues --   -0.12651  -0.12080  -0.11993  -0.08514  -0.08383
 Alpha virt. eigenvalues --   -0.06697  -0.06425  -0.05844  -0.04282  -0.04191
 Alpha virt. eigenvalues --   -0.03103  -0.02583  -0.01594  -0.00685   0.00087

 Mulliken charges:
               1
     1  N   -0.755225
     2  H    0.433192
     3  H    0.404118
     4  H    0.410104
     5  C   -0.115757
     6  H    0.228886
     7  C    0.656160
     8  C   -0.395072
     9  H    0.208014
    10  H    0.189158
    11  O   -0.533923
    12  C    0.140684
    13  C   -0.240589
    14  H    0.141812
    15  C   -0.185716
    16  H    0.175094
    17  C   -0.118574
    18  H    0.164695
    19  C   -0.129032
    20  H    0.164666
    21  C   -0.121489
    22  H    0.166744
    23  N   -0.603789
    24  H    0.370792
    25  C   -0.099226
    26  H    0.206446
    27  C    0.622425
    28  C   -0.026903
    29  H    0.151617
    30  H    0.168386
    31  O   -0.543223
    32  O   -0.642497
    33  H    0.446045
    34  N   -0.593093
    35  H    0.352103
    36  C   -0.105921
    37  H    0.189922
    38  C    0.652942
    39  C   -0.037195
    40  H    0.139390
    41  H    0.154764
    42  O   -0.576214
    43  O   -0.667785
    44  N   -0.585521
    45  H    0.371368
    46  C   -0.042745
    47  H    0.192648
    48  C    0.605233
    49  C   -0.343654
    50  H    0.200733
    51  H    0.197049
    52  O   -0.534850
    53  C    0.569519
    54  O   -0.436044
    55  O   -0.577937
    56  N   -0.608836
    57  H    0.368175
    58  C   -0.049131
    59  H    0.209800
    60  C    0.590754
    61  C   -0.268989
    62  H    0.167369
    63  H    0.142861
    64  O   -0.475561
    65  C   -0.280207
    66  H    0.167749
    67  H    0.174408
    68  C   -0.158641
    69  H    0.156279
    70  H    0.153336
    71  N   -0.581985
    72  H    0.334432
    73  N   -0.738451
    74  H    0.336961
    75  H    0.345414
    76  N   -0.736791
    77  H    0.455049
    78  H    0.284423
    79  C    0.651851
    80  O   -0.557107
    81  H    0.425768
    82  H    0.428337
 Sum of Mulliken charges =   1.00000

 Dipole moment (field-independent basis, Debye):
    X=            -28.0779    Y=             12.1981    Z=             -1.2642  Tot=             30.6392
 Quadrupole moment (field-independent basis, Debye-Ang):
   XX=             89.9337   YY=           -224.5176   ZZ=           -143.6272
   XY=           -114.9987   XZ=            -86.6775   YZ=             28.4531

 Normal termination of Gaussian 16 at Tue May 17 01:30:56 2022.
