 Gaussian 16, Revision C.01,
 Gaussian 16:  ES64L-G16RevC.01  3-Jul-2019

 ----------------------------------------------------------------------
 # B3LYP/6-31G* empiricaldispersion=gd3 guess=read geom=check nosymm in
 tegral(ultrafinegrid)
 ----------------------------------------------------------------------

 ------------------------------------------------------
 Candidate Structure: Conf:962 Charge calc in gas phase
 ------------------------------------------------------
 Structure from the checkpoint file:  "conf-962.chk"
 Charge =  1 Multiplicity = 1

                          Input orientation:
 ---------------------------------------------------------------------
 Center     Atomic      Atomic             Coordinates (Angstroms)
 Number     Number       Type             X           Y           Z
 ---------------------------------------------------------------------
      1          7           0       -5.803691    3.479906    6.517512
      2          1           0       -5.027741    3.792922    7.107429
      3          1           0       -6.054790    4.264515    5.866048
      4          1           0       -6.591252    3.200249    7.123733
      5          6           0       -5.415610    2.357910    5.582246
      6          1           0       -4.570326    1.824831    6.022478
      7          6           0       -5.046770    3.079303    4.266664
      8          6           0       -6.619402    1.403589    5.386550
      9          1           0       -7.388204    1.925581    4.804484
     10          1           0       -6.265029    0.569724    4.772025
     11          8           0       -5.458037    4.247236    4.127226
     12          6           0       -7.173131    0.928190    6.711120
     13          6           0       -6.510495   -0.065098    7.446577
     14          1           0       -5.634180   -0.554304    7.026367
     15          6           0       -8.311453    1.539484    7.261397
     16          1           0       -8.862892    2.278513    6.681531
     17          6           0       -6.980422   -0.443926    8.703156
     18          1           0       -6.468025   -1.224514    9.257591
     19          6           0       -8.778580    1.162754    8.525329
     20          1           0       -9.668586    1.632244    8.933528
     21          6           0       -8.112027    0.172833    9.246792
     22          1           0       -8.476743   -0.126588   10.224598
     23          7           0       -4.379886    2.355112    3.385989
     24          1           0       -3.992777    1.430671    3.616300
     25          6           0       -3.998172    2.733520    2.022121
     26          1           0       -4.899251    2.917279    1.425485
     27          6           0       -3.253341    1.482926    1.502949
     28          6           0       -3.121619    4.014183    1.959133
     29          1           0       -2.549581    4.014910    1.028009
     30          1           0       -2.389558    3.962668    2.781629
     31          8           0       -2.960153    0.574556    2.285986
     32          8           0       -3.885690    5.194758    1.964976
     33          1           0       -4.458369    5.181057    2.751990
     34          7           0       -2.985750    1.475277    0.190984
     35          1           0       -3.140310    2.318702   -0.346716
     36          6           0       -1.922315    0.663400   -0.367556
     37          1           0       -2.159504   -0.402122   -0.278002
     38          6           0       -0.601159    0.981791    0.342185
     39          6           0       -1.808479    1.055895   -1.880030
     40          1           0       -2.625474    0.544169   -2.411254
     41          1           0       -0.856096    0.665533   -2.272888
     42          8           0       -0.417328    2.053638    0.922274
     43          8           0       -1.934400    2.433871   -2.039441
     44          7           0        0.367991    0.024047    0.241102
     45          1           0        0.204713   -0.703392   -0.449761
     46          6           0        1.767296    0.439880    0.302425
     47          1           0        1.793418    1.377957    0.856845
     48          6           0        2.226221    0.655651   -1.155186
     49          6           0        2.652762   -0.610703    1.000662
     50          1           0        2.340824   -0.693671    2.047569
     51          1           0        2.541007   -1.587680    0.524073
     52          8           0        1.784664   -0.056931   -2.056020
     53          6           0        4.125259   -0.244652    0.931440
     54          8           0        5.006856   -0.969882    0.542421
     55          8           0        4.338378    1.040201    1.330588
     56          7           0        3.115384    1.656474   -1.333347
     57          1           0        3.491605    2.121011   -0.515753
     58          6           0        3.800092    1.904194   -2.591294
     59          1           0        3.754618    0.987705   -3.188958
     60          6           0        5.262309    2.192968   -2.269507
     61          6           0        3.141406    3.067021   -3.375535
     62          1           0        3.826706    3.405603   -4.159032
     63          1           0        3.021124    3.897431   -2.670719
     64          8           0        5.715644    2.341941   -1.151996
     65          6           0        1.777852    2.646056   -3.973649
     66          1           0        1.444287    1.705870   -3.527995
     67          1           0        1.894801    2.451682   -5.046449
     68          6           0        0.661763    3.676217   -3.754619
     69          1           0        0.976002    4.657491   -4.147612
     70          1           0       -0.223199    3.390230   -4.333785
     71          7           0        0.268691    3.705514   -2.350588
     72          1           0       -1.011896    2.923161   -2.040571
     73          7           0        1.451255    5.727667   -1.829637
     74          1           0        1.217884    6.578800   -1.325962
     75          1           0        1.585431    5.917460   -2.816101
     76          7           0        0.094732    4.673718   -0.258571
     77          1           0       -0.266406    3.775475    0.060961
     78          1           0        0.690070    5.118760    0.430881
     79          6           0        0.594736    4.661312   -1.544213
     80          8           0        6.001604    2.291306   -3.386987
     81          1           0        6.920200    2.476936   -3.113021
     82          1           0        5.261145    1.259201    1.090587
 ---------------------------------------------------------------------

 SCF Done:  E(RB3LYP) =  -2166.38333973     A.U. after    1 cycles

 Alpha  occ. eigenvalues --  -19.27356 -19.27296 -19.26075 -19.22097 -19.21796
 Alpha  occ. eigenvalues --  -19.21472 -19.20597 -19.20441 -19.19163 -19.17825
 Alpha  occ. eigenvalues --  -14.60210 -14.49522 -14.44290 -14.43983 -14.43504
 Alpha  occ. eigenvalues --  -14.42795 -14.41048 -14.37734 -10.43985 -10.41147
 Alpha  occ. eigenvalues --  -10.39978 -10.38733 -10.38514 -10.37190 -10.36607
 Alpha  occ. eigenvalues --  -10.36196 -10.34427 -10.33915 -10.32630 -10.32247
 Alpha  occ. eigenvalues --  -10.31390 -10.31311 -10.31090 -10.31007 -10.30947
 Alpha  occ. eigenvalues --  -10.30718 -10.30593 -10.30320 -10.30058 -10.27652
 Alpha  occ. eigenvalues --  -10.27622 -10.25587 -10.24039  -1.19444  -1.18456
 Alpha  occ. eigenvalues --   -1.16795  -1.14441  -1.13805  -1.12252  -1.11000
 Alpha  occ. eigenvalues --   -1.09482  -1.09442  -1.08025  -1.06271  -1.05970
 Alpha  occ. eigenvalues --   -1.05119  -1.01192  -1.00675  -1.00337  -0.98114
 Alpha  occ. eigenvalues --   -0.94657  -0.94232  -0.93654  -0.88541  -0.87703
 Alpha  occ. eigenvalues --   -0.86340  -0.85994  -0.85410  -0.82266  -0.81182
 Alpha  occ. eigenvalues --   -0.79821  -0.75964  -0.75734  -0.74419  -0.74320
 Alpha  occ. eigenvalues --   -0.73793  -0.72142  -0.71342  -0.70934  -0.70555
 Alpha  occ. eigenvalues --   -0.69572  -0.68257  -0.67772  -0.66752  -0.65988
 Alpha  occ. eigenvalues --   -0.65862  -0.65666  -0.64799  -0.63707  -0.63094
 Alpha  occ. eigenvalues --   -0.62125  -0.61306  -0.60691  -0.60023  -0.59764
 Alpha  occ. eigenvalues --   -0.59022  -0.58254  -0.57569  -0.57280  -0.57047
 Alpha  occ. eigenvalues --   -0.56934  -0.56737  -0.56238  -0.55636  -0.55161
 Alpha  occ. eigenvalues --   -0.54593  -0.54270  -0.54107  -0.53821  -0.53623
 Alpha  occ. eigenvalues --   -0.53380  -0.53194  -0.53052  -0.52631  -0.52597
 Alpha  occ. eigenvalues --   -0.51814  -0.51612  -0.51159  -0.50277  -0.50090
 Alpha  occ. eigenvalues --   -0.50045  -0.49216  -0.49161  -0.48803  -0.48586
 Alpha  occ. eigenvalues --   -0.48484  -0.47892  -0.47443  -0.47056  -0.46879
 Alpha  occ. eigenvalues --   -0.46216  -0.45856  -0.45831  -0.45445  -0.44979
 Alpha  occ. eigenvalues --   -0.44160  -0.44017  -0.43369  -0.43085  -0.41879
 Alpha  occ. eigenvalues --   -0.41289  -0.41174  -0.40624  -0.39511  -0.38888
 Alpha  occ. eigenvalues --   -0.38502  -0.38451  -0.37111  -0.36718  -0.36613
 Alpha  occ. eigenvalues --   -0.35768  -0.35532  -0.35244  -0.34605  -0.34460
 Alpha  occ. eigenvalues --   -0.34238  -0.33382  -0.32974  -0.32423  -0.32239
 Alpha  occ. eigenvalues --   -0.31577  -0.30040
 Alpha virt. eigenvalues --   -0.13662  -0.12819  -0.11437  -0.10307  -0.07734
 Alpha virt. eigenvalues --   -0.06943  -0.06829  -0.05926  -0.05242  -0.05160
 Alpha virt. eigenvalues --   -0.02957  -0.02856  -0.02205  -0.01771  -0.00809

 Mulliken charges:
               1
     1  N   -0.748125
     2  H    0.417139
     3  H    0.427837
     4  H    0.406413
     5  C   -0.115722
     6  H    0.216312
     7  C    0.665344
     8  C   -0.382041
     9  H    0.196393
    10  H    0.212407
    11  O   -0.568612
    12  C    0.137331
    13  C   -0.181515
    14  H    0.149715
    15  C   -0.233300
    16  H    0.153393
    17  C   -0.122197
    18  H    0.169861
    19  C   -0.119476
    20  H    0.169452
    21  C   -0.123785
    22  H    0.171214
    23  N   -0.620639
    24  H    0.376166
    25  C   -0.082972
    26  H    0.202869
    27  C    0.634359
    28  C   -0.031343
    29  H    0.188387
    30  H    0.133972
    31  O   -0.548459
    32  O   -0.626689
    33  H    0.422080
    34  N   -0.599003
    35  H    0.367932
    36  C   -0.081841
    37  H    0.175914
    38  C    0.639362
    39  C   -0.071152
    40  H    0.156667
    41  H    0.162214
    42  O   -0.552031
    43  O   -0.680468
    44  N   -0.581614
    45  H    0.349457
    46  C   -0.084407
    47  H    0.197958
    48  C    0.619832
    49  C   -0.340149
    50  H    0.195662
    51  H    0.192897
    52  O   -0.540560
    53  C    0.565520
    54  O   -0.433587
    55  O   -0.582563
    56  N   -0.585092
    57  H    0.360584
    58  C   -0.064154
    59  H    0.214261
    60  C    0.591174
    61  C   -0.283367
    62  H    0.168350
    63  H    0.162523
    64  O   -0.483807
    65  C   -0.280841
    66  H    0.195555
    67  H    0.147579
    68  C   -0.166172
    69  H    0.114935
    70  H    0.165336
    71  N   -0.572917
    72  H    0.467979
    73  N   -0.755643
    74  H    0.340053
    75  H    0.343840
    76  N   -0.793601
    77  H    0.396669
    78  H    0.327222
    79  C    0.661196
    80  O   -0.553015
    81  H    0.426294
    82  H    0.433253
 Sum of Mulliken charges =   1.00000

 Dipole moment (field-independent basis, Debye):
    X=            -18.0218    Y=             14.5135    Z=             23.2766  Tot=             32.8211
 Quadrupole moment (field-independent basis, Debye-Ang):
   XX=            -81.6513   YY=           -192.7456   ZZ=            -39.4323
   XY=            -19.0959   XZ=           -181.9415   YZ=             45.1379

 Normal termination of Gaussian 16 at Tue May 17 01:31:04 2022.
