 Gaussian 16, Revision C.01,
 Gaussian 16:  ES64L-G16RevC.01  3-Jul-2019

 ----------------------------------------------------------------------
 # B3LYP/6-31G* empiricaldispersion=gd3 guess=read geom=check nosymm in
 tegral(ultrafinegrid)
 ----------------------------------------------------------------------

 -----------------------------------------------------
 Candidate Structure: Conf:34 Charge calc in gas phase
 -----------------------------------------------------
 Structure from the checkpoint file:  "conf-34.chk"
 Charge =  1 Multiplicity = 1

                          Input orientation:
 ---------------------------------------------------------------------
 Center     Atomic      Atomic             Coordinates (Angstroms)
 Number     Number       Type             X           Y           Z
 ---------------------------------------------------------------------
      1          7           0       -8.590929    2.793336    4.275692
      2          1           0       -8.633166    2.488414    5.251843
      3          1           0       -7.936010    3.619564    4.220146
      4          1           0       -9.545169    3.011110    3.951598
      5          6           0       -7.919023    1.782505    3.377510
      6          1           0       -8.018803    0.797149    3.836707
      7          6           0       -6.452462    2.276782    3.326375
      8          6           0       -8.575627    1.806637    1.976775
      9          1           0       -8.327254    2.758907    1.492979
     10          1           0       -8.100441    1.017072    1.384714
     11          8           0       -6.233925    3.445279    3.664816
     12          6           0      -10.074068    1.617981    2.058669
     13          6           0      -10.623030    0.348292    2.288787
     14          1           0       -9.971419   -0.521943    2.331994
     15          6           0      -10.930768    2.728391    1.990635
     16          1           0      -10.523013    3.713335    1.766813
     17          6           0      -11.999699    0.191655    2.442343
     18          1           0      -12.414731   -0.798367    2.606477
     19          6           0      -12.311711    2.571263    2.150832
     20          1           0      -12.964719    3.436214    2.082325
     21          6           0      -12.845965    1.303465    2.378830
     22          1           0      -13.917931    1.177669    2.496681
     23          7           0       -5.569305    1.396024    2.866665
     24          1           0       -5.862097    0.510980    2.452473
     25          6           0       -4.162176    1.682041    2.627360
     26          1           0       -4.045098    2.757081    2.463414
     27          6           0       -3.775005    0.853500    1.383685
     28          6           0       -3.301345    1.256459    3.828718
     29          1           0       -2.252678    1.512746    3.616742
     30          1           0       -3.363885    0.161520    3.938578
     31          8           0       -4.521018   -0.047005    0.991415
     32          8           0       -3.801949    1.932728    4.966678
     33          1           0       -3.211539    1.747943    5.713085
     34          7           0       -2.589174    1.160603    0.836586
     35          1           0       -1.960878    1.833016    1.273695
     36          6           0       -1.923924    0.320384   -0.146799
     37          1           0       -2.164452   -0.729022    0.054074
     38          6           0       -0.413499    0.541988    0.058501
     39          6           0       -2.388863    0.649207   -1.581990
     40          1           0       -2.226011    1.721141   -1.756564
     41          1           0       -3.472506    0.463238   -1.625837
     42          8           0       -0.000101    1.427411    0.818320
     43          8           0       -1.675683   -0.160447   -2.486517
     44          7           0        0.374574   -0.312669   -0.620256
     45          1           0       -0.052889   -0.740900   -1.442172
     46          6           0        1.831917   -0.266152   -0.513869
     47          1           0        2.056310    0.103649    0.488945
     48          6           0        2.357555    0.694521   -1.591497
     49          6           0        2.415006   -1.662880   -0.695284
     50          1           0        2.127537   -2.086499   -1.662160
     51          1           0        3.510213   -1.609116   -0.715999
     52          8           0        2.668069    0.294726   -2.709760
     53          6           0        2.010084   -2.590726    0.430191
     54          8           0        1.524327   -2.251798    1.487367
     55          8           0        2.283649   -3.878279    0.120246
     56          7           0        2.364043    2.004239   -1.224093
     57          1           0        2.038139    2.269196   -0.301348
     58          6           0        2.669970    3.041808   -2.186811
     59          1           0        3.233443    2.558173   -2.987906
     60          6           0        3.534870    4.100632   -1.525266
     61          6           0        1.409894    3.722164   -2.808264
     62          1           0        1.691269    4.083945   -3.804691
     63          1           0        1.135981    4.611081   -2.224262
     64          8           0        3.651057    4.258213   -0.331024
     65          6           0        0.195195    2.788085   -2.875489
     66          1           0       -0.185777    2.649259   -1.857687
     67          1           0        0.481326    1.797415   -3.241430
     68          6           0       -0.926414    3.337146   -3.772068
     69          1           0       -1.883047    2.876865   -3.516692
     70          1           0       -1.039985    4.419148   -3.633983
     71          7           0       -0.717581    3.093746   -5.195371
     72          1           0        0.060670    3.589077   -5.612983
     73          7           0       -1.460275    0.886007   -5.022833
     74          1           0       -1.686429    0.078166   -5.601059
     75          1           0       -1.586772    0.307057   -3.366494
     76          7           0       -0.554700    1.745798   -7.058303
     77          1           0       -0.716636    2.566575   -7.629888
     78          1           0       -0.803725    0.885768   -7.528534
     79          6           0       -0.944826    1.842215   -5.728158
     80          8           0        4.113499    4.898588   -2.449427
     81          1           0        4.613126    5.581352   -1.962262
     82          1           0        2.037115   -4.412819    0.898699
 ---------------------------------------------------------------------

 SCF Done:  E(RB3LYP) =  -2166.37218718     A.U. after    1 cycles

 Alpha  occ. eigenvalues --  -19.25760 -19.25632 -19.24967 -19.23974 -19.21549
 Alpha  occ. eigenvalues --  -19.20064 -19.19773 -19.19419 -19.19237 -19.17276
 Alpha  occ. eigenvalues --  -14.59133 -14.48652 -14.45036 -14.42655 -14.41976
 Alpha  occ. eigenvalues --  -14.41931 -14.41765 -14.36635 -10.42627 -10.40117
 Alpha  occ. eigenvalues --  -10.38654 -10.38048 -10.37703 -10.36296 -10.36016
 Alpha  occ. eigenvalues --  -10.34493 -10.33983 -10.33803 -10.33521 -10.32116
 Alpha  occ. eigenvalues --  -10.30901 -10.30831 -10.30529 -10.30273 -10.30148
 Alpha  occ. eigenvalues --  -10.30108 -10.29880 -10.29713 -10.29712 -10.28424
 Alpha  occ. eigenvalues --  -10.26090 -10.25824 -10.24540  -1.18254  -1.16611
 Alpha  occ. eigenvalues --   -1.15887  -1.13712  -1.13032  -1.11461  -1.11309
 Alpha  occ. eigenvalues --   -1.09287  -1.07708  -1.06941  -1.06871  -1.05309
 Alpha  occ. eigenvalues --   -1.05069  -1.01642  -0.99658  -0.98458  -0.97586
 Alpha  occ. eigenvalues --   -0.95973  -0.92977  -0.91614  -0.88487  -0.86595
 Alpha  occ. eigenvalues --   -0.85922  -0.85679  -0.85049  -0.82229  -0.81038
 Alpha  occ. eigenvalues --   -0.79286  -0.75793  -0.75147  -0.74035  -0.73403
 Alpha  occ. eigenvalues --   -0.72944  -0.72505  -0.71537  -0.70183  -0.70066
 Alpha  occ. eigenvalues --   -0.68532  -0.68252  -0.67305  -0.66278  -0.65190
 Alpha  occ. eigenvalues --   -0.64729  -0.64494  -0.64246  -0.62959  -0.62652
 Alpha  occ. eigenvalues --   -0.61417  -0.61224  -0.60519  -0.59720  -0.59308
 Alpha  occ. eigenvalues --   -0.58597  -0.57675  -0.57255  -0.57147  -0.56492
 Alpha  occ. eigenvalues --   -0.55572  -0.55191  -0.55138  -0.54729  -0.54342
 Alpha  occ. eigenvalues --   -0.54134  -0.54015  -0.53491  -0.53338  -0.53295
 Alpha  occ. eigenvalues --   -0.53168  -0.52660  -0.52354  -0.52060  -0.51592
 Alpha  occ. eigenvalues --   -0.51399  -0.51161  -0.50934  -0.50354  -0.50280
 Alpha  occ. eigenvalues --   -0.49789  -0.49268  -0.48456  -0.47579  -0.47554
 Alpha  occ. eigenvalues --   -0.47308  -0.47010  -0.46640  -0.45868  -0.45691
 Alpha  occ. eigenvalues --   -0.45645  -0.45399  -0.44927  -0.44575  -0.44118
 Alpha  occ. eigenvalues --   -0.43861  -0.43621  -0.43395  -0.42746  -0.42103
 Alpha  occ. eigenvalues --   -0.40522  -0.40457  -0.40377  -0.39610  -0.38314
 Alpha  occ. eigenvalues --   -0.37873  -0.37298  -0.36648  -0.36613  -0.36106
 Alpha  occ. eigenvalues --   -0.35818  -0.35632  -0.34576  -0.34136  -0.33829
 Alpha  occ. eigenvalues --   -0.33662  -0.32877  -0.32515  -0.32041  -0.31303
 Alpha  occ. eigenvalues --   -0.30203  -0.30058
 Alpha virt. eigenvalues --   -0.12780  -0.12270  -0.10326  -0.09393  -0.07427
 Alpha virt. eigenvalues --   -0.05988  -0.04945  -0.04362  -0.04167  -0.03207
 Alpha virt. eigenvalues --   -0.02497  -0.02197  -0.01577  -0.01169  -0.00628

 Mulliken charges:
               1
     1  N   -0.749146
     2  H    0.416254
     3  H    0.425948
     4  H    0.403839
     5  C   -0.117174
     6  H    0.212349
     7  C    0.672621
     8  C   -0.386886
     9  H    0.193394
    10  H    0.211496
    11  O   -0.529620
    12  C    0.141495
    13  C   -0.180862
    14  H    0.147457
    15  C   -0.231940
    16  H    0.150919
    17  C   -0.122638
    18  H    0.167862
    19  C   -0.120230
    20  H    0.167030
    21  C   -0.124234
    22  H    0.169037
    23  N   -0.593501
    24  H    0.365496
    25  C   -0.093480
    26  H    0.204830
    27  C    0.623177
    28  C   -0.022093
    29  H    0.161483
    30  H    0.145819
    31  O   -0.540954
    32  O   -0.615388
    33  H    0.412533
    34  N   -0.616688
    35  H    0.363588
    36  C   -0.077271
    37  H    0.200379
    38  C    0.626096
    39  C   -0.011915
    40  H    0.126459
    41  H    0.150613
    42  O   -0.564427
    43  O   -0.691774
    44  N   -0.595175
    45  H    0.377847
    46  C   -0.064643
    47  H    0.198279
    48  C    0.634099
    49  C   -0.375701
    50  H    0.202481
    51  H    0.205876
    52  O   -0.532540
    53  C    0.588627
    54  O   -0.462764
    55  O   -0.563109
    56  N   -0.604456
    57  H    0.360470
    58  C   -0.033465
    59  H    0.211648
    60  C    0.574812
    61  C   -0.288832
    62  H    0.150535
    63  H    0.149441
    64  O   -0.458117
    65  C   -0.283993
    66  H    0.142627
    67  H    0.189603
    68  C   -0.152423
    69  H    0.174114
    70  H    0.149886
    71  N   -0.590166
    72  H    0.330937
    73  N   -0.717115
    74  H    0.293525
    75  H    0.471464
    76  N   -0.761362
    77  H    0.338003
    78  H    0.337180
    79  C    0.663717
    80  O   -0.564279
    81  H    0.419348
    82  H    0.413672
 Sum of Mulliken charges =   1.00000

 Dipole moment (field-independent basis, Debye):
    X=            -33.2392    Y=             10.6467    Z=              7.3776  Tot=             35.6739
 Quadrupole moment (field-independent basis, Debye-Ang):
   XX=             82.9169   YY=           -198.2835   ZZ=           -129.2915
   XY=            -64.0944   XZ=           -121.4259   YZ=             -1.7513

 Normal termination of Gaussian 16 at Tue May 17 01:30:54 2022.
