 Gaussian 16, Revision C.01,
 Gaussian 16:  ES64L-G16RevC.01  3-Jul-2019

 ----------------------------------------------------------------------
 # B3LYP/6-31G* empiricaldispersion=gd3 guess=read geom=check nosymm in
 tegral(ultrafinegrid)
 ----------------------------------------------------------------------

 ------------------------------------------------------
 Candidate Structure: Conf:474 Charge calc in gas phase
 ------------------------------------------------------
 Structure from the checkpoint file:  "conf-474.chk"
 Charge =  1 Multiplicity = 1

                          Input orientation:
 ---------------------------------------------------------------------
 Center     Atomic      Atomic             Coordinates (Angstroms)
 Number     Number       Type             X           Y           Z
 ---------------------------------------------------------------------
      1          7           0       -8.333889    1.260139    3.685076
      2          1           0       -8.981028    0.994422    4.429865
      3          1           0       -7.772033    2.122798    3.933507
      4          1           0       -8.862606    1.464415    2.819776
      5          6           0       -7.260407    0.235850    3.396934
      6          1           0       -7.165682   -0.394963    4.285963
      7          6           0       -5.979796    1.116805    3.280206
      8          6           0       -7.629981   -0.619338    2.161624
      9          1           0       -6.788965   -1.285592    1.943702
     10          1           0       -8.467479   -1.270570    2.438018
     11          8           0       -6.070182    2.304792    3.608180
     12          6           0       -7.985481    0.228925    0.959389
     13          6           0       -9.323018    0.600760    0.737175
     14          1           0      -10.115046    0.172077    1.351630
     15          6           0       -6.989914    0.712213    0.097953
     16          1           0       -5.956980    0.402833    0.231814
     17          6           0       -9.657708    1.460412   -0.313771
     18          1           0      -10.696046    1.730315   -0.481869
     19          6           0       -7.329512    1.563227   -0.953695
     20          1           0       -6.552595    1.922232   -1.622211
     21          6           0       -8.658111    1.947741   -1.155695
     22          1           0       -8.914434    2.610819   -1.976405
     23          7           0       -4.867513    0.497298    2.881980
     24          1           0       -4.927361   -0.406284    2.415501
     25          6           0       -3.629304    1.195831    2.538143
     26          1           0       -3.825590    2.270783    2.542169
     27          6           0       -3.209560    0.664769    1.158720
     28          6           0       -2.513538    0.874608    3.570529
     29          1           0       -1.621036    1.454371    3.321778
     30          1           0       -2.233664   -0.186368    3.491800
     31          8           0       -3.736592   -0.356958    0.711651
     32          8           0       -2.901808    1.242359    4.877878
     33          1           0       -3.527965    0.577223    5.200717
     34          7           0       -2.192455    1.328939    0.560075
     35          1           0       -1.737109    2.043305    1.126144
     36          6           0       -1.208289    0.581174   -0.218293
     37          1           0       -1.529111   -0.463994   -0.250184
     38          6           0        0.108279    0.669780    0.583748
     39          6           0       -1.053873    1.041167   -1.677594
     40          1           0       -0.626016    2.058224   -1.707555
     41          1           0       -2.058142    1.089854   -2.126992
     42          8           0        0.220905    1.426286    1.554603
     43          8           0       -0.228762    0.083871   -2.297266
     44          7           0        1.076912   -0.155570    0.155592
     45          1           0        0.926853   -0.666094   -0.711835
     46          6           0        2.327121   -0.360464    0.874957
     47          1           0        2.550177    0.552532    1.433576
     48          6           0        3.343151   -0.630795   -0.243321
     49          6           0        2.205026   -1.553444    1.851505
     50          1           0        1.942691   -2.446122    1.280427
     51          1           0        3.160642   -1.708813    2.360986
     52          8           0        3.193065   -1.603430   -0.975134
     53          6           0        1.115539   -1.262681    2.862822
     54          8           0       -0.061399   -1.528885    2.725019
     55          8           0        1.604150   -0.598848    3.932306
     56          7           0        4.283770    0.328708   -0.438790
     57          1           0        4.387411    1.091786    0.217358
     58          6           0        4.989013    0.439652   -1.702956
     59          1           0        4.973352   -0.548050   -2.168321
     60          6           0        6.421749    0.868530   -1.435127
     61          6           0        4.316915    1.474415   -2.653504
     62          1           0        4.756055    1.338671   -3.649523
     63          1           0        4.587285    2.487898   -2.323561
     64          8           0        6.799064    1.401004   -0.415411
     65          6           0        2.787815    1.355739   -2.694324
     66          1           0        2.387663    1.555367   -1.694739
     67          1           0        2.479191    0.336680   -2.946936
     68          6           0        2.131941    2.345867   -3.668220
     69          1           0        1.069861    2.444875   -3.435587
     70          1           0        2.581395    3.340897   -3.562480
     71          7           0        2.221239    1.968766   -5.074352
     72          1           0        3.153293    1.956895   -5.468714
     73          7           0        0.362652    0.567559   -4.931672
     74          1           0       -0.245592   -0.010879   -5.508305
     75          1           0       -0.014285    0.338886   -3.240914
     76          7           0        1.689271    0.684781   -6.915131
     77          1           0        2.044080    1.432066   -7.500713
     78          1           0        1.010817    0.107666   -7.394559
     79          6           0        1.357754    1.040891   -5.612070
     80          8           0        7.207578    0.646837   -2.508240
     81          1           0        8.095609    0.988851   -2.289301
     82          1           0        0.843599   -0.363274    4.495968
 ---------------------------------------------------------------------

 SCF Done:  E(RB3LYP) =  -2166.37202489     A.U. after    1 cycles

 Alpha  occ. eigenvalues --  -19.26570 -19.26523 -19.25922 -19.23358 -19.22211
 Alpha  occ. eigenvalues --  -19.20844 -19.20392 -19.19371 -19.18907 -19.18569
 Alpha  occ. eigenvalues --  -14.59012 -14.49168 -14.44757 -14.43428 -14.42872
 Alpha  occ. eigenvalues --  -14.42242 -14.42154 -14.36780 -10.43446 -10.40680
 Alpha  occ. eigenvalues --  -10.38861 -10.38846 -10.38626 -10.36249 -10.36186
 Alpha  occ. eigenvalues --  -10.36028 -10.34030 -10.33595 -10.32170 -10.31817
 Alpha  occ. eigenvalues --  -10.31327 -10.30742 -10.30723 -10.30552 -10.30195
 Alpha  occ. eigenvalues --  -10.30011 -10.29636 -10.29583 -10.29519 -10.28534
 Alpha  occ. eigenvalues --  -10.26718 -10.26427 -10.24721  -1.19041  -1.17405
 Alpha  occ. eigenvalues --   -1.16791  -1.14066  -1.13198  -1.11420  -1.10860
 Alpha  occ. eigenvalues --   -1.10604  -1.08530  -1.07763  -1.06634  -1.05703
 Alpha  occ. eigenvalues --   -1.05291  -1.01642  -1.00045  -0.99853  -0.97244
 Alpha  occ. eigenvalues --   -0.96183  -0.92885  -0.91834  -0.88009  -0.87151
 Alpha  occ. eigenvalues --   -0.86005  -0.85433  -0.85221  -0.82074  -0.81590
 Alpha  occ. eigenvalues --   -0.79523  -0.76604  -0.74806  -0.74486  -0.74132
 Alpha  occ. eigenvalues --   -0.72744  -0.72003  -0.70875  -0.70379  -0.69347
 Alpha  occ. eigenvalues --   -0.68917  -0.68422  -0.67787  -0.66340  -0.65959
 Alpha  occ. eigenvalues --   -0.65625  -0.65431  -0.65082  -0.63450  -0.62110
 Alpha  occ. eigenvalues --   -0.61582  -0.61035  -0.60953  -0.59752  -0.59302
 Alpha  occ. eigenvalues --   -0.58581  -0.58142  -0.57410  -0.56886  -0.56658
 Alpha  occ. eigenvalues --   -0.56157  -0.56088  -0.55663  -0.54880  -0.54746
 Alpha  occ. eigenvalues --   -0.54463  -0.54163  -0.53821  -0.53715  -0.53223
 Alpha  occ. eigenvalues --   -0.52696  -0.52555  -0.52463  -0.52137  -0.51810
 Alpha  occ. eigenvalues --   -0.51659  -0.51398  -0.51205  -0.50537  -0.50384
 Alpha  occ. eigenvalues --   -0.50059  -0.49615  -0.48780  -0.48459  -0.47993
 Alpha  occ. eigenvalues --   -0.47600  -0.47167  -0.47078  -0.46520  -0.46098
 Alpha  occ. eigenvalues --   -0.45999  -0.45351  -0.45162  -0.44832  -0.44590
 Alpha  occ. eigenvalues --   -0.44064  -0.43977  -0.43074  -0.42690  -0.42019
 Alpha  occ. eigenvalues --   -0.41104  -0.41043  -0.40799  -0.39990  -0.39657
 Alpha  occ. eigenvalues --   -0.38561  -0.38058  -0.37073  -0.36243  -0.35906
 Alpha  occ. eigenvalues --   -0.35816  -0.35013  -0.34770  -0.34446  -0.34175
 Alpha  occ. eigenvalues --   -0.33859  -0.33094  -0.32780  -0.32616  -0.32185
 Alpha  occ. eigenvalues --   -0.31234  -0.30293
 Alpha virt. eigenvalues --   -0.12736  -0.12013  -0.11813  -0.08542  -0.08341
 Alpha virt. eigenvalues --   -0.06659  -0.05691  -0.05405  -0.04257  -0.04061
 Alpha virt. eigenvalues --   -0.03054  -0.02293  -0.01420  -0.00994  -0.00726

 Mulliken charges:
               1
     1  N   -0.756961
     2  H    0.409554
     3  H    0.433501
     4  H    0.404168
     5  C   -0.112993
     6  H    0.223686
     7  C    0.643914
     8  C   -0.394418
     9  H    0.210131
    10  H    0.188876
    11  O   -0.520479
    12  C    0.134403
    13  C   -0.241017
    14  H    0.142736
    15  C   -0.186723
    16  H    0.184556
    17  C   -0.118359
    18  H    0.164142
    19  C   -0.130685
    20  H    0.165067
    21  C   -0.121775
    22  H    0.165975
    23  N   -0.605825
    24  H    0.368876
    25  C   -0.106101
    26  H    0.208349
    27  C    0.617512
    28  C   -0.071693
    29  H    0.197142
    30  H    0.172016
    31  O   -0.528351
    32  O   -0.596253
    33  H    0.393333
    34  N   -0.584426
    35  H    0.355400
    36  C   -0.105522
    37  H    0.214177
    38  C    0.626731
    39  C   -0.008627
    40  H    0.120907
    41  H    0.135924
    42  O   -0.561242
    43  O   -0.692375
    44  N   -0.600653
    45  H    0.389159
    46  C   -0.060235
    47  H    0.187837
    48  C    0.620650
    49  C   -0.317138
    50  H    0.200278
    51  H    0.183916
    52  O   -0.522436
    53  C    0.578647
    54  O   -0.476869
    55  O   -0.551596
    56  N   -0.595075
    57  H    0.347541
    58  C   -0.050387
    59  H    0.215193
    60  C    0.587458
    61  C   -0.283885
    62  H    0.155549
    63  H    0.146763
    64  O   -0.459902
    65  C   -0.273151
    66  H    0.143868
    67  H    0.184697
    68  C   -0.150574
    69  H    0.175872
    70  H    0.150494
    71  N   -0.591334
    72  H    0.329737
    73  N   -0.722126
    74  H    0.291108
    75  H    0.476480
    76  N   -0.762319
    77  H    0.337773
    78  H    0.336318
    79  C    0.667162
    80  O   -0.562674
    81  H    0.422649
    82  H    0.413953
 Sum of Mulliken charges =   1.00000

 Dipole moment (field-independent basis, Debye):
    X=            -24.7144    Y=              5.6416    Z=              2.6197  Tot=             25.4851
 Quadrupole moment (field-independent basis, Debye-Ang):
   XX=             46.0218   YY=           -247.4407   ZZ=           -138.4679
   XY=            -11.9297   XZ=           -114.7085   YZ=            -22.5896

 Normal termination of Gaussian 16 at Tue May 17 01:30:57 2022.
