 Gaussian 16, Revision C.01,
 Gaussian 16:  ES64L-G16RevC.01  3-Jul-2019

 ----------------------------------------------------------------------
 # B3LYP/6-31G* empiricaldispersion=gd3 guess=read geom=check nosymm in
 tegral(ultrafinegrid)
 ----------------------------------------------------------------------

 ------------------------------------------------------
 Candidate Structure: Conf:705 Charge calc in gas phase
 ------------------------------------------------------
 Structure from the checkpoint file:  "conf-705.chk"
 Charge =  1 Multiplicity = 1

                          Input orientation:
 ---------------------------------------------------------------------
 Center     Atomic      Atomic             Coordinates (Angstroms)
 Number     Number       Type             X           Y           Z
 ---------------------------------------------------------------------
      1          7           0       -7.681835    1.278877    3.648027
      2          1           0       -8.061009    1.561526    4.554262
      3          1           0       -7.552686    2.128847    3.001534
      4          1           0       -8.323839    0.607157    3.218229
      5          6           0       -6.256401    0.759551    3.712109
      6          1           0       -5.883215    0.978397    4.715452
      7          6           0       -5.517010    1.670565    2.684439
      8          6           0       -6.208007   -0.762771    3.458510
      9          1           0       -6.996097   -1.225365    4.068616
     10          1           0       -6.446617   -0.961475    2.407067
     11          8           0       -6.160627    2.620041    2.204260
     12          6           0       -4.866298   -1.370746    3.822548
     13          6           0       -3.988933   -1.817754    2.827042
     14          1           0       -4.267478   -1.743614    1.781044
     15          6           0       -4.478120   -1.456342    5.168121
     16          1           0       -5.159410   -1.133724    5.953927
     17          6           0       -2.726367   -2.313452    3.166462
     18          1           0       -2.040957   -2.626047    2.385404
     19          6           0       -3.226637   -1.965912    5.508826
     20          1           0       -2.937393   -2.032632    6.553532
     21          6           0       -2.347080   -2.387580    4.506731
     22          1           0       -1.366322   -2.771968    4.770703
     23          7           0       -4.244297    1.394289    2.435987
     24          1           0       -3.858060    0.509278    2.757802
     25          6           0       -3.425743    2.111924    1.462603
     26          1           0       -4.024141    2.912814    1.025197
     27          6           0       -2.935338    1.113295    0.413729
     28          6           0       -2.190045    2.727743    2.192717
     29          1           0       -1.669924    1.916603    2.725318
     30          1           0       -2.566592    3.437618    2.936934
     31          8           0       -2.927402   -0.097335    0.643044
     32          8           0       -1.341232    3.414481    1.313200
     33          1           0       -0.736657    2.749548    0.920166
     34          7           0       -2.414813    1.654783   -0.706832
     35          1           0       -2.308047    2.659052   -0.805157
     36          6           0       -1.469979    0.870034   -1.470597
     37          1           0       -1.979744   -0.017532   -1.859656
     38          6           0       -0.321538    0.427869   -0.536506
     39          6           0       -0.893145    1.714115   -2.643781
     40          1           0       -1.240240    1.279339   -3.590960
     41          1           0        0.203984    1.632697   -2.644701
     42          8           0        0.070843    1.145732    0.395234
     43          8           0       -1.306726    3.043618   -2.484947
     44          7           0        0.280656   -0.728275   -0.859327
     45          1           0       -0.045273   -1.233869   -1.673502
     46          6           0        1.520253   -1.201529   -0.226619
     47          1           0        1.457968   -0.929306    0.829953
     48          6           0        2.685887   -0.477342   -0.933507
     49          6           0        1.634842   -2.712925   -0.364618
     50          1           0        1.594046   -3.023424   -1.412959
     51          1           0        2.621333   -3.033556   -0.009129
     52          8           0        3.298181   -0.992798   -1.858860
     53          6           0        0.586364   -3.434688    0.455120
     54          8           0        0.016469   -2.973503    1.421600
     55          8           0        0.373948   -4.683540   -0.006334
     56          7           0        2.853605    0.806513   -0.511527
     57          1           0        2.218981    1.128413    0.210516
     58          6           0        3.474857    1.816028   -1.353812
     59          1           0        3.516126    1.399618   -2.367473
     60          6           0        4.927422    2.131515   -1.001738
     61          6           0        2.633466    3.118890   -1.357222
     62          1           0        2.970862    3.784809   -0.553090
     63          1           0        1.597446    2.850496   -1.121868
     64          8           0        5.573877    2.970417   -1.591209
     65          6           0        2.662465    3.846319   -2.704318
     66          1           0        2.307769    3.163377   -3.488198
     67          1           0        3.690607    4.121475   -2.958645
     68          6           0        1.757912    5.083905   -2.714918
     69          1           0        0.761887    4.823006   -2.350909
     70          1           0        2.151927    5.858358   -2.047203
     71          7           0        1.630252    5.657665   -4.047936
     72          1           0        2.185364    6.469793   -4.269328
     73          7           0       -0.341725    4.528772   -4.563238
     74          1           0       -0.996232    4.387203   -5.330390
     75          1           0       -0.916520    3.646492   -3.190850
     76          7           0        0.627922    6.097739   -6.077762
     77          1           0        1.548047    6.284889   -6.459176
     78          1           0       -0.020760    5.786657   -6.788221
     79          6           0        0.590720    5.372568   -4.888019
     80          8           0        5.412096    1.396258    0.016576
     81          1           0        6.342961    1.667953    0.129986
     82          1           0       -0.267776   -5.108320    0.593872
 ---------------------------------------------------------------------

 SCF Done:  E(RB3LYP) =  -2166.37263071     A.U. after    1 cycles

 Alpha  occ. eigenvalues --  -19.27636 -19.26507 -19.25629 -19.22189 -19.21870
 Alpha  occ. eigenvalues --  -19.21057 -19.20471 -19.19618 -19.19459 -19.18632
 Alpha  occ. eigenvalues --  -14.59582 -14.48918 -14.46192 -14.43669 -14.42571
 Alpha  occ. eigenvalues --  -14.42120 -14.42092 -14.36499 -10.43236 -10.40523
 Alpha  occ. eigenvalues --  -10.40397 -10.38353 -10.37870 -10.37344 -10.36250
 Alpha  occ. eigenvalues --  -10.35734 -10.33747 -10.32785 -10.32017 -10.31963
 Alpha  occ. eigenvalues --  -10.31956 -10.31358 -10.30452 -10.30269 -10.28862
 Alpha  occ. eigenvalues --  -10.28445 -10.28155 -10.28152 -10.28014 -10.27668
 Alpha  occ. eigenvalues --  -10.27198 -10.25911 -10.24403  -1.18891  -1.18618
 Alpha  occ. eigenvalues --   -1.16492  -1.13893  -1.13404  -1.12263  -1.10503
 Alpha  occ. eigenvalues --   -1.09676  -1.09002  -1.07456  -1.07351  -1.05558
 Alpha  occ. eigenvalues --   -1.05169  -1.02380  -1.00529  -0.99562  -0.96036
 Alpha  occ. eigenvalues --   -0.96001  -0.92122  -0.91588  -0.88417  -0.86885
 Alpha  occ. eigenvalues --   -0.86270  -0.84682  -0.83562  -0.82813  -0.81163
 Alpha  occ. eigenvalues --   -0.79160  -0.77377  -0.74229  -0.74151  -0.73771
 Alpha  occ. eigenvalues --   -0.72656  -0.71756  -0.70881  -0.69825  -0.69435
 Alpha  occ. eigenvalues --   -0.68905  -0.68267  -0.67526  -0.67127  -0.66050
 Alpha  occ. eigenvalues --   -0.65920  -0.65317  -0.64547  -0.62772  -0.61657
 Alpha  occ. eigenvalues --   -0.61386  -0.60431  -0.60248  -0.60086  -0.59498
 Alpha  occ. eigenvalues --   -0.59171  -0.58417  -0.57836  -0.57716  -0.57084
 Alpha  occ. eigenvalues --   -0.56806  -0.56328  -0.55649  -0.55497  -0.54706
 Alpha  occ. eigenvalues --   -0.54517  -0.54190  -0.53637  -0.53546  -0.53257
 Alpha  occ. eigenvalues --   -0.53003  -0.52408  -0.52235  -0.52106  -0.51516
 Alpha  occ. eigenvalues --   -0.50867  -0.50767  -0.50646  -0.50332  -0.49973
 Alpha  occ. eigenvalues --   -0.49881  -0.49529  -0.48825  -0.48154  -0.47771
 Alpha  occ. eigenvalues --   -0.47733  -0.46945  -0.46688  -0.46340  -0.45645
 Alpha  occ. eigenvalues --   -0.45590  -0.45100  -0.44944  -0.44396  -0.44118
 Alpha  occ. eigenvalues --   -0.43589  -0.43535  -0.42999  -0.42468  -0.41391
 Alpha  occ. eigenvalues --   -0.41202  -0.40963  -0.40644  -0.40083  -0.39888
 Alpha  occ. eigenvalues --   -0.39285  -0.37413  -0.36801  -0.36289  -0.35830
 Alpha  occ. eigenvalues --   -0.35386  -0.35079  -0.34816  -0.34683  -0.34174
 Alpha  occ. eigenvalues --   -0.33837  -0.33257  -0.32598  -0.32168  -0.31643
 Alpha  occ. eigenvalues --   -0.31170  -0.29656
 Alpha virt. eigenvalues --   -0.12445  -0.10770  -0.09942  -0.09300  -0.08214
 Alpha virt. eigenvalues --   -0.07066  -0.06512  -0.05781  -0.04898  -0.04540
 Alpha virt. eigenvalues --   -0.03039  -0.01959  -0.00935  -0.00606  -0.00360

 Mulliken charges:
               1
     1  N   -0.764493
     2  H    0.415137
     3  H    0.436687
     4  H    0.413144
     5  C   -0.106838
     6  H    0.228468
     7  C    0.634310
     8  C   -0.380932
     9  H    0.179120
    10  H    0.187029
    11  O   -0.538274
    12  C    0.119558
    13  C   -0.197014
    14  H    0.166792
    15  C   -0.179744
    16  H    0.123295
    17  C   -0.129337
    18  H    0.195578
    19  C   -0.126341
    20  H    0.155026
    21  C   -0.136878
    22  H    0.159722
    23  N   -0.580605
    24  H    0.389852
    25  C   -0.119825
    26  H    0.207229
    27  C    0.624198
    28  C   -0.027019
    29  H    0.147282
    30  H    0.158556
    31  O   -0.546607
    32  O   -0.638298
    33  H    0.441457
    34  N   -0.591087
    35  H    0.381680
    36  C   -0.064649
    37  H    0.173408
    38  C    0.654339
    39  C   -0.029796
    40  H    0.137982
    41  H    0.140785
    42  O   -0.577380
    43  O   -0.693926
    44  N   -0.587526
    45  H    0.345795
    46  C   -0.065054
    47  H    0.205036
    48  C    0.616419
    49  C   -0.389342
    50  H    0.201071
    51  H    0.221421
    52  O   -0.511866
    53  C    0.587359
    54  O   -0.454034
    55  O   -0.553240
    56  N   -0.610102
    57  H    0.363117
    58  C   -0.039568
    59  H    0.204318
    60  C    0.592389
    61  C   -0.317349
    62  H    0.159492
    63  H    0.164974
    64  O   -0.458292
    65  C   -0.264926
    66  H    0.147133
    67  H    0.177429
    68  C   -0.143259
    69  H    0.179915
    70  H    0.154952
    71  N   -0.603958
    72  H    0.334618
    73  N   -0.735466
    74  H    0.289575
    75  H    0.476389
    76  N   -0.761395
    77  H    0.334502
    78  H    0.335270
    79  C    0.679048
    80  O   -0.551119
    81  H    0.418118
    82  H    0.416562
 Sum of Mulliken charges =   1.00000

 Dipole moment (field-independent basis, Debye):
    X=            -21.9062    Y=              4.3652    Z=              7.7116  Tot=             23.6306
 Quadrupole moment (field-independent basis, Debye-Ang):
   XX=            -59.5223   YY=           -205.2497   ZZ=           -135.0799
   XY=             -0.5023   XZ=            -95.9287   YZ=            -31.0270

 Normal termination of Gaussian 16 at Tue May 17 01:30:57 2022.
