 Gaussian 16, Revision C.01,
 Gaussian 16:  ES64L-G16RevC.01  3-Jul-2019

 ----------------------------------------------------------------------
 # B3LYP/6-31G* empiricaldispersion=gd3 guess=read geom=check nosymm in
 tegral(ultrafinegrid)
 ----------------------------------------------------------------------

 ------------------------------------------------------
 Candidate Structure: Conf:472 Charge calc in gas phase
 ------------------------------------------------------
 Structure from the checkpoint file:  "conf-472.chk"
 Charge =  1 Multiplicity = 1

                          Input orientation:
 ---------------------------------------------------------------------
 Center     Atomic      Atomic             Coordinates (Angstroms)
 Number     Number       Type             X           Y           Z
 ---------------------------------------------------------------------
      1          7           0       -6.424038    4.332738    4.498151
      2          1           0       -5.820591    4.456257    5.316719
      3          1           0       -6.189776    5.085382    3.790500
      4          1           0       -7.400922    4.398172    4.799213
      5          6           0       -6.125745    3.062951    3.718671
      6          1           0       -5.561580    2.385047    4.361807
      7          6           0       -5.268160    3.576719    2.536853
      8          6           0       -7.444510    2.400823    3.254514
      9          1           0       -8.039860    2.167902    4.147762
     10          1           0       -8.008525    3.126153    2.655354
     11          8           0       -5.313634    4.805230    2.301023
     12          6           0       -7.171524    1.146645    2.452266
     13          6           0       -7.332946    1.143761    1.061906
     14          1           0       -7.715999    2.029373    0.560096
     15          6           0       -6.678918   -0.000679    3.088288
     16          1           0       -6.563692   -0.016600    4.170754
     17          6           0       -7.001637    0.011609    0.317140
     18          1           0       -7.136364    0.017303   -0.760389
     19          6           0       -6.340200   -1.129608    2.342393
     20          1           0       -5.953849   -2.011657    2.843422
     21          6           0       -6.498200   -1.122797    0.955441
     22          1           0       -6.230995   -2.000304    0.375069
     23          7           0       -4.589402    2.671179    1.864927
     24          1           0       -4.595476    1.676284    2.125664
     25          6           0       -3.824242    2.884147    0.636091
     26          1           0       -4.501371    3.228054   -0.155673
     27          6           0       -3.305829    1.469633    0.273082
     28          6           0       -2.704219    3.941239    0.781476
     29          1           0       -1.916891    3.744540    0.053097
     30          1           0       -2.256831    3.851464    1.780978
     31          8           0       -3.508919    0.528922    1.041839
     32          8           0       -3.177558    5.254889    0.525382
     33          1           0       -3.927560    5.422846    1.126616
     34          7           0       -2.705889    1.378730   -0.926111
     35          1           0       -2.453474    2.247197   -1.410235
     36          6           0       -1.873535    0.235186   -1.254099
     37          1           0       -2.365952   -0.664183   -0.868739
     38          6           0       -0.523452    0.400473   -0.506691
     39          6           0       -1.743147    0.130891   -2.787887
     40          1           0       -2.757730    0.014028   -3.198752
     41          1           0       -1.189766   -0.778432   -3.051430
     42          8           0       -0.351348    1.322440    0.290829
     43          8           0       -1.056960    1.215248   -3.354809
     44          7           0        0.405903   -0.559720   -0.740471
     45          1           0        0.297294   -1.146296   -1.557936
     46          6           0        1.760997   -0.478453   -0.176802
     47          1           0        1.670129   -0.116520    0.848771
     48          6           0        2.556526    0.524876   -1.041161
     49          6           0        2.420579   -1.851428   -0.198431
     50          1           0        1.776744   -2.601650    0.275027
     51          1           0        2.610078   -2.168456   -1.229173
     52          8           0        3.188403    0.151439   -2.021774
     53          6           0        3.744247   -1.812847    0.535703
     54          8           0        4.145022   -0.878611    1.194231
     55          8           0        4.426136   -2.966238    0.380187
     56          7           0        2.389710    1.825162   -0.671397
     57          1           0        1.705070    2.004647    0.055412
     58          6           0        2.606866    2.895843   -1.632146
     59          1           0        3.346997    2.542132   -2.352645
     60          6           0        3.152373    4.158343   -0.991186
     61          6           0        1.276176    3.212591   -2.361701
     62          1           0        0.584403    3.676315   -1.645293
     63          1           0        0.830804    2.254693   -2.643056
     64          8           0        3.733376    5.031671   -1.596059
     65          6           0        1.413760    4.077943   -3.614152
     66          1           0        2.026635    3.551027   -4.356360
     67          1           0        1.941064    5.013168   -3.388128
     68          6           0        0.053161    4.388443   -4.249879
     69          1           0        0.196859    4.927031   -5.195043
     70          1           0       -0.490619    3.470519   -4.475188
     71          7           0       -0.786572    5.212145   -3.380537
     72          1           0       -0.417708    6.123848   -3.147603
     73          7           0       -2.423943    3.638007   -2.805061
     74          1           0       -3.430192    3.662537   -2.641890
     75          1           0       -1.589430    2.050269   -3.283126
     76          7           0       -2.713526    5.923112   -2.301348
     77          1           0       -2.315381    6.851008   -2.379541
     78          1           0       -3.126193    5.738334   -1.386774
     79          6           0       -1.976767    4.875647   -2.825435
     80          8           0        2.836428    4.257542    0.323299
     81          1           0        3.207412    5.106284    0.630349
     82          1           0        5.262748   -2.868439    0.873207
 ---------------------------------------------------------------------

 SCF Done:  E(RB3LYP) =  -2166.38143782     A.U. after    1 cycles

 Alpha  occ. eigenvalues --  -19.28917 -19.25737 -19.25054 -19.24981 -19.22425
 Alpha  occ. eigenvalues --  -19.20296 -19.20193 -19.19710 -19.19543 -19.17107
 Alpha  occ. eigenvalues --  -14.61871 -14.50647 -14.44690 -14.44566 -14.43802
 Alpha  occ. eigenvalues --  -14.42199 -14.41011 -14.37643 -10.45245 -10.42407
 Alpha  occ. eigenvalues --  -10.39324 -10.37902 -10.37819 -10.37663 -10.37200
 Alpha  occ. eigenvalues --  -10.35435 -10.35349 -10.34204 -10.34159 -10.31812
 Alpha  occ. eigenvalues --  -10.31653 -10.31587 -10.30314 -10.30301 -10.30181
 Alpha  occ. eigenvalues --  -10.29568 -10.29543 -10.29314 -10.29174 -10.28735
 Alpha  occ. eigenvalues --  -10.26631 -10.24499 -10.24368  -1.20951  -1.16465
 Alpha  occ. eigenvalues --   -1.16041  -1.15728  -1.14460  -1.12304  -1.12033
 Alpha  occ. eigenvalues --   -1.09020  -1.08220  -1.07376  -1.07371  -1.07126
 Alpha  occ. eigenvalues --   -1.06300  -1.01930  -1.00674  -0.98218  -0.97820
 Alpha  occ. eigenvalues --   -0.96894  -0.94030  -0.92401  -0.89085  -0.86829
 Alpha  occ. eigenvalues --   -0.86113  -0.85427  -0.85349  -0.83010  -0.80954
 Alpha  occ. eigenvalues --   -0.80866  -0.77554  -0.75905  -0.75680  -0.74668
 Alpha  occ. eigenvalues --   -0.74097  -0.73171  -0.71731  -0.71243  -0.69652
 Alpha  occ. eigenvalues --   -0.69149  -0.68482  -0.67980  -0.67117  -0.66580
 Alpha  occ. eigenvalues --   -0.65745  -0.65363  -0.64984  -0.64019  -0.62683
 Alpha  occ. eigenvalues --   -0.62173  -0.61928  -0.61683  -0.60957  -0.60493
 Alpha  occ. eigenvalues --   -0.60080  -0.59099  -0.58860  -0.57392  -0.56972
 Alpha  occ. eigenvalues --   -0.56754  -0.56277  -0.55837  -0.55030  -0.54743
 Alpha  occ. eigenvalues --   -0.54438  -0.53988  -0.53722  -0.53569  -0.53377
 Alpha  occ. eigenvalues --   -0.53148  -0.53008  -0.52926  -0.52539  -0.52358
 Alpha  occ. eigenvalues --   -0.52032  -0.51867  -0.51678  -0.51436  -0.50966
 Alpha  occ. eigenvalues --   -0.50573  -0.49628  -0.49155  -0.48836  -0.48492
 Alpha  occ. eigenvalues --   -0.46988  -0.46875  -0.46425  -0.46324  -0.45766
 Alpha  occ. eigenvalues --   -0.45553  -0.45354  -0.45042  -0.44964  -0.44557
 Alpha  occ. eigenvalues --   -0.44347  -0.43881  -0.43606  -0.42971  -0.42757
 Alpha  occ. eigenvalues --   -0.41646  -0.41085  -0.40689  -0.40432  -0.39919
 Alpha  occ. eigenvalues --   -0.38523  -0.37565  -0.37259  -0.36495  -0.36090
 Alpha  occ. eigenvalues --   -0.35836  -0.35614  -0.35390  -0.35164  -0.34558
 Alpha  occ. eigenvalues --   -0.33839  -0.33680  -0.33265  -0.33019  -0.31141
 Alpha  occ. eigenvalues --   -0.30661  -0.29669
 Alpha virt. eigenvalues --   -0.14238  -0.12661  -0.12001  -0.11136  -0.08213
 Alpha virt. eigenvalues --   -0.07431  -0.06527  -0.04918  -0.04333  -0.04262
 Alpha virt. eigenvalues --   -0.04009  -0.03252  -0.03229  -0.02308  -0.01848

 Mulliken charges:
               1
     1  N   -0.757038
     2  H    0.420962
     3  H    0.435485
     4  H    0.418585
     5  C   -0.111448
     6  H    0.224280
     7  C    0.663398
     8  C   -0.381912
     9  H    0.187773
    10  H    0.186157
    11  O   -0.585651
    12  C    0.143887
    13  C   -0.179694
    14  H    0.140826
    15  C   -0.196672
    16  H    0.133426
    17  C   -0.126104
    18  H    0.159134
    19  C   -0.108029
    20  H    0.163501
    21  C   -0.105953
    22  H    0.162094
    23  N   -0.607727
    24  H    0.397483
    25  C   -0.083999
    26  H    0.190806
    27  C    0.633321
    28  C   -0.050447
    29  H    0.205747
    30  H    0.157570
    31  O   -0.539856
    32  O   -0.643810
    33  H    0.432276
    34  N   -0.633239
    35  H    0.394850
    36  C   -0.106879
    37  H    0.190860
    38  C    0.664058
    39  C   -0.051208
    40  H    0.145417
    41  H    0.147650
    42  O   -0.548423
    43  O   -0.655428
    44  N   -0.613887
    45  H    0.345587
    46  C   -0.054025
    47  H    0.193665
    48  C    0.644082
    49  C   -0.385888
    50  H    0.186709
    51  H    0.207434
    52  O   -0.527104
    53  C    0.606377
    54  O   -0.459547
    55  O   -0.565319
    56  N   -0.596234
    57  H    0.362103
    58  C   -0.066506
    59  H    0.211877
    60  C    0.594037
    61  C   -0.304431
    62  H    0.134863
    63  H    0.202973
    64  O   -0.459911
    65  C   -0.279615
    66  H    0.161853
    67  H    0.159708
    68  C   -0.150121
    69  H    0.162921
    70  H    0.195106
    71  N   -0.590252
    72  H    0.327438
    73  N   -0.777475
    74  H    0.293527
    75  H    0.461059
    76  N   -0.784372
    77  H    0.322507
    78  H    0.372214
    79  C    0.679133
    80  O   -0.569302
    81  H    0.413954
    82  H    0.418836
 Sum of Mulliken charges =   1.00000

 Dipole moment (field-independent basis, Debye):
    X=            -28.8205    Y=             15.7610    Z=             14.9202  Tot=             36.0783
 Quadrupole moment (field-independent basis, Debye-Ang):
   XX=            -78.9649   YY=           -145.7359   ZZ=           -163.8495
   XY=            -99.7384   XZ=            -95.1279   YZ=             54.4634

 Normal termination of Gaussian 16 at Tue May 17 01:31:04 2022.
