 Gaussian 16, Revision C.01,
 Gaussian 16:  ES64L-G16RevC.01  3-Jul-2019

 ----------------------------------------------------------------------
 # B3LYP/6-31G* empiricaldispersion=gd3 guess=read geom=check nosymm in
 tegral(ultrafinegrid)
 ----------------------------------------------------------------------

 ------------------------------------------------------
 Candidate Structure: Conf:669 Charge calc in gas phase
 ------------------------------------------------------
 Structure from the checkpoint file:  "conf-669.chk"
 Charge =  1 Multiplicity = 1

                          Input orientation:
 ---------------------------------------------------------------------
 Center     Atomic      Atomic             Coordinates (Angstroms)
 Number     Number       Type             X           Y           Z
 ---------------------------------------------------------------------
      1          7           0       -6.425314    2.253164   -1.319983
      2          1           0       -7.089713    2.970722   -1.020644
      3          1           0       -5.459701    2.754170   -1.475435
      4          1           0       -6.739803    1.829997   -2.198455
      5          6           0       -6.220477    1.202344   -0.251388
      6          1           0       -7.201411    0.788817    0.005490
      7          6           0       -5.691351    2.027091    0.947628
      8          6           0       -5.284695    0.125677   -0.865546
      9          1           0       -5.847708   -0.358754   -1.675771
     10          1           0       -4.441828    0.642846   -1.330741
     11          8           0       -5.781869    3.258952    0.898471
     12          6           0       -4.761836   -0.914408    0.100114
     13          6           0       -3.381712   -1.030990    0.319629
     14          1           0       -2.680262   -0.404133   -0.226159
     15          6           0       -5.643953   -1.744929    0.809230
     16          1           0       -6.716249   -1.677525    0.634308
     17          6           0       -2.896171   -1.951826    1.250884
     18          1           0       -1.825845   -2.027407    1.414668
     19          6           0       -5.155426   -2.657572    1.745528
     20          1           0       -5.846491   -3.291234    2.293698
     21          6           0       -3.779232   -2.758709    1.970260
     22          1           0       -3.399413   -3.469947    2.697807
     23          7           0       -5.153393    1.351686    1.972173
     24          1           0       -5.099923    0.340303    1.930044
     25          6           0       -4.268088    2.008298    2.950466
     26          1           0       -4.719071    2.961335    3.236660
     27          6           0       -2.959722    2.172748    2.151139
     28          6           0       -4.094255    1.120076    4.174898
     29          1           0       -3.420690    1.636228    4.874898
     30          1           0       -3.601949    0.183752    3.872739
     31          8           0       -2.104907    1.284820    2.173432
     32          8           0       -5.387766    0.904741    4.711863
     33          1           0       -5.297689    0.386198    5.525553
     34          7           0       -2.922843    3.232938    1.298470
     35          1           0       -3.726358    3.846777    1.368417
     36          6           0       -2.425778    3.112527   -0.083055
     37          1           0       -2.632047    2.082228   -0.401678
     38          6           0       -0.897435    3.175760   -0.324788
     39          6           0       -3.204213    4.051904   -1.027627
     40          1           0       -2.494278    4.516900   -1.712182
     41          1           0       -3.725186    4.834894   -0.466453
     42          8           0       -0.441263    3.653231   -1.357295
     43          8           0       -4.177412    3.335619   -1.802341
     44          7           0       -0.135787    2.492469    0.573200
     45          1           0       -0.662147    1.935759    1.249097
     46          6           0        1.087770    1.871592    0.106667
     47          1           0        1.747703    2.641095   -0.302437
     48          6           0        0.756050    0.847222   -1.010410
     49          6           0        1.780695    1.180887    1.301490
     50          1           0        1.978605    1.942702    2.065363
     51          1           0        1.124754    0.424738    1.741384
     52          8           0       -0.365712    0.344673   -1.130459
     53          6           0        3.093298    0.501922    0.968411
     54          8           0        3.426117   -0.598482    1.332055
     55          8           0        3.887196    1.298132    0.194671
     56          7           0        1.805665    0.527187   -1.802061
     57          1           0        2.693947    0.982778   -1.628598
     58          6           0        1.771949   -0.571864   -2.753718
     59          1           0        0.947419   -1.225106   -2.457462
     60          6           0        3.026594   -1.439266   -2.693698
     61          6           0        1.562016   -0.100821   -4.213325
     62          1           0        1.683024   -0.975358   -4.863631
     63          1           0        2.364711    0.602232   -4.467161
     64          8           0        3.098751   -2.522513   -3.219502
     65          6           0        0.204410    0.565483   -4.467854
     66          1           0        0.203171    0.968359   -5.487576
     67          1           0        0.068161    1.418477   -3.793484
     68          6           0       -0.978279   -0.407756   -4.334256
     69          1           0       -0.782202   -1.313369   -4.916867
     70          1           0       -1.111978   -0.716479   -3.291093
     71          7           0       -2.231498    0.154394   -4.839937
     72          1           0       -2.632478   -0.267791   -5.664109
     73          7           0       -2.719300    1.528933   -2.972300
     74          1           0       -3.628313    2.645024   -2.330316
     75          1           0       -1.868724    1.173310   -2.541149
     76          7           0       -4.178183    1.439227   -4.763119
     77          1           0       -4.163166    1.425663   -5.777311
     78          1           0       -4.490396    2.343133   -4.426508
     79          6           0       -2.987288    1.045877   -4.145459
     80          8           0        4.065686   -0.856027   -2.042491
     81          1           0        4.804618   -1.493898   -2.080965
     82          1           0        4.688767    0.777359   -0.003067
 ---------------------------------------------------------------------

 SCF Done:  E(RB3LYP) =  -2166.39728990     A.U. after    2 cycles

 Alpha  occ. eigenvalues --  -19.29166 -19.28226 -19.25020 -19.24323 -19.23704
 Alpha  occ. eigenvalues --  -19.23324 -19.22760 -19.22396 -19.21809 -19.20419
 Alpha  occ. eigenvalues --  -14.54834 -14.48084 -14.46362 -14.46156 -14.45731
 Alpha  occ. eigenvalues --  -14.45535 -14.43067 -14.39860 -10.41725 -10.41166
 Alpha  occ. eigenvalues --  -10.40715 -10.39927 -10.39873 -10.38535 -10.38437
 Alpha  occ. eigenvalues --  -10.37355 -10.34248 -10.33343 -10.33228 -10.33221
 Alpha  occ. eigenvalues --  -10.33077 -10.32770 -10.31896 -10.31651 -10.30182
 Alpha  occ. eigenvalues --  -10.29480 -10.29008 -10.28618 -10.28299 -10.28282
 Alpha  occ. eigenvalues --  -10.28225 -10.28179 -10.27455  -1.19699  -1.18855
 Alpha  occ. eigenvalues --   -1.16884  -1.14899  -1.13558  -1.12554  -1.11864
 Alpha  occ. eigenvalues --   -1.11218  -1.10698  -1.10039  -1.09506  -1.08890
 Alpha  occ. eigenvalues --   -1.04763  -1.03010  -1.02517  -1.00801  -0.99702
 Alpha  occ. eigenvalues --   -0.95742  -0.95149  -0.91033  -0.89792  -0.88138
 Alpha  occ. eigenvalues --   -0.87172  -0.84891  -0.83977  -0.83875  -0.83833
 Alpha  occ. eigenvalues --   -0.78479  -0.78045  -0.77177  -0.75229  -0.73454
 Alpha  occ. eigenvalues --   -0.71710  -0.71398  -0.70683  -0.70504  -0.70114
 Alpha  occ. eigenvalues --   -0.69748  -0.69357  -0.68434  -0.67883  -0.67747
 Alpha  occ. eigenvalues --   -0.66878  -0.66294  -0.65826  -0.64294  -0.63066
 Alpha  occ. eigenvalues --   -0.62997  -0.62312  -0.61890  -0.60892  -0.60304
 Alpha  occ. eigenvalues --   -0.59720  -0.59261  -0.59047  -0.58529  -0.57953
 Alpha  occ. eigenvalues --   -0.57288  -0.56954  -0.56735  -0.56438  -0.56258
 Alpha  occ. eigenvalues --   -0.55620  -0.55554  -0.55231  -0.54902  -0.54467
 Alpha  occ. eigenvalues --   -0.53957  -0.53713  -0.53423  -0.53156  -0.52537
 Alpha  occ. eigenvalues --   -0.52251  -0.52056  -0.51785  -0.51344  -0.51075
 Alpha  occ. eigenvalues --   -0.50919  -0.50746  -0.50263  -0.50111  -0.49687
 Alpha  occ. eigenvalues --   -0.49179  -0.49109  -0.48446  -0.48283  -0.47833
 Alpha  occ. eigenvalues --   -0.47638  -0.47350  -0.46639  -0.45680  -0.45306
 Alpha  occ. eigenvalues --   -0.45013  -0.44762  -0.44455  -0.43831  -0.43801
 Alpha  occ. eigenvalues --   -0.43471  -0.43145  -0.42906  -0.40657  -0.40467
 Alpha  occ. eigenvalues --   -0.39678  -0.39195  -0.38538  -0.38191  -0.37749
 Alpha  occ. eigenvalues --   -0.37644  -0.36694  -0.36503  -0.36284  -0.35806
 Alpha  occ. eigenvalues --   -0.35400  -0.34547  -0.34485  -0.34250  -0.33909
 Alpha  occ. eigenvalues --   -0.33462  -0.32688
 Alpha virt. eigenvalues --   -0.12268  -0.10399  -0.09802  -0.08960  -0.08318
 Alpha virt. eigenvalues --   -0.08016  -0.07841  -0.07351  -0.06549  -0.05668
 Alpha virt. eigenvalues --   -0.03699  -0.02669  -0.02168  -0.01776  -0.01361

 Mulliken charges:
               1
     1  N   -0.764623
     2  H    0.404533
     3  H    0.470209
     4  H    0.384839
     5  C   -0.133709
     6  H    0.214825
     7  C    0.651020
     8  C   -0.375851
     9  H    0.175295
    10  H    0.199402
    11  O   -0.548673
    12  C    0.099753
    13  C   -0.187781
    14  H    0.183603
    15  C   -0.198896
    16  H    0.135339
    17  C   -0.123577
    18  H    0.159444
    19  C   -0.123404
    20  H    0.158152
    21  C   -0.133869
    22  H    0.157561
    23  N   -0.586753
    24  H    0.381938
    25  C   -0.074897
    26  H    0.203421
    27  C    0.607208
    28  C   -0.054890
    29  H    0.158018
    30  H    0.162118
    31  O   -0.526808
    32  O   -0.617167
    33  H    0.412371
    34  N   -0.598243
    35  H    0.366828
    36  C   -0.100250
    37  H    0.200662
    38  C    0.612745
    39  C   -0.078925
    40  H    0.210682
    41  H    0.170364
    42  O   -0.515015
    43  O   -0.731740
    44  N   -0.617598
    45  H    0.389669
    46  C   -0.063847
    47  H    0.204181
    48  C    0.630791
    49  C   -0.367994
    50  H    0.212356
    51  H    0.196630
    52  O   -0.558966
    53  C    0.574052
    54  O   -0.437434
    55  O   -0.576225
    56  N   -0.602816
    57  H    0.374021
    58  C   -0.064511
    59  H    0.208168
    60  C    0.599740
    61  C   -0.277939
    62  H    0.175921
    63  H    0.160165
    64  O   -0.440716
    65  C   -0.270051
    66  H    0.155926
    67  H    0.176937
    68  C   -0.172686
    69  H    0.163927
    70  H    0.190459
    71  N   -0.605823
    72  H    0.339832
    73  N   -0.821167
    74  H    0.474124
    75  H    0.364551
    76  N   -0.768937
    77  H    0.336712
    78  H    0.339410
    79  C    0.709408
    80  O   -0.588567
    81  H    0.429580
    82  H    0.423459
 Sum of Mulliken charges =   1.00000

 Dipole moment (field-independent basis, Debye):
    X=            -17.4117    Y=              4.2519    Z=             -6.4412  Tot=             19.0456
 Quadrupole moment (field-independent basis, Debye-Ang):
   XX=            -97.9662   YY=           -242.9728   ZZ=           -170.7618
   XY=            -17.1818   XZ=             17.7884   YZ=            -10.5146

 Normal termination of Gaussian 16 at Tue May 17 01:31:34 2022.
