 Gaussian 16, Revision C.01,
 Gaussian 16:  ES64L-G16RevC.01  3-Jul-2019

 ----------------------------------------------------------------------
 # B3LYP/6-31G* empiricaldispersion=gd3 guess=read geom=check nosymm in
 tegral(ultrafinegrid)
 ----------------------------------------------------------------------

 ------------------------------------------------------
 Candidate Structure: Conf:950 Charge calc in gas phase
 ------------------------------------------------------
 Structure from the checkpoint file:  "conf-950.chk"
 Charge =  1 Multiplicity = 1

                          Input orientation:
 ---------------------------------------------------------------------
 Center     Atomic      Atomic             Coordinates (Angstroms)
 Number     Number       Type             X           Y           Z
 ---------------------------------------------------------------------
      1          7           0       -7.066413    0.462245    5.662552
      2          1           0       -6.573926    0.647598    6.540579
      3          1           0       -7.235306    1.384511    5.181521
      4          1           0       -7.938923   -0.047385    5.872049
      5          6           0       -6.220486   -0.290476    4.661351
      6          1           0       -5.459886   -0.850151    5.209517
      7          6           0       -5.625819    0.832667    3.779038
      8          6           0       -7.116194   -1.247169    3.837575
      9          1           0       -7.769133   -0.644973    3.194378
     10          1           0       -6.454295   -1.814509    3.175049
     11          8           0       -6.169419    1.945362    3.823252
     12          6           0       -7.929785   -2.156924    4.731123
     13          6           0       -7.333663   -3.257530    5.363813
     14          1           0       -6.296064   -3.506749    5.151221
     15          6           0       -9.275243   -1.860159    5.003358
     16          1           0       -9.764242   -1.037781    4.482637
     17          6           0       -8.069059   -4.047522    6.246159
     18          1           0       -7.601361   -4.905888    6.719246
     19          6           0      -10.010700   -2.650267    5.893590
     20          1           0      -11.054449   -2.419139    6.084452
     21          6           0       -9.407096   -3.742209    6.516627
     22          1           0       -9.977553   -4.361362    7.202248
     23          7           0       -4.607036    0.485177    3.002145
     24          1           0       -4.229500   -0.465036    2.978923
     25          6           0       -4.016756    1.334987    1.976172
     26          1           0       -4.799015    1.921352    1.485213
     27          6           0       -3.317803    0.375354    1.005766
     28          6           0       -2.967601    2.318617    2.585021
     29          1           0       -2.232557    1.728379    3.150707
     30          1           0       -3.499401    2.974658    3.282175
     31          8           0       -3.091576   -0.788043    1.339165
     32          8           0       -2.363227    3.112497    1.594027
     33          1           0       -1.569442    2.624020    1.271338
     34          7           0       -2.927773    0.929862   -0.166558
     35          1           0       -2.995299    1.943206   -0.200973
     36          6           0       -1.821065    0.346777   -0.911481
     37          1           0       -2.026729   -0.713002   -1.078172
     38          6           0       -0.517202    0.498951   -0.112885
     39          6           0       -1.684700    1.068555   -2.281649
     40          1           0       -1.659144    2.155899   -2.096085
     41          1           0       -2.582365    0.846291   -2.869944
     42          8           0       -0.337425    1.440578    0.685108
     43          8           0       -0.548652    0.641853   -2.983895
     44          7           0        0.421944   -0.410446   -0.391767
     45          1           0        0.237258   -1.134295   -1.078603
     46          6           0        1.787968   -0.351224    0.098587
     47          1           0        1.951408    0.658597    0.480988
     48          6           0        2.708269   -0.674647   -1.088779
     49          6           0        2.021914   -1.357250    1.254980
     50          1           0        3.045654   -1.259047    1.625591
     51          1           0        1.316144   -1.114515    2.054121
     52          8           0        2.458799   -1.637765   -1.807034
     53          6           0        1.750798   -2.779324    0.795965
     54          8           0        0.646941   -3.216281    0.555443
     55          8           0        2.887164   -3.494180    0.668701
     56          7           0        3.778857    0.141333   -1.245962
     57          1           0        3.827195    0.999220   -0.713531
     58          6           0        4.655153    0.046333   -2.409528
     59          1           0        4.528625   -0.953417   -2.827766
     60          6           0        6.117208    0.202288   -2.020179
     61          6           0        4.299240    1.116586   -3.470797
     62          1           0        5.044015    1.071009   -4.274368
     63          1           0        4.397283    2.102881   -3.001148
     64          8           0        7.040310   -0.319133   -2.596120
     65          6           0        2.877803    0.935630   -4.023889
     66          1           0        2.227676    0.525280   -3.253941
     67          1           0        2.879529    0.202905   -4.839188
     68          6           0        2.239982    2.228703   -4.558134
     69          1           0        2.715912    2.517386   -5.500717
     70          1           0        1.178082    2.036351   -4.762201
     71          7           0        2.393511    3.391010   -3.673080
     72          1           0        2.475522    4.278175   -4.150984
     73          7           0        1.211384    2.472398   -1.884693
     74          1           0        0.929606    2.661899   -0.923745
     75          1           0        0.200734    1.224890   -2.686410
     76          7           0        2.011533    4.721403   -1.829286
     77          1           0        2.890792    5.190071   -2.013142
     78          1           0        1.727136    4.788576   -0.861095
     79          6           0        1.839736    3.472170   -2.419691
     80          8           0        6.274659    1.076173   -0.990011
     81          1           0        7.235296    1.153163   -0.834214
     82          1           0        2.635487   -4.360999    0.295807
 ---------------------------------------------------------------------

 SCF Done:  E(RB3LYP) =  -2166.38334581     A.U. after    1 cycles

 Alpha  occ. eigenvalues --  -19.26401 -19.26309 -19.25270 -19.21996 -19.21823
 Alpha  occ. eigenvalues --  -19.20812 -19.20293 -19.19403 -19.18710 -19.18597
 Alpha  occ. eigenvalues --  -14.59663 -14.49270 -14.44871 -14.44153 -14.43636
 Alpha  occ. eigenvalues --  -14.42768 -14.42452 -14.36981 -10.43255 -10.40667
 Alpha  occ. eigenvalues --  -10.38443 -10.38428 -10.38008 -10.37200 -10.36701
 Alpha  occ. eigenvalues --  -10.36122 -10.34096 -10.33598 -10.32616 -10.32317
 Alpha  occ. eigenvalues --  -10.31832 -10.31079 -10.30878 -10.30703 -10.30421
 Alpha  occ. eigenvalues --  -10.30342 -10.30299 -10.30297 -10.30030 -10.28448
 Alpha  occ. eigenvalues --  -10.27418 -10.25408 -10.24077  -1.18797  -1.16987
 Alpha  occ. eigenvalues --   -1.16105  -1.14070  -1.13536  -1.12085  -1.10829
 Alpha  occ. eigenvalues --   -1.09700  -1.08067  -1.07148  -1.06724  -1.05779
 Alpha  occ. eigenvalues --   -1.05592  -1.01700  -1.00838  -1.00139  -0.97783
 Alpha  occ. eigenvalues --   -0.96316  -0.93290  -0.92181  -0.88262  -0.87453
 Alpha  occ. eigenvalues --   -0.86038  -0.85784  -0.85216  -0.82283  -0.81280
 Alpha  occ. eigenvalues --   -0.79434  -0.76640  -0.75197  -0.74451  -0.73833
 Alpha  occ. eigenvalues --   -0.73313  -0.71835  -0.71474  -0.70527  -0.70252
 Alpha  occ. eigenvalues --   -0.68985  -0.68495  -0.67955  -0.67045  -0.66751
 Alpha  occ. eigenvalues --   -0.65545  -0.65006  -0.64140  -0.63040  -0.62930
 Alpha  occ. eigenvalues --   -0.62287  -0.61728  -0.61136  -0.59820  -0.59195
 Alpha  occ. eigenvalues --   -0.58422  -0.57820  -0.57418  -0.57291  -0.56766
 Alpha  occ. eigenvalues --   -0.56641  -0.56330  -0.55683  -0.55146  -0.54546
 Alpha  occ. eigenvalues --   -0.54407  -0.54213  -0.54160  -0.53661  -0.53493
 Alpha  occ. eigenvalues --   -0.53276  -0.52940  -0.52608  -0.52208  -0.52140
 Alpha  occ. eigenvalues --   -0.51658  -0.51310  -0.50897  -0.50570  -0.50136
 Alpha  occ. eigenvalues --   -0.49994  -0.49722  -0.48544  -0.48245  -0.47618
 Alpha  occ. eigenvalues --   -0.47510  -0.47364  -0.47077  -0.46509  -0.46199
 Alpha  occ. eigenvalues --   -0.46009  -0.45836  -0.45556  -0.45348  -0.45004
 Alpha  occ. eigenvalues --   -0.44275  -0.44247  -0.43310  -0.41535  -0.41465
 Alpha  occ. eigenvalues --   -0.41020  -0.40784  -0.40429  -0.39953  -0.39240
 Alpha  occ. eigenvalues --   -0.38137  -0.37358  -0.36794  -0.36361  -0.36298
 Alpha  occ. eigenvalues --   -0.35951  -0.35230  -0.35120  -0.34943  -0.34456
 Alpha  occ. eigenvalues --   -0.33748  -0.33104  -0.32832  -0.32701  -0.32114
 Alpha  occ. eigenvalues --   -0.31413  -0.30461
 Alpha virt. eigenvalues --   -0.13152  -0.12480  -0.10857  -0.09888  -0.07866
 Alpha virt. eigenvalues --   -0.07139  -0.05630  -0.04825  -0.04761  -0.04360
 Alpha virt. eigenvalues --   -0.03001  -0.02734  -0.01828  -0.01441  -0.01329

 Mulliken charges:
               1
     1  N   -0.748668
     2  H    0.415757
     3  H    0.426305
     4  H    0.405211
     5  C   -0.116138
     6  H    0.213134
     7  C    0.656280
     8  C   -0.384913
     9  H    0.194961
    10  H    0.212846
    11  O   -0.538450
    12  C    0.139579
    13  C   -0.181410
    14  H    0.149028
    15  C   -0.231941
    16  H    0.152306
    17  C   -0.122449
    18  H    0.168948
    19  C   -0.119925
    20  H    0.168293
    21  C   -0.123911
    22  H    0.170096
    23  N   -0.611125
    24  H    0.370433
    25  C   -0.081541
    26  H    0.198706
    27  C    0.612014
    28  C   -0.032671
    29  H    0.146854
    30  H    0.169991
    31  O   -0.531186
    32  O   -0.647753
    33  H    0.441357
    34  N   -0.596410
    35  H    0.347262
    36  C   -0.088777
    37  H    0.198872
    38  C    0.654411
    39  C   -0.044689
    40  H    0.125750
    41  H    0.164053
    42  O   -0.604742
    43  O   -0.676016
    44  N   -0.548636
    45  H    0.377357
    46  C   -0.085418
    47  H    0.170160
    48  C    0.659339
    49  C   -0.325527
    50  H    0.181266
    51  H    0.189195
    52  O   -0.526988
    53  C    0.584454
    54  O   -0.462919
    55  O   -0.555171
    56  N   -0.596804
    57  H    0.341373
    58  C   -0.069772
    59  H    0.217099
    60  C    0.592267
    61  C   -0.272701
    62  H    0.168565
    63  H    0.149283
    64  O   -0.443747
    65  C   -0.287056
    66  H    0.191197
    67  H    0.160450
    68  C   -0.138401
    69  H    0.151303
    70  H    0.177308
    71  N   -0.602711
    72  H    0.335955
    73  N   -0.757959
    74  H    0.299706
    75  H    0.482102
    76  N   -0.759555
    77  H    0.336838
    78  H    0.336794
    79  C    0.656456
    80  O   -0.584118
    81  H    0.420777
    82  H    0.418502
 Sum of Mulliken charges =   1.00000

 Dipole moment (field-independent basis, Debye):
    X=            -20.8212    Y=              4.3204    Z=             19.6462  Tot=             28.9510
 Quadrupole moment (field-independent basis, Debye-Ang):
   XX=            -23.0202   YY=           -215.7147   ZZ=           -108.1660
   XY=             50.3499   XZ=           -157.5837   YZ=            -39.5679

 Normal termination of Gaussian 16 at Tue May 17 01:31:06 2022.
