 Gaussian 16, Revision C.01,
 Gaussian 16:  ES64L-G16RevC.01  3-Jul-2019

 ----------------------------------------------------------------------
 # B3LYP/6-31G* empiricaldispersion=gd3 guess=read geom=check nosymm in
 tegral(ultrafinegrid)
 ----------------------------------------------------------------------

 ------------------------------------------------------
 Candidate Structure: Conf:684 Charge calc in gas phase
 ------------------------------------------------------
 Structure from the checkpoint file:  "conf-684.chk"
 Charge =  1 Multiplicity = 1

                          Input orientation:
 ---------------------------------------------------------------------
 Center     Atomic      Atomic             Coordinates (Angstroms)
 Number     Number       Type             X           Y           Z
 ---------------------------------------------------------------------
      1          7           0       -6.958063    1.108362    3.348384
      2          1           0       -7.501740    0.984662    4.205587
      3          1           0       -6.011366    1.511097    3.582560
      4          1           0       -7.441946    1.759856    2.702299
      5          6           0       -6.621987   -0.188157    2.642981
      6          1           0       -7.051237   -1.010140    3.222030
      7          6           0       -5.077707   -0.253548    2.748157
      8          6           0       -7.190198   -0.185504    1.191458
      9          1           0       -6.623656   -0.916356    0.604683
     10          1           0       -8.225085   -0.540469    1.229333
     11          8           0       -4.477963    0.713680    3.240065
     12          6           0       -7.125037    1.193092    0.572788
     13          6           0       -8.257487    2.027934    0.616617
     14          1           0       -9.212758    1.630590    0.957998
     15          6           0       -5.918197    1.698491    0.074322
     16          1           0       -5.025834    1.082848   -0.001413
     17          6           0       -8.177004    3.351546    0.170586
     18          1           0       -9.059862    3.983683    0.194762
     19          6           0       -5.842884    3.018621   -0.371722
     20          1           0       -4.890662    3.372599   -0.753788
     21          6           0       -6.966645    3.847663   -0.316589
     22          1           0       -6.903099    4.876298   -0.659645
     23          7           0       -4.487545   -1.380193    2.348918
     24          1           0       -5.033158   -2.103088    1.893833
     25          6           0       -3.063904   -1.675276    2.585318
     26          1           0       -2.780875   -1.177773    3.519378
     27          6           0       -2.155472   -1.142956    1.452567
     28          6           0       -2.885970   -3.198948    2.756734
     29          1           0       -3.217942   -3.703144    1.832557
     30          1           0       -3.522722   -3.537405    3.581778
     31          8           0       -1.460096   -1.922447    0.793181
     32          8           0       -1.562423   -3.516210    3.092640
     33          1           0       -1.040592   -3.354439    2.286020
     34          7           0       -2.164507    0.192029    1.263251
     35          1           0       -2.672680    0.782244    1.914403
     36          6           0       -1.327150    0.827337    0.239182
     37          1           0       -1.260318    0.109418   -0.583333
     38          6           0        0.088586    1.096124    0.785453
     39          6           0       -1.978413    2.097847   -0.304953
     40          1           0       -1.241981    2.612276   -0.939141
     41          1           0       -2.203789    2.783484    0.526787
     42          8           0        0.473944    2.229679    1.065726
     43          8           0       -3.140290    1.745678   -1.019051
     44          7           0        0.858270   -0.018305    0.891981
     45          1           0        0.473004   -0.896005    0.558020
     46          6           0        2.304302    0.056538    1.120781
     47          1           0        2.501900    0.860236    1.833127
     48          6           0        2.934463    0.384639   -0.251643
     49          6           0        2.821589   -1.271223    1.659180
     50          1           0        2.256584   -1.578910    2.546934
     51          1           0        2.715653   -2.056194    0.902588
     52          8           0        3.325400   -0.499410   -1.002665
     53          6           0        4.286829   -1.160710    2.024855
     54          8           0        4.927911   -0.133487    2.013661
     55          8           0        4.796705   -2.357956    2.382299
     56          7           0        2.876580    1.707454   -0.570550
     57          1           0        2.502473    2.352423    0.117444
     58          6           0        3.008534    2.183835   -1.933081
     59          1           0        3.300972    1.332235   -2.550468
     60          6           0        4.083281    3.266466   -1.999308
     61          6           0        1.656688    2.783268   -2.393944
     62          1           0        1.478843    3.706494   -1.826317
     63          1           0        0.874728    2.080951   -2.083179
     64          8           0        4.277954    4.085714   -1.132447
     65          6           0        1.555994    3.047679   -3.900760
     66          1           0        1.514093    2.091820   -4.440941
     67          1           0        2.454832    3.558163   -4.263781
     68          6           0        0.353117    3.917529   -4.276047
     69          1           0        0.458433    4.904608   -3.810313
     70          1           0        0.347764    4.065714   -5.369394
     71          7           0       -0.900384    3.331866   -3.810087
     72          1           0       -0.958852    2.332358   -3.680865
     73          7           0       -2.094050    5.290556   -4.210179
     74          1           0       -3.009679    5.719212   -4.269104
     75          1           0       -1.547539    5.458651   -5.047859
     76          7           0       -3.117646    3.401025   -3.165411
     77          1           0       -3.134988    2.251593   -1.872873
     78          1           0       -3.967472    3.955520   -3.256664
     79          6           0       -2.097912    3.986166   -3.729682
     80          8           0        4.749288    3.244942   -3.177090
     81          1           0        5.391936    3.980359   -3.151205
     82          1           0        5.737112   -2.210272    2.598575
 ---------------------------------------------------------------------

 SCF Done:  E(RB3LYP) =  -2166.36506461     A.U. after    1 cycles

 Alpha  occ. eigenvalues --  -19.28984 -19.26001 -19.24887 -19.23104 -19.22963
 Alpha  occ. eigenvalues --  -19.19988 -19.19787 -19.19684 -19.19346 -19.17276
 Alpha  occ. eigenvalues --  -14.60075 -14.52389 -14.46751 -14.43799 -14.43738
 Alpha  occ. eigenvalues --  -14.43498 -14.41542 -14.37635 -10.45640 -10.42237
 Alpha  occ. eigenvalues --  -10.39937 -10.37981 -10.37702 -10.37668 -10.36684
 Alpha  occ. eigenvalues --  -10.35535 -10.35117 -10.34507 -10.34002 -10.32336
 Alpha  occ. eigenvalues --  -10.31585 -10.31258 -10.30765 -10.30588 -10.30545
 Alpha  occ. eigenvalues --  -10.30118 -10.30068 -10.30004 -10.29682 -10.29487
 Alpha  occ. eigenvalues --  -10.26728 -10.26592 -10.26530  -1.21164  -1.16658
 Alpha  occ. eigenvalues --   -1.15848  -1.14955  -1.14502  -1.11549  -1.10947
 Alpha  occ. eigenvalues --   -1.09240  -1.08434  -1.07888  -1.07731  -1.06941
 Alpha  occ. eigenvalues --   -1.06587  -1.02672  -1.00180  -0.98585  -0.97879
 Alpha  occ. eigenvalues --   -0.97495  -0.94017  -0.93062  -0.89275  -0.87389
 Alpha  occ. eigenvalues --   -0.86676  -0.85797  -0.85654  -0.83618  -0.81728
 Alpha  occ. eigenvalues --   -0.80331  -0.76318  -0.76115  -0.74920  -0.74546
 Alpha  occ. eigenvalues --   -0.74520  -0.73382  -0.71556  -0.71259  -0.70273
 Alpha  occ. eigenvalues --   -0.69905  -0.69674  -0.69213  -0.67544  -0.66854
 Alpha  occ. eigenvalues --   -0.65541  -0.65008  -0.64484  -0.64122  -0.62724
 Alpha  occ. eigenvalues --   -0.62228  -0.62044  -0.61309  -0.60956  -0.60157
 Alpha  occ. eigenvalues --   -0.59963  -0.59075  -0.58955  -0.57730  -0.57326
 Alpha  occ. eigenvalues --   -0.56973  -0.56686  -0.56412  -0.55811  -0.55461
 Alpha  occ. eigenvalues --   -0.55278  -0.54943  -0.54236  -0.54069  -0.53715
 Alpha  occ. eigenvalues --   -0.53301  -0.53150  -0.52951  -0.52370  -0.52194
 Alpha  occ. eigenvalues --   -0.51998  -0.51861  -0.51662  -0.51275  -0.51042
 Alpha  occ. eigenvalues --   -0.50576  -0.49407  -0.49135  -0.48750  -0.48153
 Alpha  occ. eigenvalues --   -0.47648  -0.47330  -0.46884  -0.46718  -0.46598
 Alpha  occ. eigenvalues --   -0.45861  -0.45431  -0.45354  -0.45127  -0.44738
 Alpha  occ. eigenvalues --   -0.44153  -0.43788  -0.43571  -0.42978  -0.42900
 Alpha  occ. eigenvalues --   -0.42742  -0.42544  -0.42022  -0.41547  -0.40862
 Alpha  occ. eigenvalues --   -0.37742  -0.37612  -0.37084  -0.36740  -0.36720
 Alpha  occ. eigenvalues --   -0.36378  -0.36073  -0.35593  -0.34824  -0.34570
 Alpha  occ. eigenvalues --   -0.34182  -0.33775  -0.33119  -0.32113  -0.31037
 Alpha  occ. eigenvalues --   -0.30506  -0.30250
 Alpha virt. eigenvalues --   -0.14783  -0.12728  -0.12111  -0.10359  -0.09927
 Alpha virt. eigenvalues --   -0.06815  -0.06202  -0.05431  -0.04896  -0.04176
 Alpha virt. eigenvalues --   -0.03590  -0.02877  -0.02760  -0.01836  -0.01590

 Mulliken charges:
               1
     1  N   -0.762153
     2  H    0.412361
     3  H    0.436523
     4  H    0.409163
     5  C   -0.100056
     6  H    0.220833
     7  C    0.664345
     8  C   -0.379180
     9  H    0.199348
    10  H    0.193211
    11  O   -0.545582
    12  C    0.109948
    13  C   -0.237130
    14  H    0.149150
    15  C   -0.189196
    16  H    0.188892
    17  C   -0.116802
    18  H    0.164866
    19  C   -0.132528
    20  H    0.172659
    21  C   -0.127987
    22  H    0.160020
    23  N   -0.595423
    24  H    0.357687
    25  C   -0.106109
    26  H    0.215739
    27  C    0.649065
    28  C   -0.035542
    29  H    0.143041
    30  H    0.158306
    31  O   -0.545918
    32  O   -0.607653
    33  H    0.422455
    34  N   -0.601405
    35  H    0.365991
    36  C   -0.075622
    37  H    0.188115
    38  C    0.624520
    39  C   -0.056461
    40  H    0.161497
    41  H    0.131838
    42  O   -0.534029
    43  O   -0.673859
    44  N   -0.622923
    45  H    0.363988
    46  C   -0.048879
    47  H    0.197147
    48  C    0.635654
    49  C   -0.385240
    50  H    0.185695
    51  H    0.205437
    52  O   -0.525778
    53  C    0.608313
    54  O   -0.456917
    55  O   -0.568036
    56  N   -0.596130
    57  H    0.367803
    58  C   -0.050665
    59  H    0.202866
    60  C    0.592231
    61  C   -0.274611
    62  H    0.168047
    63  H    0.144268
    64  O   -0.452052
    65  C   -0.312940
    66  H    0.156645
    67  H    0.177307
    68  C   -0.128337
    69  H    0.178428
    70  H    0.149155
    71  N   -0.600179
    72  H    0.340948
    73  N   -0.747706
    74  H    0.335571
    75  H    0.343716
    76  N   -0.742157
    77  H    0.455884
    78  H    0.282006
    79  C    0.669210
    80  O   -0.561733
    81  H    0.418192
    82  H    0.418835
 Sum of Mulliken charges =   1.00000

 Dipole moment (field-independent basis, Debye):
    X=            -30.1562    Y=              6.9254    Z=              4.0193  Tot=             31.2012
 Quadrupole moment (field-independent basis, Debye-Ang):
   XX=            -27.4622   YY=           -205.0819   ZZ=           -175.0231
   XY=            -29.8931   XZ=            -78.4109   YZ=            -43.0352

 Normal termination of Gaussian 16 at Tue May 17 01:30:57 2022.
