 Gaussian 16, Revision C.01,
 Gaussian 16:  ES64L-G16RevC.01  3-Jul-2019

 ----------------------------------------------------------------------
 # B3LYP/6-31G* empiricaldispersion=gd3 guess=read geom=check nosymm in
 tegral(ultrafinegrid)
 ----------------------------------------------------------------------

 -----------------------------------------------------
 Candidate Structure: Conf:14 Charge calc in gas phase
 -----------------------------------------------------
 Structure from the checkpoint file:  "conf-14.chk"
 Charge =  1 Multiplicity = 1

                          Input orientation:
 ---------------------------------------------------------------------
 Center     Atomic      Atomic             Coordinates (Angstroms)
 Number     Number       Type             X           Y           Z
 ---------------------------------------------------------------------
      1          7           0       -6.594459   -2.760026    4.905320
      2          1           0       -6.132105   -3.327450    5.620973
      3          1           0       -6.631686   -1.741082    5.247055
      4          1           0       -7.524662   -3.142958    4.719733
      5          6           0       -5.754560   -2.567215    3.657970
      6          1           0       -5.093567   -3.425822    3.527196
      7          6           0       -5.001621   -1.253525    3.993414
      8          6           0       -6.697673   -2.383995    2.446342
      9          1           0       -7.240216   -3.325663    2.287329
     10          1           0       -7.432403   -1.611751    2.707510
     11          8           0       -5.587125   -0.487103    4.781825
     12          6           0       -5.947512   -1.980065    1.196192
     13          6           0       -5.866223   -0.631535    0.827784
     14          1           0       -6.379252    0.120971    1.422525
     15          6           0       -5.270161   -2.940765    0.435390
     16          1           0       -5.334652   -3.993040    0.707099
     17          6           0       -5.117919   -0.243117   -0.282857
     18          1           0       -5.034171    0.809041   -0.540019
     19          6           0       -4.517971   -2.555218   -0.674215
     20          1           0       -3.992385   -3.305490   -1.257541
     21          6           0       -4.440304   -1.208226   -1.030172
     22          1           0       -3.846904   -0.909786   -1.889490
     23          7           0       -3.852016   -1.060222    3.379153
     24          1           0       -3.511096   -1.703639    2.659632
     25          6           0       -3.120494    0.209961    3.330804
     26          1           0       -3.815386    1.024853    3.537348
     27          6           0       -2.542271    0.285531    1.903560
     28          6           0       -1.982254    0.223339    4.351064
     29          1           0       -1.493747    1.206119    4.285510
     30          1           0       -1.239315   -0.536900    4.072972
     31          8           0       -2.164924   -0.836884    1.419429
     32          8           0       -2.536547   -0.022134    5.639865
     33          1           0       -1.829427    0.100639    6.290854
     34          7           0       -2.489942    1.485710    1.387686
     35          1           0       -3.960658    2.683637    0.689235
     36          6           0       -2.015001    1.575406    0.006147
     37          1           0       -2.434457    0.757328   -0.599818
     38          6           0       -0.490118    1.476521   -0.107225
     39          6           0       -2.547985    2.909199   -0.528262
     40          1           0       -2.426657    2.974208   -1.616745
     41          1           0       -1.963581    3.715763   -0.043700
     42          8           0        0.244867    2.439354   -0.417754
     43          8           0       -3.922116    3.034055   -0.229808
     44          7           0       -0.016380    0.255880    0.178332
     45          1           0       -0.724557   -0.413887    0.522566
     46          6           0        1.389362   -0.080550    0.234467
     47          1           0        1.899127    0.603232    0.924654
     48          6           0        2.022018    0.029172   -1.168372
     49          6           0        1.531959   -1.516362    0.752592
     50          1           0        0.966380   -2.208750    0.121049
     51          1           0        2.581645   -1.832674    0.706130
     52          8           0        1.389204   -0.197909   -2.189410
     53          6           0        1.079339   -1.647322    2.195050
     54          8           0        1.015996   -0.740102    2.995442
     55          8           0        0.787076   -2.929280    2.500634
     56          7           0        3.335484    0.407198   -1.172143
     57          1           0        3.831781    0.579146   -0.306952
     58          6           0        4.026963    0.739191   -2.402987
     59          1           0        3.587353    0.138476   -3.203498
     60          6           0        5.498209    0.391960   -2.244334
     61          6           0        3.892716    2.250125   -2.771639
     62          1           0        4.299790    2.398107   -3.778045
     63          1           0        4.512061    2.837040   -2.078218
     64          8           0        6.047755    0.198069   -1.182659
     65          6           0        2.435216    2.693498   -2.654269
     66          1           0        2.088799    2.424862   -1.656744
     67          1           0        1.802413    2.138260   -3.353270
     68          6           0        2.184369    4.193818   -2.798549
     69          1           0        2.949805    4.768816   -2.258061
     70          1           0        2.196957    4.508208   -3.850119
     71          7           0        0.859531    4.479842   -2.218062
     72          1           0        0.483923    3.767075   -1.564461
     73          7           0        0.724434    6.666577   -3.015393
     74          1           0        0.125698    7.391946   -3.382449
     75          1           0        1.657438    6.614146   -3.394421
     76          7           0       -1.066533    5.724525   -1.891371
     77          1           0       -1.473149    4.954142   -1.372215
     78          1           0       -1.453190    6.639370   -1.707866
     79          6           0        0.188220    5.608473   -2.369585
     80          8           0        6.130884    0.387902   -3.434066
     81          1           0        7.073526    0.202183   -3.259304
     82          1           0        0.545457   -2.942009    3.445843
 ---------------------------------------------------------------------

 SCF Done:  E(RB3LYP) =  -2166.35239362     A.U. after    1 cycles

 Alpha  occ. eigenvalues --  -19.27367 -19.26388 -19.22509 -19.21770 -19.20799
 Alpha  occ. eigenvalues --  -19.19996 -19.19168 -19.19078 -19.18219 -19.15102
 Alpha  occ. eigenvalues --  -14.57130 -14.49807 -14.48596 -14.48026 -14.44807
 Alpha  occ. eigenvalues --  -14.43256 -14.40970 -14.33988 -10.45278 -10.39778
 Alpha  occ. eigenvalues --  -10.39139 -10.39093 -10.37552 -10.35589 -10.34956
 Alpha  occ. eigenvalues --  -10.33352 -10.31557 -10.31238 -10.30639 -10.30551
 Alpha  occ. eigenvalues --  -10.28970 -10.28462 -10.28268 -10.27803 -10.27799
 Alpha  occ. eigenvalues --  -10.27688 -10.26670 -10.26615 -10.26480 -10.26082
 Alpha  occ. eigenvalues --  -10.25853 -10.25535 -10.25238  -1.18293  -1.17322
 Alpha  occ. eigenvalues --   -1.15304  -1.13846  -1.10763  -1.10425  -1.09664
 Alpha  occ. eigenvalues --   -1.09348  -1.08348  -1.07319  -1.06923  -1.05522
 Alpha  occ. eigenvalues --   -1.02921  -1.02209  -1.01172  -0.99924  -0.98599
 Alpha  occ. eigenvalues --   -0.93627  -0.92179  -0.89524  -0.88932  -0.86430
 Alpha  occ. eigenvalues --   -0.84111  -0.83638  -0.81567  -0.81412  -0.79130
 Alpha  occ. eigenvalues --   -0.78333  -0.76482  -0.76306  -0.75152  -0.71809
 Alpha  occ. eigenvalues --   -0.71230  -0.70559  -0.70378  -0.70223  -0.69254
 Alpha  occ. eigenvalues --   -0.68281  -0.67699  -0.67523  -0.66507  -0.66062
 Alpha  occ. eigenvalues --   -0.65552  -0.65264  -0.64500  -0.62652  -0.62210
 Alpha  occ. eigenvalues --   -0.61631  -0.59802  -0.59722  -0.58900  -0.58506
 Alpha  occ. eigenvalues --   -0.58202  -0.57778  -0.57052  -0.56540  -0.56404
 Alpha  occ. eigenvalues --   -0.56080  -0.55400  -0.55073  -0.54890  -0.54628
 Alpha  occ. eigenvalues --   -0.54484  -0.53967  -0.53437  -0.53328  -0.53034
 Alpha  occ. eigenvalues --   -0.52818  -0.52292  -0.51242  -0.51116  -0.50262
 Alpha  occ. eigenvalues --   -0.50188  -0.49457  -0.49272  -0.48939  -0.48895
 Alpha  occ. eigenvalues --   -0.48550  -0.48154  -0.47725  -0.47357  -0.47128
 Alpha  occ. eigenvalues --   -0.46650  -0.46126  -0.45991  -0.45630  -0.45429
 Alpha  occ. eigenvalues --   -0.45073  -0.44691  -0.43725  -0.43358  -0.42981
 Alpha  occ. eigenvalues --   -0.42660  -0.42180  -0.41764  -0.41587  -0.41165
 Alpha  occ. eigenvalues --   -0.40639  -0.40567  -0.39516  -0.39404  -0.38646
 Alpha  occ. eigenvalues --   -0.38404  -0.37827  -0.37294  -0.35500  -0.35032
 Alpha  occ. eigenvalues --   -0.34580  -0.33727  -0.32876  -0.32636  -0.32443
 Alpha  occ. eigenvalues --   -0.32144  -0.31886  -0.31603  -0.31529  -0.30163
 Alpha  occ. eigenvalues --   -0.28691  -0.26832
 Alpha virt. eigenvalues --   -0.09472  -0.09048  -0.08089  -0.07796  -0.07168
 Alpha virt. eigenvalues --   -0.06690  -0.05995  -0.05415  -0.05062  -0.04279
 Alpha virt. eigenvalues --   -0.03278  -0.01974  -0.01134   0.00131   0.00207

 Mulliken charges:
               1
     1  N   -0.753556
     2  H    0.410736
     3  H    0.427899
     4  H    0.405221
     5  C   -0.111691
     6  H    0.202627
     7  C    0.670292
     8  C   -0.378716
     9  H    0.172297
    10  H    0.179096
    11  O   -0.554398
    12  C    0.150445
    13  C   -0.182476
    14  H    0.140224
    15  C   -0.190641
    16  H    0.122702
    17  C   -0.132403
    18  H    0.173604
    19  C   -0.113752
    20  H    0.146286
    21  C   -0.111184
    22  H    0.146449
    23  N   -0.579651
    24  H    0.369249
    25  C   -0.042053
    26  H    0.178858
    27  C    0.553362
    28  C   -0.035384
    29  H    0.151853
    30  H    0.142491
    31  O   -0.662168
    32  O   -0.626990
    33  H    0.398548
    34  N   -0.568322
    35  H    0.405962
    36  C   -0.102289
    37  H    0.160157
    38  C    0.656778
    39  C   -0.039080
    40  H    0.125982
    41  H    0.115005
    42  O   -0.599826
    43  O   -0.631032
    44  N   -0.619143
    45  H    0.407680
    46  C   -0.022893
    47  H    0.174861
    48  C    0.623936
    49  C   -0.398290
    50  H    0.208373
    51  H    0.201324
    52  O   -0.520434
    53  C    0.601742
    54  O   -0.458987
    55  O   -0.560103
    56  N   -0.612418
    57  H    0.344972
    58  C   -0.036934
    59  H    0.210211
    60  C    0.584658
    61  C   -0.279963
    62  H    0.169576
    63  H    0.145716
    64  O   -0.460000
    65  C   -0.329678
    66  H    0.206600
    67  H    0.186562
    68  C   -0.144461
    69  H    0.170556
    70  H    0.165648
    71  N   -0.634712
    72  H    0.424835
    73  N   -0.764170
    74  H    0.375450
    75  H    0.382400
    76  N   -0.782627
    77  H    0.404116
    78  H    0.369227
    79  C    0.801246
    80  O   -0.561968
    81  H    0.424335
    82  H    0.412247
 Sum of Mulliken charges =   1.00000

 Dipole moment (field-independent basis, Debye):
    X=             -9.4418    Y=              4.7940    Z=              3.4609  Tot=             11.1404
 Quadrupole moment (field-independent basis, Debye-Ang):
   XX=           -110.1485   YY=           -100.0781   ZZ=           -158.7394
   XY=             80.1089   XZ=            -96.5496   YZ=           -104.3648

 Normal termination of Gaussian 16 at Tue May 17 01:31:03 2022.
