 Gaussian 16, Revision C.01,
 Gaussian 16:  ES64L-G16RevC.01  3-Jul-2019

 ----------------------------------------------------------------------
 # B3LYP/6-31G* empiricaldispersion=gd3 guess=read geom=check nosymm in
 tegral(ultrafinegrid)
 ----------------------------------------------------------------------

 ------------------------------------------------------
 Candidate Structure: Conf:112 Charge calc in gas phase
 ------------------------------------------------------
 Structure from the checkpoint file:  "conf-112.chk"
 Charge =  1 Multiplicity = 1

                          Input orientation:
 ---------------------------------------------------------------------
 Center     Atomic      Atomic             Coordinates (Angstroms)
 Number     Number       Type             X           Y           Z
 ---------------------------------------------------------------------
      1          7           0       -9.225975    1.179071    2.842165
      2          1           0       -9.625339    1.534572    3.715462
      3          1           0       -8.914113    2.010628    2.249211
      4          1           0       -9.930792    0.612964    2.361432
      5          6           0       -7.907886    0.454201    3.036756
      6          1           0       -7.841691    0.124341    4.075120
      7          6           0       -6.874084    1.567547    2.718395
      8          6           0       -7.820780   -0.748093    2.070347
      9          1           0       -8.638501   -1.439523    2.318518
     10          1           0       -7.988375   -0.385952    1.048504
     11          8           0       -7.284237    2.540635    2.064416
     12          6           0       -6.482334   -1.450710    2.158667
     13          6           0       -5.630737   -1.492381    1.048986
     14          1           0       -5.943710   -1.033209    0.113834
     15          6           0       -6.070907   -2.042125    3.362280
     16          1           0       -6.732853   -2.043042    4.227306
     17          6           0       -4.386390   -2.122046    1.129419
     18          1           0       -3.733498   -2.158877    0.259825
     19          6           0       -4.816646   -2.646346    3.453831
     20          1           0       -4.500401   -3.093466    4.391547
     21          6           0       -3.976655   -2.685972    2.338716
     22          1           0       -3.001250   -3.156809    2.411879
     23          7           0       -5.636226    1.370520    3.147537
     24          1           0       -5.379375    0.489656    3.587947
     25          6           0       -4.505863    2.251176    2.835691
     26          1           0       -4.833803    2.950004    2.062475
     27          6           0       -3.393181    1.288016    2.377283
     28          6           0       -4.069748    3.020892    4.082197
     29          1           0       -3.209434    3.653465    3.810696
     30          1           0       -3.729892    2.296083    4.835822
     31          8           0       -3.067212    0.385426    3.146040
     32          8           0       -5.182814    3.781790    4.521710
     33          1           0       -4.923711    4.259516    5.324358
     34          7           0       -2.931834    1.446560    1.121943
     35          1           0       -3.251481    2.234098    0.574606
     36          6           0       -2.104321    0.443167    0.463453
     37          1           0       -2.145035   -0.440880    1.104544
     38          6           0       -0.627593    0.863732    0.320478
     39          6           0       -2.728494    0.080469   -0.905491
     40          1           0       -2.557110    0.915299   -1.609683
     41          1           0       -3.812307   -0.034005   -0.782753
     42          8           0       -0.224009    1.886409    0.980253
     43          8           0       -2.215541   -1.134210   -1.391906
     44          7           0        0.044387    0.059707   -0.460185
     45          1           0       -1.234813   -0.995300   -1.307564
     46          6           0        1.428594    0.349466   -0.731853
     47          1           0        1.963974    0.713822    0.160179
     48          6           0        1.557699    1.434634   -1.835097
     49          6           0        2.110120   -0.964671   -1.186339
     50          1           0        1.655156   -1.788962   -0.627892
     51          1           0        1.907212   -1.173024   -2.244385
     52          8           0        0.596726    1.863800   -2.458452
     53          6           0        3.602593   -1.032363   -0.972111
     54          8           0        4.335899   -0.102988   -0.674064
     55          8           0        4.069918   -2.283310   -1.131365
     56          7           0        2.839508    1.907542   -2.049883
     57          1           0        3.579103    1.385935   -1.577984
     58          6           0        3.185430    2.545703   -3.321459
     59          1           0        2.296582    2.452395   -3.960515
     60          6           0        4.298465    1.781729   -4.036669
     61          6           0        3.526831    4.037204   -3.176348
     62          1           0        3.885735    4.407867   -4.139383
     63          1           0        4.373072    4.132239   -2.482958
     64          8           0        5.167088    2.290616   -4.705745
     65          6           0        2.299508    4.839572   -2.678847
     66          1           0        1.478182    4.141854   -2.485455
     67          1           0        1.938491    5.508481   -3.467783
     68          6           0        2.545876    5.658982   -1.390253
     69          1           0        3.363765    5.236352   -0.797012
     70          1           0        2.837408    6.689677   -1.606784
     71          7           0        1.358679    5.719415   -0.524871
     72          1           0        0.681476    6.444563   -0.717482
     73          7           0        1.697762    3.571747    0.336450
     74          1           0        1.179815    2.725296    0.674756
     75          1           0        2.475165    3.400624   -0.288923
     76          7           0       -0.303687    4.621129    0.715468
     77          1           0       -0.966979    5.347767    0.492136
     78          1           0       -0.647658    3.685695    0.985714
     79          6           0        0.918011    4.632896    0.144579
     80          8           0        4.175742    0.440302   -3.876087
     81          1           0        4.896105    0.034467   -4.395066
     82          1           0        5.032953   -2.250873   -0.973237
 ---------------------------------------------------------------------

 SCF Done:  E(RB3LYP) =  -2166.34922833     A.U. after    1 cycles

 Alpha  occ. eigenvalues --  -19.26447 -19.26396 -19.25999 -19.23877 -19.21285
 Alpha  occ. eigenvalues --  -19.20687 -19.19848 -19.18216 -19.17204 -19.16257
 Alpha  occ. eigenvalues --  -14.59801 -14.48937 -14.47093 -14.45195 -14.44687
 Alpha  occ. eigenvalues --  -14.43342 -14.41901 -14.34038 -10.42785 -10.41843
 Alpha  occ. eigenvalues --  -10.40342 -10.39285 -10.38736 -10.37411 -10.34729
 Alpha  occ. eigenvalues --  -10.33623 -10.33581 -10.32953 -10.31902 -10.31256
 Alpha  occ. eigenvalues --  -10.30537 -10.29961 -10.28522 -10.28375 -10.28176
 Alpha  occ. eigenvalues --  -10.28024 -10.27986 -10.27756 -10.27147 -10.26908
 Alpha  occ. eigenvalues --  -10.26399 -10.26160 -10.25967  -1.18578  -1.17589
 Alpha  occ. eigenvalues --   -1.17206  -1.13503  -1.12169  -1.11147  -1.10771
 Alpha  occ. eigenvalues --   -1.09912  -1.08458  -1.08270  -1.06098  -1.05348
 Alpha  occ. eigenvalues --   -1.04928  -1.00699  -1.00362  -0.98759  -0.97701
 Alpha  occ. eigenvalues --   -0.95833  -0.93262  -0.91967  -0.87480  -0.87271
 Alpha  occ. eigenvalues --   -0.84551  -0.84137  -0.83301  -0.82207  -0.80617
 Alpha  occ. eigenvalues --   -0.78987  -0.76677  -0.74800  -0.74227  -0.73553
 Alpha  occ. eigenvalues --   -0.72741  -0.72297  -0.71059  -0.69557  -0.69311
 Alpha  occ. eigenvalues --   -0.69181  -0.68483  -0.67850  -0.67260  -0.66986
 Alpha  occ. eigenvalues --   -0.65742  -0.65230  -0.63829  -0.63634  -0.62774
 Alpha  occ. eigenvalues --   -0.61539  -0.60610  -0.60059  -0.59274  -0.58953
 Alpha  occ. eigenvalues --   -0.58421  -0.57947  -0.57547  -0.56877  -0.56101
 Alpha  occ. eigenvalues --   -0.56035  -0.55886  -0.55330  -0.54949  -0.54929
 Alpha  occ. eigenvalues --   -0.54619  -0.54475  -0.54277  -0.53983  -0.53353
 Alpha  occ. eigenvalues --   -0.52753  -0.52579  -0.52387  -0.51506  -0.51337
 Alpha  occ. eigenvalues --   -0.50937  -0.50620  -0.50441  -0.50124  -0.49754
 Alpha  occ. eigenvalues --   -0.49261  -0.49243  -0.48262  -0.48074  -0.47437
 Alpha  occ. eigenvalues --   -0.47134  -0.46969  -0.46419  -0.46115  -0.45389
 Alpha  occ. eigenvalues --   -0.45013  -0.44894  -0.44404  -0.43761  -0.43474
 Alpha  occ. eigenvalues --   -0.43290  -0.42865  -0.42801  -0.42346  -0.41683
 Alpha  occ. eigenvalues --   -0.41104  -0.40749  -0.40274  -0.38981  -0.38853
 Alpha  occ. eigenvalues --   -0.38415  -0.38363  -0.36517  -0.36313  -0.35637
 Alpha  occ. eigenvalues --   -0.35131  -0.35029  -0.34635  -0.34118  -0.33727
 Alpha  occ. eigenvalues --   -0.33062  -0.31942  -0.31787  -0.31191  -0.29942
 Alpha  occ. eigenvalues --   -0.29203  -0.27556
 Alpha virt. eigenvalues --   -0.11816  -0.10740  -0.10046  -0.09253  -0.07007
 Alpha virt. eigenvalues --   -0.06515  -0.06392  -0.05895  -0.05501  -0.04371
 Alpha virt. eigenvalues --   -0.03262  -0.02507  -0.01779  -0.01144  -0.01000

 Mulliken charges:
               1
     1  N   -0.756513
     2  H    0.417316
     3  H    0.432131
     4  H    0.413068
     5  C   -0.118045
     6  H    0.214042
     7  C    0.665324
     8  C   -0.372695
     9  H    0.184032
    10  H    0.180659
    11  O   -0.545121
    12  C    0.153250
    13  C   -0.193672
    14  H    0.142131
    15  C   -0.220743
    16  H    0.125746
    17  C   -0.143682
    18  H    0.207417
    19  C   -0.110154
    20  H    0.156113
    21  C   -0.108501
    22  H    0.163006
    23  N   -0.576968
    24  H    0.378818
    25  C   -0.085145
    26  H    0.183344
    27  C    0.627737
    28  C   -0.024393
    29  H    0.145780
    30  H    0.161462
    31  O   -0.528298
    32  O   -0.622697
    33  H    0.409365
    34  N   -0.595207
    35  H    0.325113
    36  C   -0.090426
    37  H    0.201321
    38  C    0.591733
    39  C   -0.027649
    40  H    0.130643
    41  H    0.115211
    42  O   -0.660300
    43  O   -0.638827
    44  N   -0.544511
    45  H    0.413798
    46  C   -0.064194
    47  H    0.148981
    48  C    0.588476
    49  C   -0.374631
    50  H    0.207982
    51  H    0.205141
    52  O   -0.507484
    53  C    0.608255
    54  O   -0.495584
    55  O   -0.552747
    56  N   -0.654731
    57  H    0.383476
    58  C   -0.058495
    59  H    0.213561
    60  C    0.575803
    61  C   -0.269653
    62  H    0.184303
    63  H    0.148097
    64  O   -0.448351
    65  C   -0.309757
    66  H    0.195376
    67  H    0.159217
    68  C   -0.186140
    69  H    0.181907
    70  H    0.184041
    71  N   -0.585140
    72  H    0.342137
    73  N   -0.789119
    74  H    0.427045
    75  H    0.371178
    76  N   -0.784004
    77  H    0.338853
    78  H    0.396704
    79  C    0.775048
    80  O   -0.570334
    81  H    0.421350
    82  H    0.418412
 Sum of Mulliken charges =   1.00000

 Dipole moment (field-independent basis, Debye):
    X=            -25.6488    Y=             11.8332    Z=             10.3953  Tot=             30.0990
 Quadrupole moment (field-independent basis, Debye-Ang):
   XX=             45.6383   YY=           -170.7398   ZZ=           -202.8304
   XY=            -27.6161   XZ=           -110.0551   YZ=              5.3494

 Normal termination of Gaussian 16 at Tue May 17 01:30:58 2022.
