 Gaussian 16, Revision C.01,
 Gaussian 16:  ES64L-G16RevC.01  3-Jul-2019

 -------------------------------------------------------------------
 # B3LYP/6-31G* guess=read geom=check nosymm integral(ultrafinegrid)
 -------------------------------------------------------------------

 ------------------------------------------------------
 Candidate Structure: Conf:684 Charge calc in gas phase
 ------------------------------------------------------
 Structure from the checkpoint file:  "conf-684.chk"
 Charge =  1 Multiplicity = 1

                          Input orientation:
 ---------------------------------------------------------------------
 Center     Atomic      Atomic             Coordinates (Angstroms)
 Number     Number       Type             X           Y           Z
 ---------------------------------------------------------------------
      1          7           0       -1.478912   -0.354776   -4.312137
      2          1           0       -0.517091   -0.512223   -3.946242
      3          1           0       -1.449187    0.327927   -5.075222
      4          1           0       -1.856266   -1.262527   -4.651048
      5          6           0       -2.426403    0.053284   -3.200875
      6          1           0       -1.895737    0.761464   -2.566260
      7          6           0       -2.751402   -1.305402   -2.533041
      8          6           0       -3.689058    0.696518   -3.812544
      9          1           0       -3.377533    1.573950   -4.395478
     10          1           0       -4.140677   -0.023237   -4.505076
     11          8           0       -2.949896   -2.253641   -3.301953
     12          6           0       -4.695008    1.107791   -2.754959
     13          6           0       -5.774709    0.272142   -2.440526
     14          1           0       -5.908174   -0.663668   -2.978530
     15          6           0       -4.548130    2.321611   -2.068549
     16          1           0       -3.726688    2.991156   -2.316097
     17          6           0       -6.689645    0.641738   -1.453105
     18          1           0       -7.530582   -0.007649   -1.227632
     19          6           0       -5.461159    2.689606   -1.079171
     20          1           0       -5.341741    3.636312   -0.560707
     21          6           0       -6.532830    1.848939   -0.769416
     22          1           0       -7.249430    2.140177   -0.007142
     23          7           0       -2.787207   -1.388687   -1.194688
     24          6           0       -2.399878   -0.317571   -0.253486
     25          1           0       -2.997125    0.583229   -0.411807
     26          6           0       -0.933007    0.130276   -0.405932
     27          6           0       -2.713353   -0.938558    1.132840
     28          1           0       -2.031302   -0.574168    1.904752
     29          1           0       -3.727348   -0.646483    1.423367
     30          8           0       -0.614015    1.274745   -0.121642
     31          6           0       -2.638824   -2.458492    0.905455
     32          1           0       -1.601726   -2.810782    0.961740
     33          1           0       -3.213830   -3.020973    1.644870
     34          6           0       -3.191324   -2.640779   -0.512411
     35          1           0       -4.284896   -2.714124   -0.521059
     36          1           0       -2.792071   -3.502828   -1.051001
     37          7           0       -0.047142   -0.788621   -0.919607
     38          1           0       -0.333093   -1.758365   -0.958777
     39          6           0        1.383425   -0.499318   -0.933018
     40          1           0        1.448570    0.595469   -0.876855
     41          6           0        2.051607   -0.888726   -2.247136
     42          6           0        2.151070   -1.084640    0.272097
     43          1           0        1.739899   -0.613963    1.172929
     44          1           0        3.192611   -0.758278    0.187872
     45          8           0        3.222043   -1.123944   -2.381559
     46          6           0        2.099342   -2.612664    0.400804
     47          1           0        1.055556   -2.948735    0.507847
     48          1           0        2.487055   -3.074863   -0.517297
     49          6           0        2.905002   -3.133032    1.600226
     50          1           0        2.542496   -2.656210    2.523002
     51          1           0        3.956376   -2.832414    1.488220
     52          6           0        2.828769   -4.663255    1.757907
     53          1           0        1.777722   -4.962926    1.874072
     54          1           0        3.181765   -5.140860    0.834149
     55          7           0        3.579312   -5.240330    2.869114
     56          1           0        3.280664   -4.829820    3.752512
     57          1           0        4.571574   -5.029804    2.774654
     58          8           0        1.210081   -0.915554   -3.350838
     59          1           0        1.805665   -1.152299   -4.090733
 ---------------------------------------------------------------------

 SCF Done:  E(RB3LYP) =  -1300.52523796     A.U. after    1 cycles

 Alpha  occ. eigenvalues --  -19.34277 -19.27357 -19.26548 -19.24531 -14.60145
 Alpha  occ. eigenvalues --  -14.51052 -14.49521 -14.37613 -10.45411 -10.43695
 Alpha  occ. eigenvalues --  -10.41734 -10.40788 -10.36459 -10.36369 -10.34586
 Alpha  occ. eigenvalues --  -10.34159 -10.31645 -10.31409 -10.31240 -10.29916
 Alpha  occ. eigenvalues --  -10.29816 -10.29418 -10.29372 -10.29343 -10.29188
 Alpha  occ. eigenvalues --  -10.28354 -10.27842 -10.26310  -1.24073  -1.19174
 Alpha  occ. eigenvalues --   -1.16626  -1.15199  -1.14210  -1.08736  -1.05469
 Alpha  occ. eigenvalues --   -0.97122  -0.94629  -0.93709  -0.91970  -0.91092
 Alpha  occ. eigenvalues --   -0.88095  -0.85879  -0.85381  -0.85000  -0.80459
 Alpha  occ. eigenvalues --   -0.79235  -0.77781  -0.74548  -0.74434  -0.73642
 Alpha  occ. eigenvalues --   -0.73181  -0.71539  -0.71196  -0.69979  -0.69251
 Alpha  occ. eigenvalues --   -0.68858  -0.67052  -0.66481  -0.64678  -0.63498
 Alpha  occ. eigenvalues --   -0.62277  -0.61979  -0.61355  -0.59886  -0.58889
 Alpha  occ. eigenvalues --   -0.58211  -0.57657  -0.57248  -0.56750  -0.56236
 Alpha  occ. eigenvalues --   -0.55775  -0.55233  -0.54499  -0.54351  -0.53679
 Alpha  occ. eigenvalues --   -0.53328  -0.53130  -0.52538  -0.52227  -0.51952
 Alpha  occ. eigenvalues --   -0.51378  -0.50480  -0.50369  -0.49927  -0.48148
 Alpha  occ. eigenvalues --   -0.47878  -0.47436  -0.46578  -0.46239  -0.45992
 Alpha  occ. eigenvalues --   -0.45782  -0.45081  -0.44662  -0.44444  -0.43716
 Alpha  occ. eigenvalues --   -0.42629  -0.41454  -0.41036  -0.40793  -0.40003
 Alpha  occ. eigenvalues --   -0.38573  -0.36915  -0.35533  -0.35446  -0.29652
 Alpha virt. eigenvalues --   -0.13921  -0.12600  -0.11696  -0.11174  -0.10870
 Alpha virt. eigenvalues --   -0.09982  -0.06605  -0.05637  -0.03332  -0.02376
 Alpha virt. eigenvalues --   -0.02074  -0.01320  -0.00505   0.00141   0.01328

 Mulliken charges:
               1
     1  N   -0.778164
     2  H    0.448299
     3  H    0.406235
     4  H    0.417984
     5  C   -0.116287
     6  H    0.220773
     7  C    0.632545
     8  C   -0.374369
     9  H    0.175803
    10  H    0.191347
    11  O   -0.535962
    12  C    0.151420
    13  C   -0.185453
    14  H    0.151271
    15  C   -0.191060
    16  H    0.141930
    17  C   -0.131655
    18  H    0.159827
    19  C   -0.127073
    20  H    0.163315
    21  C   -0.126364
    22  H    0.162779
    23  N   -0.469290
    24  C   -0.062910
    25  H    0.210505
    26  C    0.592931
    27  C   -0.310421
    28  H    0.194445
    29  H    0.188853
    30  O   -0.497601
    31  C   -0.321312
    32  H    0.163775
    33  H    0.192274
    34  C   -0.136400
    35  H    0.192523
    36  H    0.197498
    37  N   -0.619900
    38  H    0.346227
    39  C   -0.082290
    40  H    0.234792
    41  C    0.616648
    42  C   -0.259970
    43  H    0.162996
    44  H    0.185370
    45  O   -0.415913
    46  C   -0.286810
    47  H    0.114705
    48  H    0.153448
    49  C   -0.266275
    50  H    0.132105
    51  H    0.144993
    52  C   -0.139450
    53  H    0.134835
    54  H    0.147005
    55  N   -0.698561
    56  H    0.297738
    57  H    0.301510
    58  O   -0.627006
    59  H    0.431793
 Sum of Mulliken charges =   1.00000

 Dipole moment (field-independent basis, Debye):
    X=             -8.8335    Y=             -1.8250    Z=            -11.4032  Tot=             14.5394
 Quadrupole moment (field-independent basis, Debye-Ang):
   XX=           -117.1712   YY=           -168.2460   ZZ=            -96.4886
   XY=             -1.9127   XZ=             13.4655   YZ=             -3.3060

 Normal termination of Gaussian 16 at Wed May 25 07:54:30 2022.
