 Gaussian 16, Revision C.01,
 Gaussian 16:  ES64L-G16RevC.01  3-Jul-2019

 -------------------------------------------------------------------
 # B3LYP/6-31G* guess=read geom=check nosymm integral(ultrafinegrid)
 -------------------------------------------------------------------

 -----------------------------------------------------
 Candidate Structure: Conf:14 Charge calc in gas phase
 -----------------------------------------------------
 Structure from the checkpoint file:  "conf-14.chk"
 Charge =  1 Multiplicity = 1

                          Input orientation:
 ---------------------------------------------------------------------
 Center     Atomic      Atomic             Coordinates (Angstroms)
 Number     Number       Type             X           Y           Z
 ---------------------------------------------------------------------
      1          7           0       -2.870657   -0.567995    4.354605
      2          1           0       -3.278246   -0.423827    5.282029
      3          1           0       -1.887133   -1.088078    4.457032
      4          1           0       -3.452238   -1.219974    3.818554
      5          6           0       -2.748911    0.740492    3.605730
      6          1           0       -3.684986    1.292019    3.737445
      7          6           0       -2.515343    0.305620    2.144777
      8          6           0       -1.557097    1.524468    4.222370
      9          1           0       -1.570573    1.326215    5.304091
     10          1           0       -0.629092    1.097253    3.830666
     11          8           0       -2.245811   -0.888526    1.953687
     12          6           0       -1.564448    3.024000    4.007035
     13          6           0       -0.592367    3.628282    3.199263
     14          1           0        0.134247    3.009852    2.679630
     15          6           0       -2.516399    3.829168    4.647782
     16          1           0       -3.262905    3.377958    5.300043
     17          6           0       -0.579265    5.015227    3.033139
     18          1           0        0.181962    5.474047    2.408557
     19          6           0       -2.507646    5.213137    4.475465
     20          1           0       -3.248717    5.825902    4.980569
     21          6           0       -1.536542    5.809260    3.667212
     22          1           0       -1.522839    6.887723    3.539364
     23          7           0       -2.515195    1.205795    1.150429
     24          6           0       -1.887773    0.802858   -0.122680
     25          1           0       -2.419002   -0.062389   -0.535397
     26          6           0       -0.404114    0.459210    0.133581
     27          6           0       -2.059401    2.055405   -1.010646
     28          1           0       -1.186811    2.706684   -0.892553
     29          1           0       -2.154371    1.795541   -2.067624
     30          8           0        0.271711    1.124631    0.916091
     31          6           0       -3.310460    2.739813   -0.435763
     32          1           0       -3.377852    3.797168   -0.704699
     33          1           0       -4.219529    2.239776   -0.788467
     34          6           0       -3.143866    2.543058    1.076824
     35          1           0       -4.093146    2.550877    1.620692
     36          1           0       -2.487179    3.304087    1.502844
     37          7           0        0.085484   -0.583117   -0.579513
     38          1           0       -0.523690   -1.074777   -1.219737
     39          6           0        1.513178   -0.885540   -0.649201
     40          1           0        2.041146    0.035558   -0.380608
     41          6           0        1.939189   -1.226527   -2.079025
     42          6           0        2.011777   -2.010781    0.295624
     43          1           0        3.041272   -2.214497   -0.014494
     44          1           0        1.438590   -2.927377    0.101264
     45          8           0        3.087901   -1.388277   -2.410325
     46          6           0        1.997326   -1.671659    1.802302
     47          1           0        2.848587   -2.179803    2.273662
     48          1           0        2.166433   -0.595781    1.931962
     49          6           0        0.712090   -2.079757    2.539686
     50          1           0        0.592906   -3.172415    2.476747
     51          1           0       -0.164950   -1.639310    2.061874
     52          6           0        0.747691   -1.668296    4.011707
     53          1           0        1.591499   -2.156345    4.517795
     54          1           0        0.903788   -0.587493    4.100350
     55          7           0       -0.530499   -1.996429    4.719203
     56          1           0       -0.355006   -1.995096    5.726124
     57          1           0       -0.779130   -2.962439    4.494008
     58          8           0        0.892993   -1.362541   -2.931848
     59          1           0        1.271238   -1.603273   -3.799659
 ---------------------------------------------------------------------

 SCF Done:  E(RB3LYP) =  -1300.54433836     A.U. after    3 cycles

 Alpha  occ. eigenvalues --  -19.29113 -19.24434 -19.22745 -19.21643 -14.56266
 Alpha  occ. eigenvalues --  -14.48533 -14.47408 -14.46282 -10.41682 -10.41167
 Alpha  occ. eigenvalues --  -10.39092 -10.38982 -10.34167 -10.33330 -10.33174
 Alpha  occ. eigenvalues --  -10.32607 -10.32534 -10.29968 -10.29639 -10.29495
 Alpha  occ. eigenvalues --  -10.28839 -10.28320 -10.28108 -10.28075 -10.28030
 Alpha  occ. eigenvalues --  -10.27910 -10.27597 -10.27326  -1.19726  -1.17085
 Alpha  occ. eigenvalues --   -1.13478  -1.10785  -1.10678  -1.06049  -1.02604
 Alpha  occ. eigenvalues --   -1.02152  -0.95616  -0.91988  -0.89846  -0.89540
 Alpha  occ. eigenvalues --   -0.86875  -0.84927  -0.84140  -0.83746  -0.79590
 Alpha  occ. eigenvalues --   -0.78480  -0.75803  -0.73147  -0.71852  -0.71270
 Alpha  occ. eigenvalues --   -0.70138  -0.69901  -0.69503  -0.69342  -0.68161
 Alpha  occ. eigenvalues --   -0.66590  -0.65854  -0.62728  -0.62086  -0.61686
 Alpha  occ. eigenvalues --   -0.61523  -0.61082  -0.60227  -0.58615  -0.57536
 Alpha  occ. eigenvalues --   -0.57171  -0.56793  -0.56110  -0.55416  -0.55040
 Alpha  occ. eigenvalues --   -0.54925  -0.54329  -0.53524  -0.52741  -0.52151
 Alpha  occ. eigenvalues --   -0.51753  -0.51610  -0.51216  -0.50989  -0.50559
 Alpha  occ. eigenvalues --   -0.50083  -0.49570  -0.48680  -0.48473  -0.47881
 Alpha  occ. eigenvalues --   -0.47062  -0.46286  -0.45932  -0.45095  -0.44694
 Alpha  occ. eigenvalues --   -0.44276  -0.43808  -0.43320  -0.42873  -0.42777
 Alpha  occ. eigenvalues --   -0.42305  -0.40599  -0.40070  -0.38725  -0.37580
 Alpha  occ. eigenvalues --   -0.36533  -0.35297  -0.34415  -0.34359  -0.34045
 Alpha virt. eigenvalues --   -0.11873  -0.10171  -0.09519  -0.08712  -0.08280
 Alpha virt. eigenvalues --   -0.07773  -0.04546  -0.03180  -0.02700  -0.01937
 Alpha virt. eigenvalues --   -0.01805  -0.01007   0.00326   0.00802   0.00907

 Mulliken charges:
               1
     1  N   -0.774678
     2  H    0.382260
     3  H    0.463945
     4  H    0.398381
     5  C   -0.097755
     6  H    0.198124
     7  C    0.620977
     8  C   -0.386897
     9  H    0.162519
    10  H    0.207508
    11  O   -0.539647
    12  C    0.157992
    13  C   -0.204647
    14  H    0.181689
    15  C   -0.182682
    16  H    0.119041
    17  C   -0.133744
    18  H    0.156405
    19  C   -0.128305
    20  H    0.154392
    21  C   -0.125088
    22  H    0.157652
    23  N   -0.439681
    24  C   -0.033016
    25  H    0.170045
    26  C    0.641021
    27  C   -0.314629
    28  H    0.183917
    29  H    0.176867
    30  O   -0.543036
    31  C   -0.300324
    32  H    0.179822
    33  H    0.166754
    34  C   -0.147239
    35  H    0.162651
    36  H    0.203727
    37  N   -0.605342
    38  H    0.353915
    39  C   -0.058677
    40  H    0.212810
    41  C    0.592515
    42  C   -0.274236
    43  H    0.188672
    44  H    0.146318
    45  O   -0.438734
    46  C   -0.273521
    47  H    0.149284
    48  H    0.163889
    49  C   -0.304899
    50  H    0.135283
    51  H    0.204013
    52  C   -0.146041
    53  H    0.162643
    54  H    0.166477
    55  N   -0.791897
    56  H    0.337486
    57  H    0.340649
    58  O   -0.583986
    59  H    0.429058
 Sum of Mulliken charges =   1.00000

 Dipole moment (field-independent basis, Debye):
    X=            -11.3288    Y=              0.1880    Z=             14.3234  Tot=             18.2630
 Quadrupole moment (field-independent basis, Debye-Ang):
   XX=           -130.6846   YY=           -127.2333   ZZ=            -69.3530
   XY=            -11.9150   XZ=            -34.6956   YZ=             -7.1235

 Normal termination of Gaussian 16 at Wed May 25 07:50:33 2022.
