 Gaussian 16, Revision C.01,
 Gaussian 16:  ES64L-G16RevC.01  3-Jul-2019

 -------------------------------------------------------------------
 # B3LYP/6-31G* guess=read geom=check nosymm integral(ultrafinegrid)
 -------------------------------------------------------------------

 ------------------------------------------------------
 Candidate Structure: Conf:669 Charge calc in gas phase
 ------------------------------------------------------
 Structure from the checkpoint file:  "conf-669.chk"
 Charge =  1 Multiplicity = 1

                          Input orientation:
 ---------------------------------------------------------------------
 Center     Atomic      Atomic             Coordinates (Angstroms)
 Number     Number       Type             X           Y           Z
 ---------------------------------------------------------------------
      1          7           0       -0.566911   -0.181980    3.106877
      2          1           0        0.007421    0.330948    2.412903
      3          1           0       -0.045095   -0.993425    3.461396
      4          1           0       -0.824830    0.448076    3.879269
      5          6           0       -1.840812   -0.620475    2.425644
      6          1           0       -1.523724   -1.064554    1.483200
      7          6           0       -2.661734    0.681987    2.300930
      8          6           0       -2.575392   -1.662236    3.294690
      9          1           0       -2.934074   -1.159406    4.198679
     10          1           0       -3.463897   -1.974566    2.733599
     11          8           0       -2.931556    1.258137    3.352913
     12          6           0       -1.707870   -2.856559    3.638167
     13          6           0       -1.504557   -3.889386    2.710817
     14          1           0       -2.009708   -3.856176    1.747610
     15          6           0       -1.064595   -2.933173    4.883443
     16          1           0       -1.243333   -2.162742    5.631792
     17          6           0       -0.682255   -4.971607    3.020714
     18          1           0       -0.547222   -5.771125    2.297941
     19          6           0       -0.236512   -4.015781    5.193819
     20          1           0        0.241851   -4.066990    6.167561
     21          6           0       -0.043539   -5.035491    4.262138
     22          1           0        0.591100   -5.882555    4.505027
     23          7           0       -3.050888    1.107418    1.074848
     24          6           0       -2.415692    0.708724   -0.186696
     25          1           0       -2.661731   -0.329376   -0.442673
     26          6           0       -0.872673    0.843155   -0.083051
     27          6           0       -3.032664    1.685797   -1.220490
     28          1           0       -2.371223    1.856626   -2.074363
     29          1           0       -3.967987    1.259996   -1.599026
     30          8           0       -0.345267    1.438562    0.859353
     31          6           0       -3.307781    2.951784   -0.394877
     32          1           0       -2.386894    3.530330   -0.266471
     33          1           0       -4.054539    3.600433   -0.859133
     34          6           0       -3.773743    2.398798    0.954793
     35          1           0       -4.852881    2.208794    0.972947
     36          1           0       -3.523912    3.031660    1.807500
     37          7           0       -0.181078    0.235832   -1.074378
     38          1           0       -0.708463   -0.257970   -1.782881
     39          6           0        1.279669    0.097400   -1.125841
     40          1           0        1.505992   -0.379112   -2.084528
     41          6           0        1.748910   -0.868762   -0.030397
     42          6           0        2.022343    1.461340   -1.089446
     43          1           0        1.890990    1.913814   -0.102765
     44          1           0        1.493376    2.105721   -1.803441
     45          8           0        1.174365   -1.093883    1.019604
     46          6           0        3.508835    1.388476   -1.460368
     47          1           0        4.068898    0.797550   -0.730279
     48          1           0        3.625019    0.878880   -2.428058
     49          6           0        4.150588    2.780070   -1.542955
     50          1           0        3.932956    3.341934   -0.621857
     51          1           0        3.706103    3.356343   -2.365895
     52          6           0        5.671118    2.719747   -1.739055
     53          1           0        5.896524    2.113742   -2.625765
     54          1           0        6.044139    3.736164   -1.950632
     55          7           0        6.318561    2.078740   -0.585876
     56          1           0        6.339714    2.730975    0.197724
     57          1           0        7.292511    1.876937   -0.804521
     58          8           0        2.900960   -1.457697   -0.371363
     59          1           0        3.185794   -2.023368    0.372815
 ---------------------------------------------------------------------

 SCF Done:  E(RB3LYP) =  -1300.54263368     A.U. after    1 cycles

 Alpha  occ. eigenvalues --  -19.31894 -19.26810 -19.25293 -19.23966 -14.57224
 Alpha  occ. eigenvalues --  -14.49953 -14.48754 -14.38097 -10.44811 -10.42413
 Alpha  occ. eigenvalues --  -10.41358 -10.38404 -10.36633 -10.36518 -10.32433
 Alpha  occ. eigenvalues --  -10.32001 -10.31372 -10.30919 -10.29757 -10.29690
 Alpha  occ. eigenvalues --  -10.29587 -10.29233 -10.29208 -10.29095 -10.28969
 Alpha  occ. eigenvalues --  -10.27659 -10.26312 -10.25744  -1.23132  -1.17557
 Alpha  occ. eigenvalues --   -1.16144  -1.13978  -1.11827  -1.06545  -1.06035
 Alpha  occ. eigenvalues --   -0.96371  -0.94796  -0.92258  -0.91381  -0.90212
 Alpha  occ. eigenvalues --   -0.87071  -0.85075  -0.84768  -0.84370  -0.78804
 Alpha  occ. eigenvalues --   -0.78561  -0.76699  -0.74856  -0.72224  -0.72149
 Alpha  occ. eigenvalues --   -0.71414  -0.71085  -0.70129  -0.68892  -0.68705
 Alpha  occ. eigenvalues --   -0.67914  -0.65667  -0.64984  -0.62899  -0.62009
 Alpha  occ. eigenvalues --   -0.61288  -0.61132  -0.60737  -0.59030  -0.58445
 Alpha  occ. eigenvalues --   -0.57809  -0.56413  -0.56085  -0.55913  -0.55546
 Alpha  occ. eigenvalues --   -0.55056  -0.54404  -0.54030  -0.53749  -0.52703
 Alpha  occ. eigenvalues --   -0.52464  -0.52317  -0.52051  -0.51510  -0.51136
 Alpha  occ. eigenvalues --   -0.50456  -0.49703  -0.48933  -0.48315  -0.48266
 Alpha  occ. eigenvalues --   -0.46765  -0.46438  -0.46178  -0.45755  -0.45399
 Alpha  occ. eigenvalues --   -0.44590  -0.44404  -0.44391  -0.44281  -0.42321
 Alpha  occ. eigenvalues --   -0.41333  -0.40843  -0.40729  -0.39128  -0.38030
 Alpha  occ. eigenvalues --   -0.38008  -0.36516  -0.35522  -0.35085  -0.30379
 Alpha virt. eigenvalues --   -0.12893  -0.12032  -0.10960  -0.10822  -0.10412
 Alpha virt. eigenvalues --   -0.05803  -0.05188  -0.03682  -0.02743  -0.01319
 Alpha virt. eigenvalues --   -0.00776   0.00327   0.00636   0.01027   0.01161

 Mulliken charges:
               1
     1  N   -0.738264
     2  H    0.451800
     3  H    0.406352
     4  H    0.407241
     5  C   -0.104432
     6  H    0.195158
     7  C    0.630354
     8  C   -0.374070
     9  H    0.202072
    10  H    0.192100
    11  O   -0.518725
    12  C    0.134424
    13  C   -0.171388
    14  H    0.132774
    15  C   -0.220499
    16  H    0.144398
    17  C   -0.124950
    18  H    0.156902
    19  C   -0.120915
    20  H    0.161187
    21  C   -0.125828
    22  H    0.161542
    23  N   -0.439552
    24  C   -0.089145
    25  H    0.172570
    26  C    0.642997
    27  C   -0.302834
    28  H    0.172651
    29  H    0.181241
    30  O   -0.555031
    31  C   -0.307758
    32  H    0.178713
    33  H    0.183192
    34  C   -0.128471
    35  H    0.181642
    36  H    0.205844
    37  N   -0.606201
    38  H    0.351629
    39  C   -0.052182
    40  H    0.191065
    41  C    0.607037
    42  C   -0.277135
    43  H    0.179430
    44  H    0.157043
    45  O   -0.504586
    46  C   -0.262979
    47  H    0.179468
    48  H    0.133603
    49  C   -0.256275
    50  H    0.130911
    51  H    0.137340
    52  C   -0.145954
    53  H    0.145153
    54  H    0.132710
    55  N   -0.721052
    56  H    0.297793
    57  H    0.308890
    58  O   -0.528963
    59  H    0.429963
 Sum of Mulliken charges =   1.00000

 Dipole moment (field-independent basis, Debye):
    X=             -0.4335    Y=             -2.2522    Z=              3.3845  Tot=              4.0885
 Quadrupole moment (field-independent basis, Debye-Ang):
   XX=           -120.2498   YY=           -133.1334   ZZ=           -125.9996
   XY=              2.9399   XZ=              4.8260   YZ=            -20.4364

 Normal termination of Gaussian 16 at Wed May 25 07:54:29 2022.
