 Gaussian 16, Revision C.01,
 Gaussian 16:  ES64L-G16RevC.01  3-Jul-2019

 -------------------------------------------------------------------
 # B3LYP/6-31G* guess=read geom=check nosymm integral(ultrafinegrid)
 -------------------------------------------------------------------

 ------------------------------------------------------
 Candidate Structure: Conf:428 Charge calc in gas phase
 ------------------------------------------------------
 Structure from the checkpoint file:  "conf-428.chk"
 Charge =  1 Multiplicity = 1

                          Input orientation:
 ---------------------------------------------------------------------
 Center     Atomic      Atomic             Coordinates (Angstroms)
 Number     Number       Type             X           Y           Z
 ---------------------------------------------------------------------
      1          7           0       -3.971265    3.613985    2.370387
      2          1           0       -4.938487    3.348162    2.577414
      3          1           0       -3.747861    4.472587    2.881337
      4          1           0       -3.329373    2.809974    2.648594
      5          6           0       -3.679118    3.715991    0.880610
      6          1           0       -4.611296    3.944389    0.362129
      7          6           0       -3.117051    2.298488    0.580096
      8          6           0       -2.627586    4.836301    0.663221
      9          1           0       -2.942864    5.700272    1.266417
     10          1           0       -1.667500    4.488877    1.060486
     11          8           0       -2.641823    1.690584    1.558394
     12          6           0       -2.477362    5.281140   -0.777698
     13          6           0       -1.373283    4.878863   -1.539700
     14          1           0       -0.633449    4.210382   -1.110636
     15          6           0       -3.440768    6.122059   -1.353168
     16          1           0       -4.289248    6.464237   -0.762324
     17          6           0       -1.242281    5.310947   -2.861781
     18          1           0       -0.378855    5.000706   -3.443198
     19          6           0       -3.310962    6.547469   -2.674742
     20          1           0       -4.059220    7.204929   -3.107680
     21          6           0       -2.208952    6.141620   -3.431734
     22          1           0       -2.100381    6.480660   -4.457849
     23          7           0       -3.138685    1.801211   -0.653447
     24          6           0       -2.407679    0.548886   -0.927179
     25          1           0       -2.805008   -0.240205   -0.279000
     26          6           0       -0.898902    0.739258   -0.661292
     27          6           0       -2.699057    0.273476   -2.424598
     28          1           0       -1.872573    0.650297   -3.035952
     29          1           0       -2.801035   -0.795258   -2.627122
     30          8           0       -0.386240    1.851552   -0.628665
     31          6           0       -3.985541    1.064468   -2.712152
     32          1           0       -4.109757    1.301136   -3.771900
     33          1           0       -4.866938    0.502856   -2.383015
     34          6           0       -3.813759    2.327221   -1.861333
     35          1           0       -4.762309    2.803393   -1.599666
     36          1           0       -3.175073    3.062598   -2.357747
     37          7           0       -0.211246   -0.420826   -0.514876
     38          1           0       -0.699503   -1.295806   -0.652726
     39          6           0        1.245029   -0.459706   -0.499524
     40          1           0        1.567613    0.537103   -0.184243
     41          6           0        1.860735   -0.667326   -1.888899
     42          6           0        1.797751   -1.498759    0.497146
     43          1           0        1.459067   -1.208545    1.497566
     44          1           0        2.888756   -1.404806    0.481927
     45          8           0        3.050439   -0.739572   -2.081625
     46          6           0        1.410726   -2.954626    0.191537
     47          1           0        0.318491   -3.081907    0.258864
     48          1           0        1.689724   -3.190592   -0.844188
     49          6           0        2.085094   -3.978462    1.119521
     50          1           0        3.174347   -3.854352    1.086499
     51          1           0        1.878548   -4.986251    0.732622
     52          6           0        1.629542   -3.916129    2.581524
     53          1           0        1.882936   -2.939087    3.011567
     54          1           0        0.524627   -3.996892    2.616716
     55          7           0        2.334070   -4.930515    3.366675
     56          1           0        2.042356   -5.862258    3.074180
     57          1           0        2.087260   -4.850523    4.351199
     58          8           0        0.941408   -0.760722   -2.881973
     59          1           0        1.452435   -0.883173   -3.705695
 ---------------------------------------------------------------------

 SCF Done:  E(RB3LYP) =  -1300.51862533     A.U. after    2 cycles

 Alpha  occ. eigenvalues --  -19.28308 -19.26902 -19.22019 -19.21936 -14.60429
 Alpha  occ. eigenvalues --  -14.50765 -14.46278 -14.36648 -10.43750 -10.41411
 Alpha  occ. eigenvalues --  -10.40249 -10.39328 -10.35256 -10.34739 -10.34201
 Alpha  occ. eigenvalues --  -10.32630 -10.30839 -10.30750 -10.30672 -10.29598
 Alpha  occ. eigenvalues --  -10.28968 -10.28777 -10.28728 -10.28659 -10.26929
 Alpha  occ. eigenvalues --  -10.26761 -10.26252 -10.24442  -1.19666  -1.18901
 Alpha  occ. eigenvalues --   -1.14505  -1.13635  -1.09842  -1.08067  -1.02804
 Alpha  occ. eigenvalues --   -0.96682  -0.93576  -0.93527  -0.91422  -0.88999
 Alpha  occ. eigenvalues --   -0.86918  -0.85579  -0.84430  -0.82852  -0.80149
 Alpha  occ. eigenvalues --   -0.77775  -0.76097  -0.74267  -0.73561  -0.71981
 Alpha  occ. eigenvalues --   -0.71738  -0.71247  -0.70615  -0.68366  -0.68275
 Alpha  occ. eigenvalues --   -0.66666  -0.64376  -0.64051  -0.63845  -0.63224
 Alpha  occ. eigenvalues --   -0.61324  -0.61152  -0.58615  -0.58308  -0.56801
 Alpha  occ. eigenvalues --   -0.56317  -0.56177  -0.55719  -0.55365  -0.54938
 Alpha  occ. eigenvalues --   -0.54056  -0.53153  -0.53072  -0.52779  -0.52119
 Alpha  occ. eigenvalues --   -0.51949  -0.51637  -0.51516  -0.51026  -0.50274
 Alpha  occ. eigenvalues --   -0.50125  -0.49206  -0.48647  -0.48147  -0.47407
 Alpha  occ. eigenvalues --   -0.46639  -0.45968  -0.45501  -0.45348  -0.44569
 Alpha  occ. eigenvalues --   -0.44067  -0.43965  -0.43509  -0.41613  -0.40976
 Alpha  occ. eigenvalues --   -0.40088  -0.39808  -0.38951  -0.38567  -0.38021
 Alpha  occ. eigenvalues --   -0.35794  -0.35063  -0.34840  -0.33904  -0.28848
 Alpha virt. eigenvalues --   -0.13356  -0.11440  -0.11369  -0.10184  -0.07903
 Alpha virt. eigenvalues --   -0.07354  -0.06763  -0.04326  -0.02917  -0.02138
 Alpha virt. eigenvalues --   -0.01667  -0.00791  -0.00548   0.00368   0.01821

 Mulliken charges:
               1
     1  N   -0.753736
     2  H    0.414212
     3  H    0.411172
     4  H    0.435277
     5  C   -0.109045
     6  H    0.206042
     7  C    0.654324
     8  C   -0.383240
     9  H    0.171254
    10  H    0.209031
    11  O   -0.553160
    12  C    0.145971
    13  C   -0.193393
    14  H    0.192934
    15  C   -0.185114
    16  H    0.124814
    17  C   -0.139588
    18  H    0.159780
    19  C   -0.128712
    20  H    0.157364
    21  C   -0.124317
    22  H    0.160296
    23  N   -0.438169
    24  C   -0.058334
    25  H    0.184487
    26  C    0.651373
    27  C   -0.314897
    28  H    0.191095
    29  H    0.178127
    30  O   -0.528022
    31  C   -0.296757
    32  H    0.184310
    33  H    0.167948
    34  C   -0.152849
    35  H    0.163960
    36  H    0.210087
    37  N   -0.601144
    38  H    0.343252
    39  C   -0.070651
    40  H    0.217783
    41  C    0.600035
    42  C   -0.272657
    43  H    0.157598
    44  H    0.185706
    45  O   -0.443027
    46  C   -0.289108
    47  H    0.114769
    48  H    0.152251
    49  C   -0.251804
    50  H    0.164745
    51  H    0.136331
    52  C   -0.132374
    53  H    0.140984
    54  H    0.103895
    55  N   -0.712459
    56  H    0.297796
    57  H    0.301788
    58  O   -0.579787
    59  H    0.421558
 Sum of Mulliken charges =   1.00000

 Dipole moment (field-independent basis, Debye):
    X=            -19.4756    Y=             12.1743    Z=              1.7606  Tot=             23.0350
 Quadrupole moment (field-independent basis, Debye-Ang):
   XX=            -98.1507   YY=            -85.1805   ZZ=           -118.3833
   XY=            -59.4385   XZ=            -16.3454   YZ=             11.7343

 Normal termination of Gaussian 16 at Wed May 25 07:50:23 2022.
