 Gaussian 16, Revision C.01,
 Gaussian 16:  ES64L-G16RevC.01  3-Jul-2019

 -------------------------------------------------------------------
 # B3LYP/6-31G* guess=read geom=check nosymm integral(ultrafinegrid)
 -------------------------------------------------------------------

 ------------------------------------------------------
 Candidate Structure: Conf:962 Charge calc in gas phase
 ------------------------------------------------------
 Structure from the checkpoint file:  "conf-962.chk"
 Charge =  1 Multiplicity = 1

                          Input orientation:
 ---------------------------------------------------------------------
 Center     Atomic      Atomic             Coordinates (Angstroms)
 Number     Number       Type             X           Y           Z
 ---------------------------------------------------------------------
      1          7           0       -3.564611    0.959008    3.990346
      2          1           0       -4.360899    0.358611    3.760788
      3          1           0       -3.728151    1.423700    4.889763
      4          1           0       -2.690873    0.278024    4.096087
      5          6           0       -3.359353    1.998918    2.920997
      6          1           0       -4.255748    2.627658    2.900169
      7          6           0       -3.183962    1.203289    1.616208
      8          6           0       -2.122954    2.847890    3.307314
      9          1           0       -1.234813    2.209241    3.266515
     10          1           0       -1.973497    3.608486    2.537293
     11          8           0       -3.041831   -0.021040    1.705423
     12          6           0       -2.273216    3.494158    4.672479
     13          6           0       -3.168021    4.558958    4.863597
     14          1           0       -3.734375    4.949260    4.019901
     15          6           0       -1.536974    3.030296    5.771954
     16          1           0       -0.817731    2.225206    5.635834
     17          6           0       -3.322164    5.143231    6.120312
     18          1           0       -4.010649    5.973342    6.248622
     19          6           0       -1.688329    3.615817    7.031631
     20          1           0       -1.099668    3.253677    7.869578
     21          6           0       -2.583093    4.671258    7.208273
     22          1           0       -2.698455    5.130832    8.185299
     23          7           0       -3.117013    1.854536    0.440439
     24          6           0       -2.498963    1.144307   -0.692792
     25          1           0       -3.036386    0.213899   -0.896097
     26          6           0       -1.025142    0.847910   -0.325843
     27          6           0       -2.611735    2.159295   -1.853167
     28          1           0       -1.800312    2.048274   -2.577229
     29          1           0       -3.557070    2.000192   -2.383600
     30          8           0       -0.383643    1.616895    0.387226
     31          6           0       -2.605959    3.524870   -1.146626
     32          1           0       -1.583648    3.803554   -0.876217
     33          1           0       -3.037751    4.322878   -1.755787
     34          6           0       -3.421609    3.264207    0.126423
     35          1           0       -4.498481    3.373241   -0.058364
     36          1           0       -3.146310    3.934248    0.942897
     37          7           0       -0.509937   -0.284476   -0.863462
     38          1           0       -1.087947   -0.854164   -1.467076
     39          6           0        0.916423   -0.596873   -0.813268
     40          1           0        1.436043    0.350219   -0.631618
     41          6           0        1.422028   -1.115044   -2.161708
     42          6           0        1.343814   -1.592961    0.295557
     43          1           0        2.387459   -1.840442    0.078552
     44          1           0        0.771426   -2.524258    0.187001
     45          8           0        2.580947   -1.363284   -2.387292
     46          6           0        1.244643   -1.063345    1.741541
     47          1           0        2.018471   -1.564596    2.337743
     48          1           0        1.489133    0.006153    1.751101
     49          6           0       -0.115879   -1.283354    2.420713
     50          1           0       -0.325359   -2.363042    2.467261
     51          1           0       -0.920921   -0.832725    1.838150
     52          6           0       -0.143317   -0.714116    3.839863
     53          1           0        0.602157   -1.226784    4.462408
     54          1           0        0.128989    0.347929    3.825104
     55          7           0       -1.499462   -0.827418    4.462599
     56          1           0       -1.397016   -0.844266    5.478890
     57          1           0       -1.889586   -1.738994    4.215117
     58          8           0        0.432611   -1.293380   -3.072550
     59          1           0        0.858050   -1.644096   -3.878909
 ---------------------------------------------------------------------

 SCF Done:  E(RB3LYP) =  -1300.54905573     A.U. after    1 cycles

 Alpha  occ. eigenvalues --  -19.29097 -19.24218 -19.22736 -19.21669 -14.55854
 Alpha  occ. eigenvalues --  -14.48517 -14.46856 -14.46287 -10.41568 -10.41156
 Alpha  occ. eigenvalues --  -10.38888 -10.38845 -10.34218 -10.33963 -10.33310
 Alpha  occ. eigenvalues --  -10.32450 -10.32390 -10.31214 -10.30037 -10.29912
 Alpha  occ. eigenvalues --  -10.29912 -10.29487 -10.29439 -10.29379 -10.29198
 Alpha  occ. eigenvalues --  -10.27848 -10.27542 -10.27310  -1.19711  -1.16849
 Alpha  occ. eigenvalues --   -1.13506  -1.10664  -1.10620  -1.06147  -1.02626
 Alpha  occ. eigenvalues --   -1.01725  -0.96643  -0.92269  -0.90120  -0.89500
 Alpha  occ. eigenvalues --   -0.86980  -0.85450  -0.85056  -0.84419  -0.79547
 Alpha  occ. eigenvalues --   -0.78655  -0.75766  -0.73063  -0.71622  -0.71464
 Alpha  occ. eigenvalues --   -0.71063  -0.70000  -0.69615  -0.69392  -0.68154
 Alpha  occ. eigenvalues --   -0.68083  -0.66008  -0.63364  -0.62142  -0.61543
 Alpha  occ. eigenvalues --   -0.61269  -0.60872  -0.60289  -0.58473  -0.57497
 Alpha  occ. eigenvalues --   -0.57020  -0.56644  -0.56538  -0.55871  -0.55474
 Alpha  occ. eigenvalues --   -0.55242  -0.54855  -0.53617  -0.53438  -0.52542
 Alpha  occ. eigenvalues --   -0.52237  -0.52054  -0.51548  -0.51099  -0.50517
 Alpha  occ. eigenvalues --   -0.50115  -0.49693  -0.48824  -0.48449  -0.47966
 Alpha  occ. eigenvalues --   -0.47106  -0.46468  -0.46217  -0.45921  -0.45066
 Alpha  occ. eigenvalues --   -0.44952  -0.44567  -0.44523  -0.42756  -0.42676
 Alpha  occ. eigenvalues --   -0.42263  -0.40613  -0.39666  -0.38400  -0.37628
 Alpha  occ. eigenvalues --   -0.36545  -0.35763  -0.35317  -0.35222  -0.34410
 Alpha virt. eigenvalues --   -0.12253  -0.10947  -0.10399  -0.08248  -0.07847
 Alpha virt. eigenvalues --   -0.07622  -0.04821  -0.03887  -0.02119  -0.01904
 Alpha virt. eigenvalues --   -0.01580  -0.00638  -0.00395   0.00426   0.01003

 Mulliken charges:
               1
     1  N   -0.768215
     2  H    0.394262
     3  H    0.388902
     4  H    0.464870
     5  C   -0.118159
     6  H    0.197240
     7  C    0.637616
     8  C   -0.382243
     9  H    0.201450
    10  H    0.207058
    11  O   -0.537541
    12  C    0.135411
    13  C   -0.186755
    14  H    0.136548
    15  C   -0.209100
    16  H    0.136607
    17  C   -0.124000
    18  H    0.161813
    19  C   -0.123761
    20  H    0.158379
    21  C   -0.125119
    22  H    0.164038
    23  N   -0.437173
    24  C   -0.067979
    25  H    0.179143
    26  C    0.645151
    27  C   -0.306723
    28  H    0.182648
    29  H    0.173323
    30  O   -0.542064
    31  C   -0.299832
    32  H    0.190896
    33  H    0.175860
    34  C   -0.138274
    35  H    0.175106
    36  H    0.162766
    37  N   -0.607198
    38  H    0.352711
    39  C   -0.059606
    40  H    0.213858
    41  C    0.592793
    42  C   -0.273076
    43  H    0.189220
    44  H    0.145685
    45  O   -0.438522
    46  C   -0.273332
    47  H    0.148865
    48  H    0.161983
    49  C   -0.302524
    50  H    0.136783
    51  H    0.200322
    52  C   -0.144750
    53  H    0.160939
    54  H    0.162745
    55  N   -0.790957
    56  H    0.334326
    57  H    0.342656
    58  O   -0.584059
    59  H    0.428989
 Sum of Mulliken charges =   1.00000

 Dipole moment (field-independent basis, Debye):
    X=            -14.3326    Y=              5.3977    Z=             13.3573  Tot=             20.3218
 Quadrupole moment (field-independent basis, Debye-Ang):
   XX=           -118.2505   YY=           -128.8330   ZZ=            -59.8417
   XY=            -30.3293   XZ=            -38.6524   YZ=             20.9766

 Normal termination of Gaussian 16 at Wed May 25 07:54:29 2022.
