 Gaussian 16, Revision C.01,
 Gaussian 16:  ES64L-G16RevC.01  3-Jul-2019

 -------------------------------------------------------------------
 # B3LYP/6-31G* guess=read geom=check nosymm integral(ultrafinegrid)
 -------------------------------------------------------------------

 ------------------------------------------------------
 Candidate Structure: Conf:245 Charge calc in gas phase
 ------------------------------------------------------
 Structure from the checkpoint file:  "conf-245.chk"
 Charge =  1 Multiplicity = 1

                          Input orientation:
 ---------------------------------------------------------------------
 Center     Atomic      Atomic             Coordinates (Angstroms)
 Number     Number       Type             X           Y           Z
 ---------------------------------------------------------------------
      1          7           0       -5.056359    3.137136    2.855749
      2          1           0       -6.040784    2.950722    3.058555
      3          1           0       -4.761535    4.023879    3.297481
      4          1           0       -4.442746    2.350129    3.223554
      5          6           0       -4.716441    3.134318    1.382018
      6          1           0       -5.645286    2.996899    0.824130
      7          6           0       -3.808878    1.882721    1.241113
      8          6           0       -4.037875    4.480511    0.975756
      9          1           0       -3.463177    4.300145    0.063627
     10          1           0       -4.831028    5.190793    0.718892
     11          8           0       -3.424884    1.337708    2.289415
     12          6           0       -3.152880    5.068132    2.057532
     13          6           0       -3.661630    6.072439    2.900425
     14          1           0       -4.656210    6.479033    2.720119
     15          6           0       -1.846183    4.598277    2.263168
     16          1           0       -1.434879    3.828397    1.615135
     17          6           0       -2.879283    6.599125    3.932985
     18          1           0       -3.278826    7.385379    4.566694
     19          6           0       -1.069281    5.131942    3.291628
     20          1           0       -0.054983    4.771572    3.436136
     21          6           0       -1.581919    6.126710    4.129225
     22          1           0       -0.968172    6.538302    4.924960
     23          7           0       -3.503833    1.438447    0.020878
     24          6           0       -2.524086    0.352352   -0.136434
     25          1           0       -2.804408   -0.477433    0.519369
     26          6           0       -1.118715    0.871392    0.226152
     27          6           0       -2.599782   -0.017601   -1.648347
     28          1           0       -1.697957    0.329685   -2.161596
     29          1           0       -2.662201   -1.099200   -1.791168
     30          8           0       -0.873883    2.071090    0.294832
     31          6           0       -3.850732    0.711727   -2.175260
     32          1           0       -3.772570    0.968056   -3.234656
     33          1           0       -4.746363    0.096422   -2.038682
     34          6           0       -3.939583    1.957522   -1.287632
     35          1           0       -4.947552    2.377287   -1.233581
     36          1           0       -3.246133    2.736333   -1.627942
     37          7           0       -0.181109   -0.094077    0.400981
     38          1           0       -0.426074   -1.046360    0.158099
     39          6           0        1.239794    0.237059    0.375982
     40          1           0        1.418759    1.036189    1.100077
     41          6           0        1.604136    0.768415   -1.017198
     42          6           0        2.059687   -1.014872    0.759627
     43          1           0        1.919159   -1.780600   -0.017146
     44          1           0        1.613335   -1.412666    1.680369
     45          8           0        0.993652    0.515860   -2.032695
     46          6           0        3.557906   -0.776748    0.988033
     47          1           0        4.026860   -0.410192    0.067111
     48          1           0        3.682932    0.019448    1.734745
     49          6           0        4.282916   -2.044437    1.459211
     50          1           0        4.141434   -2.842445    0.715458
     51          1           0        3.823617   -2.406695    2.391618
     52          6           0        5.795730   -1.846321    1.686125
     53          1           0        6.243661   -2.818204    1.925841
     54          1           0        6.262541   -1.517643    0.748059
     55          7           0        6.198749   -0.906134    2.731563
     56          1           0        5.790427   -1.170613    3.626800
     57          1           0        5.871301    0.034893    2.523942
     58          8           0        2.708047    1.537659   -0.983121
     59          1           0        2.896993    1.809500   -1.902290
 ---------------------------------------------------------------------

 SCF Done:  E(RB3LYP) =  -1300.52930968     A.U. after    1 cycles

 Alpha  occ. eigenvalues --  -19.28537 -19.26699 -19.22904 -19.22530 -14.58843
 Alpha  occ. eigenvalues --  -14.50482 -14.46531 -14.36609 -10.43432 -10.40882
 Alpha  occ. eigenvalues --  -10.40867 -10.39530 -10.35181 -10.35111 -10.33838
 Alpha  occ. eigenvalues --  -10.33272 -10.31633 -10.30553 -10.30551 -10.30340
 Alpha  occ. eigenvalues --  -10.29814 -10.29453 -10.29398 -10.29306 -10.28319
 Alpha  occ. eigenvalues --  -10.26226 -10.26018 -10.24644  -1.19477  -1.19215
 Alpha  occ. eigenvalues --   -1.14510  -1.13127  -1.10462  -1.08077  -1.03112
 Alpha  occ. eigenvalues --   -0.97027  -0.93504  -0.93406  -0.91096  -0.89389
 Alpha  occ. eigenvalues --   -0.87278  -0.85936  -0.85130  -0.82822  -0.79855
 Alpha  occ. eigenvalues --   -0.77597  -0.76602  -0.73798  -0.73312  -0.72479
 Alpha  occ. eigenvalues --   -0.71489  -0.70854  -0.70099  -0.69298  -0.68293
 Alpha  occ. eigenvalues --   -0.66576  -0.64635  -0.64090  -0.63520  -0.62825
 Alpha  occ. eigenvalues --   -0.61217  -0.60511  -0.59437  -0.58638  -0.57456
 Alpha  occ. eigenvalues --   -0.56673  -0.56328  -0.56055  -0.55341  -0.55220
 Alpha  occ. eigenvalues --   -0.54640  -0.54311  -0.53329  -0.52757  -0.52582
 Alpha  occ. eigenvalues --   -0.52123  -0.51818  -0.51673  -0.50927  -0.50188
 Alpha  occ. eigenvalues --   -0.49561  -0.49309  -0.49096  -0.47700  -0.47234
 Alpha  occ. eigenvalues --   -0.47000  -0.46834  -0.45582  -0.45145  -0.45009
 Alpha  occ. eigenvalues --   -0.44800  -0.44486  -0.42964  -0.42096  -0.41282
 Alpha  occ. eigenvalues --   -0.40646  -0.40071  -0.39172  -0.38528  -0.37334
 Alpha  occ. eigenvalues --   -0.36251  -0.36113  -0.35669  -0.35611  -0.28543
 Alpha virt. eigenvalues --   -0.12928  -0.11956  -0.11477  -0.09359  -0.08844
 Alpha virt. eigenvalues --   -0.07626  -0.05452  -0.03195  -0.02063  -0.01726
 Alpha virt. eigenvalues --   -0.01306  -0.00570  -0.00389   0.00102   0.00827

 Mulliken charges:
               1
     1  N   -0.764998
     2  H    0.407620
     3  H    0.405404
     4  H    0.434647
     5  C   -0.102399
     6  H    0.207521
     7  C    0.644348
     8  C   -0.378936
     9  H    0.216184
    10  H    0.185456
    11  O   -0.545567
    12  C    0.090424
    13  C   -0.224399
    14  H    0.144340
    15  C   -0.186992
    16  H    0.212204
    17  C   -0.120123
    18  H    0.163346
    19  C   -0.133541
    20  H    0.162719
    21  C   -0.122548
    22  H    0.165192
    23  N   -0.428029
    24  C   -0.070904
    25  H    0.193717
    26  C    0.651518
    27  C   -0.334352
    28  H    0.214922
    29  H    0.177556
    30  O   -0.526179
    31  C   -0.288639
    32  H    0.186363
    33  H    0.169899
    34  C   -0.159391
    35  H    0.166545
    36  H    0.196315
    37  N   -0.599410
    38  H    0.341739
    39  C   -0.024811
    40  H    0.195459
    41  C    0.600699
    42  C   -0.306065
    43  H    0.153345
    44  H    0.163582
    45  O   -0.469310
    46  C   -0.261150
    47  H    0.154864
    48  H    0.130460
    49  C   -0.264824
    50  H    0.134603
    51  H    0.127499
    52  C   -0.146258
    53  H    0.154088
    54  H    0.145735
    55  N   -0.701517
    56  H    0.294777
    57  H    0.296876
    58  O   -0.553583
    59  H    0.423958
 Sum of Mulliken charges =   1.00000

 Dipole moment (field-independent basis, Debye):
    X=            -18.4497    Y=             11.6111    Z=              6.5970  Tot=             22.7756
 Quadrupole moment (field-independent basis, Debye-Ang):
   XX=            -64.2760   YY=           -102.8704   ZZ=           -128.3140
   XY=            -60.3520   XZ=            -35.9740   YZ=             33.9522

 Normal termination of Gaussian 16 at Wed May 25 07:50:10 2022.
