 Gaussian 16, Revision C.01,
 Gaussian 16:  ES64L-G16RevC.01  3-Jul-2019

 -------------------------------------------------------------------
 # B3LYP/6-31G* guess=read geom=check nosymm integral(ultrafinegrid)
 -------------------------------------------------------------------

 ------------------------------------------------------
 Candidate Structure: Conf:197 Charge calc in gas phase
 ------------------------------------------------------
 Structure from the checkpoint file:  "conf-197.chk"
 Charge =  1 Multiplicity = 1

                          Input orientation:
 ---------------------------------------------------------------------
 Center     Atomic      Atomic             Coordinates (Angstroms)
 Number     Number       Type             X           Y           Z
 ---------------------------------------------------------------------
      1          7           0       -2.946408   -1.422328    3.474882
      2          1           0       -2.898017   -1.992631    2.612835
      3          1           0       -3.592714   -1.837227    4.149557
      4          1           0       -1.916415   -1.493879    3.879580
      5          6           0       -3.407925   -0.058377    3.023000
      6          1           0       -4.493887   -0.136060    2.880707
      7          6           0       -2.782519    0.078128    1.606476
      8          6           0       -3.159615    1.013058    4.107726
      9          1           0       -3.545228    1.960902    3.722353
     10          1           0       -3.813952    0.762295    4.951966
     11          8           0       -2.293369   -0.950274    1.113570
     12          6           0       -1.743467    1.194405    4.622981
     13          6           0       -1.470565    0.940366    5.975420
     14          1           0       -2.270884    0.607237    6.633458
     15          6           0       -0.705705    1.658974    3.800685
     16          1           0       -0.872701    1.887739    2.752223
     17          6           0       -0.189175    1.133563    6.498052
     18          1           0       -0.001095    0.944870    7.551265
     19          6           0        0.575951    1.848366    4.321735
     20          1           0        1.361504    2.219417    3.670004
     21          6           0        0.840369    1.584598    5.668684
     22          1           0        1.835616    1.746013    6.072709
     23          7           0       -2.802780    1.242795    0.941604
     24          6           0       -2.096365    1.314335   -0.366950
     25          1           0       -2.492723    0.528963   -1.018757
     26          6           0       -0.577878    1.135215   -0.134660
     27          6           0       -2.440332    2.724758   -0.880900
     28          1           0       -1.651848    3.414577   -0.565076
     29          1           0       -2.509288    2.750565   -1.970968
     30          8           0        0.045803    1.957330    0.536829
     31          6           0       -3.764200    3.071466   -0.183517
     32          1           0       -3.955153    4.146842   -0.141235
     33          1           0       -4.610486    2.595178   -0.690951
     34          6           0       -3.584770    2.467525    1.214934
     35          1           0       -4.535760    2.223408    1.696507
     36          1           0       -3.017228    3.145114    1.863808
     37          7           0       -0.024894    0.051083   -0.713371
     38          1           0       -0.611886   -0.654336   -1.145657
     39          6           0        1.379570   -0.312657   -0.577191
     40          1           0        2.002142    0.508464   -0.951351
     41          6           0        1.595382   -1.520560   -1.482344
     42          6           0        1.828306   -0.611704    0.878724
     43          1           0        1.801068    0.338465    1.419957
     44          1           0        2.876423   -0.930852    0.835506
     45          8           0        0.701628   -2.162345   -1.992998
     46          6           0        0.977336   -1.650786    1.621872
     47          1           0       -0.051202   -1.287237    1.697210
     48          1           0        0.927661   -2.588279    1.049861
     49          6           0        1.539812   -1.949520    3.019488
     50          1           0        1.790058   -1.009137    3.532401
     51          1           0        2.488187   -2.492014    2.917168
     52          6           0        0.627863   -2.776972    3.934007
     53          1           0        0.152884   -3.590402    3.373356
     54          1           0        1.238220   -3.240596    4.719275
     55          7           0       -0.454855   -1.961015    4.570720
     56          1           0       -0.043094   -1.098074    4.932384
     57          1           0       -0.769996   -2.460866    5.405012
     58          8           0        2.899938   -1.805116   -1.628120
     59          1           0        2.962546   -2.590366   -2.205515
 ---------------------------------------------------------------------

 SCF Done:  E(RB3LYP) =  -1300.55145077     A.U. after    1 cycles

 Alpha  occ. eigenvalues --  -19.29181 -19.25448 -19.23777 -19.21220 -14.55769
 Alpha  occ. eigenvalues --  -14.49691 -14.46379 -14.45648 -10.42681 -10.41721
 Alpha  occ. eigenvalues --  -10.39774 -10.38579 -10.34582 -10.34224 -10.33405
 Alpha  occ. eigenvalues --  -10.33294 -10.32446 -10.31246 -10.30084 -10.29856
 Alpha  occ. eigenvalues --  -10.29677 -10.29475 -10.29336 -10.29273 -10.29221
 Alpha  occ. eigenvalues --  -10.28453 -10.27865 -10.27337  -1.20278  -1.17933
 Alpha  occ. eigenvalues --   -1.13136  -1.11374  -1.10633  -1.06809  -1.02222
 Alpha  occ. eigenvalues --   -1.01444  -0.96706  -0.92611  -0.90420  -0.89846
 Alpha  occ. eigenvalues --   -0.87188  -0.85732  -0.84974  -0.84717  -0.79891
 Alpha  occ. eigenvalues --   -0.79347  -0.76372  -0.73225  -0.72503  -0.72105
 Alpha  occ. eigenvalues --   -0.71046  -0.70357  -0.69120  -0.68979  -0.67640
 Alpha  occ. eigenvalues --   -0.67314  -0.66103  -0.63645  -0.62445  -0.62151
 Alpha  occ. eigenvalues --   -0.61505  -0.60358  -0.59831  -0.58548  -0.58423
 Alpha  occ. eigenvalues --   -0.57756  -0.56818  -0.56412  -0.56223  -0.55906
 Alpha  occ. eigenvalues --   -0.55149  -0.54411  -0.54046  -0.53765  -0.52959
 Alpha  occ. eigenvalues --   -0.52678  -0.52230  -0.51948  -0.51526  -0.50981
 Alpha  occ. eigenvalues --   -0.50816  -0.49937  -0.48948  -0.48541  -0.48391
 Alpha  occ. eigenvalues --   -0.46954  -0.46818  -0.46345  -0.45752  -0.45342
 Alpha  occ. eigenvalues --   -0.44854  -0.44525  -0.44313  -0.43481  -0.42840
 Alpha  occ. eigenvalues --   -0.42549  -0.41259  -0.39888  -0.39151  -0.37825
 Alpha  occ. eigenvalues --   -0.37304  -0.35784  -0.35489  -0.35161  -0.34437
 Alpha virt. eigenvalues --   -0.12672  -0.11491  -0.10850  -0.08986  -0.07997
 Alpha virt. eigenvalues --   -0.07802  -0.04393  -0.02988  -0.02214  -0.01326
 Alpha virt. eigenvalues --   -0.01252  -0.00336   0.00392   0.00936   0.01438

 Mulliken charges:
               1
     1  N   -0.784024
     2  H    0.409018
     3  H    0.381963
     4  H    0.463882
     5  C   -0.113535
     6  H    0.208341
     7  C    0.642624
     8  C   -0.378048
     9  H    0.199305
    10  H    0.169539
    11  O   -0.540783
    12  C    0.148936
    13  C   -0.208584
    14  H    0.137566
    15  C   -0.202574
    16  H    0.185905
    17  C   -0.141432
    18  H    0.159638
    19  C   -0.145564
    20  H    0.171007
    21  C   -0.135548
    22  H    0.162671
    23  N   -0.445776
    24  C   -0.034784
    25  H    0.173280
    26  C    0.638712
    27  C   -0.318285
    28  H    0.196379
    29  H    0.181590
    30  O   -0.537793
    31  C   -0.302546
    32  H    0.182901
    33  H    0.169540
    34  C   -0.151554
    35  H    0.168091
    36  H    0.189247
    37  N   -0.611097
    38  H    0.366908
    39  C   -0.021186
    40  H    0.202120
    41  C    0.585285
    42  C   -0.291956
    43  H    0.179585
    44  H    0.168743
    45  O   -0.465188
    46  C   -0.289621
    47  H    0.165603
    48  H    0.146698
    49  C   -0.277803
    50  H    0.145033
    51  H    0.162877
    52  C   -0.142490
    53  H    0.160617
    54  H    0.160420
    55  N   -0.799757
    56  H    0.357444
    57  H    0.328505
    58  O   -0.558993
    59  H    0.428949
 Sum of Mulliken charges =   1.00000

 Dipole moment (field-independent basis, Debye):
    X=             -9.5203    Y=             -2.6688    Z=             14.6353  Tot=             17.6621
 Quadrupole moment (field-independent basis, Debye-Ang):
   XX=           -105.9483   YY=           -142.5291   ZZ=            -80.9257
   XY=            -10.7056   XZ=            -32.6321   YZ=            -19.5315

 Normal termination of Gaussian 16 at Wed May 25 07:50:14 2022.
