 Gaussian 16, Revision C.01,
 Gaussian 16:  ES64L-G16RevC.01  3-Jul-2019

 -------------------------------------------------------------------
 # B3LYP/6-31G* guess=read geom=check nosymm integral(ultrafinegrid)
 -------------------------------------------------------------------

 ------------------------------------------------------
 Candidate Structure: Conf:662 Charge calc in gas phase
 ------------------------------------------------------
 Structure from the checkpoint file:  "conf-662.chk"
 Charge =  1 Multiplicity = 1

                          Input orientation:
 ---------------------------------------------------------------------
 Center     Atomic      Atomic             Coordinates (Angstroms)
 Number     Number       Type             X           Y           Z
 ---------------------------------------------------------------------
      1          7           0       -3.824600    4.169829   -2.740291
      2          1           0       -4.781488    4.289476   -2.393903
      3          1           0       -3.698700    4.759975   -3.567788
      4          1           0       -3.149711    4.433855   -1.960618
      5          6           0       -3.448911    2.714767   -2.980779
      6          1           0       -4.364673    2.155932   -3.177969
      7          6           0       -2.781148    2.340839   -1.622467
      8          6           0       -2.494377    2.658941   -4.198210
      9          1           0       -2.999021    3.162606   -5.034517
     10          1           0       -1.596813    3.240761   -3.955538
     11          8           0       -2.334399    3.298289   -0.965890
     12          6           0       -2.112184    1.253860   -4.612165
     13          6           0       -0.867158    0.726348   -4.249821
     14          1           0       -0.157323    1.334439   -3.695987
     15          6           0       -2.997518    0.465811   -5.359846
     16          1           0       -3.956651    0.872089   -5.676093
     17          6           0       -0.519442   -0.577256   -4.610510
     18          1           0        0.453458   -0.968452   -4.327431
     19          6           0       -2.650825   -0.836562   -5.721570
     20          1           0       -3.340983   -1.435560   -6.308288
     21          6           0       -1.413005   -1.362618   -5.342534
     22          1           0       -1.141123   -2.373741   -5.630641
     23          7           0       -2.717247    1.073054   -1.207625
     24          6           0       -2.228134    0.804486    0.177648
     25          1           0       -2.811662    1.420450    0.867319
     26          6           0       -0.762801    1.151363    0.489385
     27          6           0       -2.527111   -0.697503    0.373446
     28          1           0       -1.660171   -1.295296    0.068364
     29          1           0       -2.733926   -0.922671    1.421423
     30          8           0       -0.479623    1.505428    1.623038
     31          6           0       -3.715136   -0.967416   -0.560025
     32          1           0       -3.828977   -2.024149   -0.814772
     33          1           0       -4.649952   -0.626641   -0.100930
     34          6           0       -3.390067   -0.115846   -1.792712
     35          1           0       -4.277160    0.172702   -2.361031
     36          1           0       -2.704807   -0.630570   -2.472727
     37          7           0        0.158698    0.963921   -0.499758
     38          1           0       -0.115307    0.543291   -1.377825
     39          6           0        1.587869    1.064667   -0.193992
     40          1           0        1.677270    1.779099    0.624264
     41          6           0        2.367936    1.632573   -1.366452
     42          6           0        2.177286   -0.300947    0.246730
     43          1           0        1.999706   -1.028422   -0.556749
     44          1           0        1.584748   -0.621240    1.112296
     45          8           0        3.284179    2.411732   -1.284248
     46          6           0        3.669589   -0.290223    0.617493
     47          1           0        3.945739   -1.319800    0.882213
     48          1           0        4.273999   -0.035005   -0.263428
     49          6           0        4.041959    0.645955    1.776627
     50          1           0        3.380979    0.453396    2.635249
     51          1           0        3.880951    1.691517    1.480935
     52          6           0        5.507428    0.482036    2.221153
     53          1           0        5.678582   -0.557297    2.532315
     54          1           0        6.168520    0.656965    1.362013
     55          7           0        5.954618    1.351144    3.308566
     56          1           0        5.371788    1.209317    4.132599
     57          1           0        5.840034    2.328721    3.044157
     58          8           0        1.969410    1.101969   -2.563140
     59          1           0        2.577036    1.469329   -3.234488
 ---------------------------------------------------------------------

 SCF Done:  E(RB3LYP) =  -1300.51011548     A.U. after    2 cycles

 Alpha  occ. eigenvalues --  -19.29856 -19.28057 -19.23605 -19.21081 -14.61550
 Alpha  occ. eigenvalues --  -14.51937 -14.46264 -14.35623 -10.44919 -10.42735
 Alpha  occ. eigenvalues --  -10.41563 -10.38919 -10.35888 -10.35859 -10.35189
 Alpha  occ. eigenvalues --  -10.32796 -10.32734 -10.31328 -10.31265 -10.30963
 Alpha  occ. eigenvalues --  -10.30921 -10.30738 -10.30673 -10.30554 -10.27433
 Alpha  occ. eigenvalues --  -10.25475 -10.25447 -10.23760  -1.20769  -1.20237
 Alpha  occ. eigenvalues --   -1.15383  -1.13342  -1.11262  -1.08904  -1.02371
 Alpha  occ. eigenvalues --   -0.98496  -0.94781  -0.92504  -0.92389  -0.89128
 Alpha  occ. eigenvalues --   -0.87535  -0.86757  -0.86355  -0.82501  -0.81632
 Alpha  occ. eigenvalues --   -0.78389  -0.76485  -0.75380  -0.74808  -0.72537
 Alpha  occ. eigenvalues --   -0.72415  -0.72074  -0.70800  -0.69975  -0.68302
 Alpha  occ. eigenvalues --   -0.67573  -0.65465  -0.64831  -0.64377  -0.63838
 Alpha  occ. eigenvalues --   -0.62942  -0.61481  -0.60009  -0.58442  -0.57914
 Alpha  occ. eigenvalues --   -0.57699  -0.57482  -0.56216  -0.55945  -0.55104
 Alpha  occ. eigenvalues --   -0.54837  -0.54384  -0.53966  -0.53738  -0.53596
 Alpha  occ. eigenvalues --   -0.53345  -0.52310  -0.51888  -0.51070  -0.50368
 Alpha  occ. eigenvalues --   -0.50236  -0.49245  -0.48821  -0.48292  -0.47441
 Alpha  occ. eigenvalues --   -0.47242  -0.46720  -0.46393  -0.46064  -0.45884
 Alpha  occ. eigenvalues --   -0.45692  -0.43864  -0.42588  -0.42355  -0.41767
 Alpha  occ. eigenvalues --   -0.41435  -0.39826  -0.39740  -0.38663  -0.37523
 Alpha  occ. eigenvalues --   -0.37007  -0.36812  -0.35113  -0.34165  -0.27660
 Alpha virt. eigenvalues --   -0.14653  -0.13205  -0.12415  -0.12145  -0.08998
 Alpha virt. eigenvalues --   -0.07796  -0.07644  -0.05703  -0.04045  -0.03419
 Alpha virt. eigenvalues --   -0.02564  -0.02205  -0.00730   0.00043   0.00541

 Mulliken charges:
               1
     1  N   -0.753928
     2  H    0.418475
     3  H    0.414519
     4  H    0.438870
     5  C   -0.105846
     6  H    0.208188
     7  C    0.639358
     8  C   -0.385854
     9  H    0.181621
    10  H    0.194541
    11  O   -0.532776
    12  C    0.162265
    13  C   -0.205902
    14  H    0.160069
    15  C   -0.188097
    16  H    0.136125
    17  C   -0.144829
    18  H    0.163460
    19  C   -0.127380
    20  H    0.165659
    21  C   -0.125071
    22  H    0.167793
    23  N   -0.466066
    24  C   -0.041957
    25  H    0.202177
    26  C    0.640902
    27  C   -0.315428
    28  H    0.168887
    29  H    0.202373
    30  O   -0.498738
    31  C   -0.298636
    32  H    0.185299
    33  H    0.170363
    34  C   -0.154733
    35  H    0.164111
    36  H    0.199901
    37  N   -0.633434
    38  H    0.338393
    39  C   -0.039081
    40  H    0.221884
    41  C    0.591114
    42  C   -0.276998
    43  H    0.135697
    44  H    0.168137
    45  O   -0.437326
    46  C   -0.274664
    47  H    0.149177
    48  H    0.147807
    49  C   -0.273635
    50  H    0.131745
    51  H    0.143454
    52  C   -0.142506
    53  H    0.143491
    54  H    0.146480
    55  N   -0.700849
    56  H    0.294892
    57  H    0.295948
    58  O   -0.591739
    59  H    0.422294
 Sum of Mulliken charges =   1.00000

 Dipole moment (field-independent basis, Debye):
    X=            -17.9952    Y=              8.4763    Z=            -16.6742  Tot=             25.9558
 Quadrupole moment (field-independent basis, Debye-Ang):
   XX=           -103.3415   YY=           -110.3555   ZZ=           -108.7756
   XY=            -51.3258   XZ=             42.2520   YZ=            -38.4785

 Normal termination of Gaussian 16 at Wed May 25 07:54:36 2022.
