 Gaussian 16, Revision C.01,
 Gaussian 16:  ES64L-G16RevC.01  3-Jul-2019

 -------------------------------------------------------------------
 # B3LYP/6-31G* guess=read geom=check nosymm integral(ultrafinegrid)
 -------------------------------------------------------------------

 ------------------------------------------------------
 Candidate Structure: Conf:364 Charge calc in gas phase
 ------------------------------------------------------
 Structure from the checkpoint file:  "conf-364.chk"
 Charge =  1 Multiplicity = 1

                          Input orientation:
 ---------------------------------------------------------------------
 Center     Atomic      Atomic             Coordinates (Angstroms)
 Number     Number       Type             X           Y           Z
 ---------------------------------------------------------------------
      1          7           0       -1.055394    1.421855    3.738557
      2          1           0       -0.312338    1.430585    3.014825
      3          1           0       -0.757313    0.952012    4.603879
      4          1           0       -1.339776    2.391809    3.944429
      5          6           0       -2.247279    0.733023    3.114817
      6          1           0       -1.857488   -0.174826    2.658066
      7          6           0       -2.758692    1.788857    2.114817
      8          6           0       -3.292727    0.401807    4.197958
      9          1           0       -3.708029    1.341988    4.575307
     10          1           0       -4.111979   -0.130360    3.700722
     11          8           0       -3.057292    2.884987    2.591300
     12          6           0       -2.708233   -0.432571    5.320774
     13          6           0       -2.296258    0.174691    6.518004
     14          1           0       -2.469412    1.238702    6.671823
     15          6           0       -2.527048   -1.815713    5.169549
     16          1           0       -2.858578   -2.306804    4.256737
     17          6           0       -1.715121   -0.583202    7.539160
     18          1           0       -1.415496   -0.100794    8.464890
     19          6           0       -1.951013   -2.572587    6.189079
     20          1           0       -1.830645   -3.644636    6.063189
     21          6           0       -1.540100   -1.957079    7.374690
     22          1           0       -1.096615   -2.548799    8.169789
     23          7           0       -2.861714    1.488667    0.803082
     24          6           0       -2.210149    0.377010    0.095556
     25          1           0       -2.488709   -0.586377    0.540158
     26          6           0       -0.659057    0.489411    0.212904
     27          6           0       -2.802248    0.511666   -1.324772
     28          1           0       -2.206374    0.033617   -2.105887
     29          1           0       -3.788023    0.034687   -1.335835
     30          8           0       -0.133498    1.053442    1.184997
     31          6           0       -2.934474    2.030522   -1.511203
     32          1           0       -1.965416    2.464777   -1.781642
     33          1           0       -3.648641    2.297382   -2.293510
     34          6           0       -3.376628    2.525142   -0.128852
     35          1           0       -4.466221    2.576504   -0.031570
     36          1           0       -2.970188    3.501257    0.143983
     37          7           0        0.064679   -0.106030   -0.746803
     38          1           0       -0.392737   -0.515718   -1.549058
     39          6           0        1.531913   -0.096203   -0.753610
     40          1           0        1.847488    0.831233   -0.267754
     41          6           0        2.078234   -0.055063   -2.177762
     42          6           0        2.153236   -1.282391    0.021657
     43          1           0        1.809993   -1.207755    1.060850
     44          1           0        3.237250   -1.123035    0.030815
     45          8           0        3.240729    0.127692   -2.434366
     46          6           0        1.833262   -2.670011   -0.547930
     47          1           0        0.743672   -2.812266   -0.598110
     48          1           0        2.203012   -2.737457   -1.580836
     49          6           0        2.459023   -3.798462    0.281708
     50          1           0        2.070655   -3.753675    1.311003
     51          1           0        3.544101   -3.657522    0.355706
     52          6           0        2.195741   -5.192212   -0.296779
     53          1           0        1.104197   -5.338919   -0.413072
     54          1           0        2.623620   -5.245521   -1.305844
     55          7           0        2.857500   -6.212498    0.518058
     56          1           0        2.810106   -7.117816    0.054885
     57          1           0        2.370479   -6.322463    1.406411
     58          8           0        1.125904   -0.286665   -3.117740
     59          1           0        1.573264   -0.272635   -3.986319
 ---------------------------------------------------------------------

 SCF Done:  E(RB3LYP) =  -1300.53603703     A.U. after    3 cycles

 Alpha  occ. eigenvalues --  -19.30864 -19.26131 -19.24890 -19.24412 -14.58583
 Alpha  occ. eigenvalues --  -14.49916 -14.49731 -14.37764 -10.43020 -10.42899
 Alpha  occ. eigenvalues --  -10.42287 -10.39495 -10.37705 -10.35343 -10.33541
 Alpha  occ. eigenvalues --  -10.32878 -10.32280 -10.31730 -10.30750 -10.30505
 Alpha  occ. eigenvalues --  -10.30318 -10.29914 -10.29883 -10.29604 -10.29161
 Alpha  occ. eigenvalues --  -10.27908 -10.27711 -10.25960  -1.21394  -1.18161
 Alpha  occ. eigenvalues --   -1.17019  -1.13094  -1.12440  -1.07538  -1.06012
 Alpha  occ. eigenvalues --   -0.97145  -0.94689  -0.93205  -0.91886  -0.90554
 Alpha  occ. eigenvalues --   -0.87827  -0.85876  -0.85466  -0.84828  -0.79810
 Alpha  occ. eigenvalues --   -0.78690  -0.77047  -0.74042  -0.73701  -0.73025
 Alpha  occ. eigenvalues --   -0.72321  -0.71611  -0.71206  -0.69684  -0.69378
 Alpha  occ. eigenvalues --   -0.68051  -0.66463  -0.66004  -0.63730  -0.62208
 Alpha  occ. eigenvalues --   -0.61903  -0.61573  -0.59850  -0.58695  -0.58187
 Alpha  occ. eigenvalues --   -0.57443  -0.57132  -0.56708  -0.56439  -0.55854
 Alpha  occ. eigenvalues --   -0.55365  -0.54988  -0.54274  -0.54046  -0.53477
 Alpha  occ. eigenvalues --   -0.53036  -0.52848  -0.52500  -0.52072  -0.51176
 Alpha  occ. eigenvalues --   -0.50931  -0.49913  -0.49592  -0.49334  -0.48351
 Alpha  occ. eigenvalues --   -0.47748  -0.47427  -0.46973  -0.46318  -0.46235
 Alpha  occ. eigenvalues --   -0.45133  -0.45085  -0.44040  -0.42955  -0.42601
 Alpha  occ. eigenvalues --   -0.41930  -0.40925  -0.40368  -0.39589  -0.39061
 Alpha  occ. eigenvalues --   -0.37458  -0.37217  -0.36252  -0.35817  -0.29976
 Alpha virt. eigenvalues --   -0.13343  -0.11977  -0.11628  -0.10819  -0.09592
 Alpha virt. eigenvalues --   -0.06972  -0.05224  -0.04192  -0.02350  -0.01814
 Alpha virt. eigenvalues --   -0.01011  -0.00393  -0.00020   0.00597   0.00973

 Mulliken charges:
               1
     1  N   -0.743041
     2  H    0.445297
     3  H    0.402657
     4  H    0.412630
     5  C   -0.090048
     6  H    0.185836
     7  C    0.626081
     8  C   -0.370968
     9  H    0.202987
    10  H    0.193948
    11  O   -0.521565
    12  C    0.131094
    13  C   -0.224524
    14  H    0.147026
    15  C   -0.179801
    16  H    0.135709
    17  C   -0.120394
    18  H    0.165130
    19  C   -0.123205
    20  H    0.161084
    21  C   -0.124529
    22  H    0.166331
    23  N   -0.442361
    24  C   -0.100610
    25  H    0.189713
    26  C    0.654210
    27  C   -0.313724
    28  H    0.169629
    29  H    0.184550
    30  O   -0.578721
    31  C   -0.313497
    32  H    0.172674
    33  H    0.188772
    34  C   -0.120469
    35  H    0.189398
    36  H    0.201039
    37  N   -0.600623
    38  H    0.372008
    39  C   -0.064429
    40  H    0.212893
    41  C    0.600601
    42  C   -0.264649
    43  H    0.144427
    44  H    0.187214
    45  O   -0.430600
    46  C   -0.277778
    47  H    0.119634
    48  H    0.152822
    49  C   -0.245815
    50  H    0.119893
    51  H    0.165754
    52  C   -0.135986
    53  H    0.107032
    54  H    0.148128
    55  N   -0.711999
    56  H    0.307664
    57  H    0.293521
    58  O   -0.592208
    59  H    0.434154
 Sum of Mulliken charges =   1.00000

 Dipole moment (field-independent basis, Debye):
    X=             -7.8253    Y=             -1.3871    Z=              8.6762  Tot=             11.7659
 Quadrupole moment (field-independent basis, Debye-Ang):
   XX=           -158.9066   YY=           -141.1412   ZZ=            -78.8181
   XY=              1.3159   XZ=             -8.3143   YZ=             -0.9259

 Normal termination of Gaussian 16 at Wed May 25 07:50:29 2022.
