 Gaussian 16, Revision C.01,
 Gaussian 16:  ES64L-G16RevC.01  3-Jul-2019

 -------------------------------------------------------------------
 # B3LYP/6-31G* guess=read geom=check nosymm integral(ultrafinegrid)
 -------------------------------------------------------------------

 ------------------------------------------------------
 Candidate Structure: Conf:365 Charge calc in gas phase
 ------------------------------------------------------
 Structure from the checkpoint file:  "conf-365.chk"
 Charge =  1 Multiplicity = 1

                          Input orientation:
 ---------------------------------------------------------------------
 Center     Atomic      Atomic             Coordinates (Angstroms)
 Number     Number       Type             X           Y           Z
 ---------------------------------------------------------------------
      1          7           0       -0.743632    1.712260    3.108009
      2          1           0       -0.388787    2.154634    2.241940
      3          1           0        0.122574    1.272538    3.604317
      4          1           0       -1.188608    2.434650    3.684263
      5          6           0       -1.795359    0.728424    2.660502
      6          1           0       -1.265214   -0.026190    2.078857
      7          6           0       -2.781437    1.580751    1.831371
      8          6           0       -2.511968    0.079982    3.859013
      9          1           0       -3.087536    0.858973    4.369095
     10          1           0       -3.244327   -0.624902    3.445774
     11          8           0       -3.386571    2.466443    2.431207
     12          6           0       -1.581317   -0.627689    4.822176
     13          6           0       -0.979860   -1.847154    4.476046
     14          1           0       -1.219606   -2.316387    3.523582
     15          6           0       -1.289078   -0.065825    6.071886
     16          1           0       -1.769032    0.863993    6.369624
     17          6           0       -0.096513   -2.481751    5.350323
     18          1           0        0.349461   -3.432811    5.073273
     19          6           0       -0.406137   -0.698192    6.951683
     20          1           0       -0.201927   -0.255379    7.922411
     21          6           0        0.197250   -1.905065    6.590233
     22          1           0        0.874539   -2.404290    7.277074
     23          7           0       -2.926650    1.350685    0.502425
     24          6           0       -2.089612    0.499705   -0.347192
     25          1           0       -2.133225   -0.547135   -0.020731
     26          6           0       -0.601418    0.932609   -0.306744
     27          6           0       -2.739405    0.656022   -1.746132
     28          1           0       -2.031763    0.484656   -2.561853
     29          1           0       -3.550600   -0.072754   -1.845340
     30          8           0       -0.203859    1.859375    0.410737
     31          6           0       -3.297528    2.087100   -1.719927
     32          1           0       -2.498726    2.810865   -1.916376
     33          1           0       -4.083031    2.243983   -2.462964
     34          6           0       -3.812397    2.242061   -0.286286
     35          1           0       -4.850253    1.906715   -0.178871
     36          1           0       -3.746481    3.259199    0.103874
     37          7           0        0.238469    0.187790   -1.055451
     38          1           0       -0.131598   -0.513369   -1.684464
     39          6           0        1.686052    0.387310   -1.030012
     40          1           0        1.841418    1.391958   -0.630621
     41          6           0        2.303047    0.378106   -2.423244
     42          6           0        2.425745   -0.647623   -0.119025
     43          1           0        2.897437   -1.414850   -0.742181
     44          1           0        1.666106   -1.163991    0.479208
     45          8           0        3.453292    0.675521   -2.632385
     46          6           0        3.487881   -0.008238    0.794452
     47          1           0        4.149818   -0.798037    1.172277
     48          1           0        4.119785    0.649070    0.187026
     49          6           0        2.905076    0.779984    1.984462
     50          1           0        2.103474    1.445017    1.636871
     51          1           0        3.686674    1.429125    2.401066
     52          6           0        2.369690   -0.124688    3.099986
     53          1           0        1.670723   -0.868595    2.700641
     54          1           0        3.202856   -0.684348    3.548112
     55          7           0        1.626353    0.648792    4.127360
     56          1           0        2.235553    1.373751    4.511120
     57          1           0        1.393630    0.036171    4.911344
     58          8           0        1.443769   -0.043356   -3.380617
     59          1           0        1.936654   -0.046272   -4.224551
 ---------------------------------------------------------------------

 SCF Done:  E(RB3LYP) =  -1300.55811188     A.U. after    1 cycles

 Alpha  occ. eigenvalues --  -19.30823 -19.25736 -19.24511 -19.23378 -14.54216
 Alpha  occ. eigenvalues --  -14.49552 -14.48644 -14.46172 -10.43011 -10.42520
 Alpha  occ. eigenvalues --  -10.40858 -10.37909 -10.36783 -10.35565 -10.32958
 Alpha  occ. eigenvalues --  -10.32475 -10.31720 -10.31452 -10.31121 -10.30409
 Alpha  occ. eigenvalues --  -10.30106 -10.29953 -10.29893 -10.29825 -10.29773
 Alpha  occ. eigenvalues --  -10.29656 -10.29392 -10.29021  -1.21445  -1.17495
 Alpha  occ. eigenvalues --   -1.15685  -1.12478  -1.09554  -1.06331  -1.05829
 Alpha  occ. eigenvalues --   -1.01560  -0.96716  -0.92366  -0.91460  -0.90492
 Alpha  occ. eigenvalues --   -0.88103  -0.85813  -0.85300  -0.84741  -0.80892
 Alpha  occ. eigenvalues --   -0.78595  -0.75979  -0.74987  -0.72935  -0.72701
 Alpha  occ. eigenvalues --   -0.71529  -0.71136  -0.70257  -0.69042  -0.68822
 Alpha  occ. eigenvalues --   -0.67941  -0.66947  -0.65165  -0.62874  -0.62117
 Alpha  occ. eigenvalues --   -0.61505  -0.60968  -0.60302  -0.59629  -0.58676
 Alpha  occ. eigenvalues --   -0.58367  -0.57690  -0.56818  -0.56598  -0.56121
 Alpha  occ. eigenvalues --   -0.55770  -0.55471  -0.54645  -0.54482  -0.54138
 Alpha  occ. eigenvalues --   -0.52757  -0.52660  -0.52077  -0.52007  -0.51490
 Alpha  occ. eigenvalues --   -0.50980  -0.50208  -0.49879  -0.48967  -0.48761
 Alpha  occ. eigenvalues --   -0.48400  -0.48185  -0.46957  -0.46526  -0.46447
 Alpha  occ. eigenvalues --   -0.45450  -0.44842  -0.44771  -0.44624  -0.44358
 Alpha  occ. eigenvalues --   -0.43585  -0.42492  -0.40060  -0.39553  -0.39242
 Alpha  occ. eigenvalues --   -0.37389  -0.37131  -0.36243  -0.36028  -0.35459
 Alpha virt. eigenvalues --   -0.12013  -0.11798  -0.11192  -0.10507  -0.09639
 Alpha virt. eigenvalues --   -0.06385  -0.04441  -0.04067  -0.02802  -0.01694
 Alpha virt. eigenvalues --   -0.00931  -0.00529  -0.00019   0.00576   0.00824

 Mulliken charges:
               1
     1  N   -0.799377
     2  H    0.431916
     3  H    0.458060
     4  H    0.390624
     5  C   -0.086987
     6  H    0.170807
     7  C    0.623219
     8  C   -0.377253
     9  H    0.199787
    10  H    0.188693
    11  O   -0.517136
    12  C    0.159307
    13  C   -0.186257
    14  H    0.132146
    15  C   -0.201149
    16  H    0.146916
    17  C   -0.134026
    18  H    0.158189
    19  C   -0.137471
    20  H    0.162820
    21  C   -0.142473
    22  H    0.163312
    23  N   -0.444748
    24  C   -0.088400
    25  H    0.179982
    26  C    0.632731
    27  C   -0.309778
    28  H    0.174028
    29  H    0.181209
    30  O   -0.560260
    31  C   -0.310954
    32  H    0.174933
    33  H    0.184788
    34  C   -0.120828
    35  H    0.182820
    36  H    0.200471
    37  N   -0.600554
    38  H    0.358503
    39  C   -0.052449
    40  H    0.224785
    41  C    0.589183
    42  C   -0.282342
    43  H    0.177264
    44  H    0.143008
    45  O   -0.431821
    46  C   -0.278008
    47  H    0.156789
    48  H    0.183145
    49  C   -0.289094
    50  H    0.147614
    51  H    0.157809
    52  C   -0.142327
    53  H    0.148939
    54  H    0.164102
    55  N   -0.796645
    56  H    0.333579
    57  H    0.354422
    58  O   -0.579478
    59  H    0.433915
 Sum of Mulliken charges =   1.00000

 Dipole moment (field-independent basis, Debye):
    X=             -0.9931    Y=             -0.1240    Z=              7.9460  Tot=              8.0088
 Quadrupole moment (field-independent basis, Debye-Ang):
   XX=           -149.0492   YY=           -154.9820   ZZ=            -87.4744
   XY=             -3.4986   XZ=             18.5638   YZ=              2.3138

 Normal termination of Gaussian 16 at Wed May 25 07:50:16 2022.
