 Gaussian 16, Revision C.01,
 Gaussian 16:  ES64L-G16RevC.01  3-Jul-2019

 -------------------------------------------------------------------
 # B3LYP/6-31G* guess=read geom=check nosymm integral(ultrafinegrid)
 -------------------------------------------------------------------

 ------------------------------------------------------
 Candidate Structure: Conf:304 Charge calc in gas phase
 ------------------------------------------------------
 Structure from the checkpoint file:  "conf-304.chk"
 Charge =  1 Multiplicity = 1

                          Input orientation:
 ---------------------------------------------------------------------
 Center     Atomic      Atomic             Coordinates (Angstroms)
 Number     Number       Type             X           Y           Z
 ---------------------------------------------------------------------
      1          7           0       -3.299057   -1.602955   -4.016104
      2          1           0       -4.269145   -1.329871   -4.195925
      3          1           0       -2.985905   -2.236786   -4.768350
      4          1           0       -2.713244   -0.728470   -3.952596
      5          6           0       -3.102569   -2.240841   -2.658530
      6          1           0       -4.062693   -2.649234   -2.337031
      7          6           0       -2.623781   -1.052302   -1.784117
      8          6           0       -2.031992   -3.361897   -2.773540
      9          1           0       -1.044778   -2.900423   -2.887418
     10          1           0       -2.020085   -3.896797   -1.818507
     11          8           0       -2.192333   -0.056274   -2.383021
     12          6           0       -2.318770   -4.314705   -3.916332
     13          6           0       -1.614434   -4.192280   -5.125747
     14          1           0       -0.803563   -3.470073   -5.206431
     15          6           0       -3.316862   -5.295619   -3.809673
     16          1           0       -3.860602   -5.417141   -2.874857
     17          6           0       -1.904892   -5.032309   -6.206274
     18          1           0       -1.342666   -4.935913   -7.130342
     19          6           0       -3.601590   -6.135522   -4.885151
     20          1           0       -4.366628   -6.899744   -4.784774
     21          6           0       -2.899373   -6.002235   -6.087128
     22          1           0       -3.121219   -6.660301   -6.921742
     23          7           0       -2.643277   -1.173029   -0.449808
     24          6           0       -2.186396   -0.041903    0.399290
     25          1           0       -2.528893    0.898002   -0.038302
     26          6           0       -0.653720    0.099877    0.517865
     27          6           0       -2.852779   -0.337435    1.757751
     28          1           0       -2.274645    0.084500    2.581951
     29          1           0       -3.852045    0.110734    1.782812
     30          8           0       -0.196214    1.109730    1.029607
     31          6           0       -2.948458   -1.870744    1.790466
     32          1           0       -1.980288   -2.308755    2.055505
     33          1           0       -3.692782   -2.242369    2.498670
     34          6           0       -3.308920   -2.237648    0.343202
     35          1           0       -4.393866   -2.197044    0.182239
     36          1           0       -2.950689   -3.230877    0.059101
     37          7           0        0.099355   -0.948341    0.080246
     38          1           0       -0.344617   -1.659314   -0.484810
     39          6           0        1.538175   -0.831277   -0.115315
     40          1           0        1.791495    0.234503   -0.096063
     41          6           0        1.851084   -1.386220   -1.499747
     42          6           0        2.373651   -1.558733    0.967121
     43          1           0        3.431144   -1.459472    0.695999
     44          1           0        2.136947   -2.631603    0.937476
     45          8           0        1.066252   -2.015970   -2.187853
     46          6           0        2.142747   -1.009201    2.379452
     47          1           0        2.327632    0.072518    2.378080
     48          1           0        1.087008   -1.137665    2.654139
     49          6           0        3.027255   -1.690629    3.431207
     50          1           0        4.086470   -1.543309    3.172148
     51          1           0        2.853487   -2.777011    3.408581
     52          6           0        2.782688   -1.182614    4.867242
     53          1           0        1.734353   -1.365924    5.140573
     54          1           0        3.387324   -1.781390    5.559224
     55          7           0        3.067923    0.225483    5.138877
     56          1           0        2.492238    0.833804    4.560265
     57          1           0        4.038508    0.441759    4.916871
     58          8           0        3.112252   -1.131553   -1.869750
     59          1           0        3.256164   -1.541709   -2.744113
 ---------------------------------------------------------------------

 SCF Done:  E(RB3LYP) =  -1300.52788142     A.U. after    1 cycles

 Alpha  occ. eigenvalues --  -19.30376 -19.27427 -19.25303 -19.21090 -14.60146
 Alpha  occ. eigenvalues --  -14.51354 -14.45975 -14.36377 -10.44294 -10.43033
 Alpha  occ. eigenvalues --  -10.41646 -10.38746 -10.36114 -10.34790 -10.34437
 Alpha  occ. eigenvalues --  -10.33484 -10.32960 -10.31622 -10.31431 -10.30997
 Alpha  occ. eigenvalues --  -10.30950 -10.30945 -10.30660 -10.30323 -10.27676
 Alpha  occ. eigenvalues --  -10.26194 -10.25643 -10.24471  -1.21567  -1.19974
 Alpha  occ. eigenvalues --   -1.14450  -1.13368  -1.12490  -1.08639  -1.02541
 Alpha  occ. eigenvalues --   -0.98350  -0.94338  -0.93230  -0.91852  -0.89267
 Alpha  occ. eigenvalues --   -0.87661  -0.86665  -0.86461  -0.83363  -0.80505
 Alpha  occ. eigenvalues --   -0.77843  -0.76854  -0.74496  -0.73844  -0.73373
 Alpha  occ. eigenvalues --   -0.72429  -0.71449  -0.70882  -0.70184  -0.68645
 Alpha  occ. eigenvalues --   -0.68257  -0.65079  -0.64550  -0.63868  -0.63352
 Alpha  occ. eigenvalues --   -0.62779  -0.60314  -0.59995  -0.59221  -0.58464
 Alpha  occ. eigenvalues --   -0.57476  -0.57251  -0.56871  -0.56456  -0.55462
 Alpha  occ. eigenvalues --   -0.54746  -0.54480  -0.54134  -0.53941  -0.53311
 Alpha  occ. eigenvalues --   -0.53034  -0.52321  -0.51819  -0.51349  -0.50547
 Alpha  occ. eigenvalues --   -0.49972  -0.49622  -0.49102  -0.48192  -0.47828
 Alpha  occ. eigenvalues --   -0.47448  -0.47260  -0.46486  -0.46104  -0.45621
 Alpha  occ. eigenvalues --   -0.45346  -0.44022  -0.43183  -0.42357  -0.41944
 Alpha  occ. eigenvalues --   -0.41870  -0.40271  -0.39957  -0.39395  -0.38393
 Alpha  occ. eigenvalues --   -0.37411  -0.36986  -0.35463  -0.34503  -0.28360
 Alpha virt. eigenvalues --   -0.14333  -0.13032  -0.12266  -0.10642  -0.09816
 Alpha virt. eigenvalues --   -0.07737  -0.06049  -0.04455  -0.02880  -0.02306
 Alpha virt. eigenvalues --   -0.02135  -0.01820  -0.01188  -0.00288   0.01091

 Mulliken charges:
               1
     1  N   -0.751133
     2  H    0.414568
     3  H    0.406117
     4  H    0.430579
     5  C   -0.103282
     6  H    0.205879
     7  C    0.621792
     8  C   -0.418708
     9  H    0.239767
    10  H    0.196163
    11  O   -0.526160
    12  C    0.131662
    13  C   -0.228575
    14  H    0.158907
    15  C   -0.180871
    16  H    0.141008
    17  C   -0.119529
    18  H    0.168935
    19  C   -0.122456
    20  H    0.168647
    21  C   -0.123471
    22  H    0.171403
    23  N   -0.476029
    24  C   -0.046062
    25  H    0.212114
    26  C    0.620390
    27  C   -0.307079
    28  H    0.207270
    29  H    0.172809
    30  O   -0.500382
    31  C   -0.308786
    32  H    0.179838
    33  H    0.186459
    34  C   -0.149938
    35  H    0.177498
    36  H    0.172898
    37  N   -0.605731
    38  H    0.339165
    39  C   -0.054575
    40  H    0.213786
    41  C    0.593760
    42  C   -0.263727
    43  H    0.171553
    44  H    0.137783
    45  O   -0.496078
    46  C   -0.257216
    47  H    0.147630
    48  H    0.132460
    49  C   -0.264203
    50  H    0.132700
    51  H    0.126917
    52  C   -0.143032
    53  H    0.135898
    54  H    0.152341
    55  N   -0.703433
    56  H    0.300832
    57  H    0.297387
    58  O   -0.542509
    59  H    0.426051
 Sum of Mulliken charges =   1.00000

 Dipole moment (field-independent basis, Debye):
    X=            -13.0873    Y=            -14.3034    Z=            -14.9266  Tot=             24.4677
 Quadrupole moment (field-independent basis, Debye-Ang):
   XX=            -89.4921   YY=           -122.2428   ZZ=            -97.0391
   XY=             35.8163   XZ=             37.2418   YZ=             40.1527

 Normal termination of Gaussian 16 at Wed May 25 07:50:11 2022.
