 Gaussian 16, Revision C.01,
 Gaussian 16:  ES64L-G16RevC.01  3-Jul-2019

 -------------------------------------------------------------------
 # B3LYP/6-31G* guess=read geom=check nosymm integral(ultrafinegrid)
 -------------------------------------------------------------------

 ------------------------------------------------------
 Candidate Structure: Conf:315 Charge calc in gas phase
 ------------------------------------------------------
 Structure from the checkpoint file:  "conf-315.chk"
 Charge =  1 Multiplicity = 1

                          Input orientation:
 ---------------------------------------------------------------------
 Center     Atomic      Atomic             Coordinates (Angstroms)
 Number     Number       Type             X           Y           Z
 ---------------------------------------------------------------------
      1          7           0       -3.650910   -1.861342   -3.779985
      2          1           0       -4.588094   -1.486135   -3.950677
      3          1           0       -3.489690   -2.653123   -4.421880
      4          1           0       -2.951582   -1.080308   -3.909800
      5          6           0       -3.431376   -2.273561   -2.341892
      6          1           0       -4.410257   -2.451532   -1.893880
      7          6           0       -2.687780   -1.053383   -1.737702
      8          6           0       -2.562852   -3.559876   -2.289974
      9          1           0       -1.528321   -3.295849   -2.539460
     10          1           0       -2.557764   -3.898197   -1.248679
     11          8           0       -2.197657   -0.247500   -2.541851
     12          6           0       -3.077398   -4.647879   -3.209905
     13          6           0       -4.174702   -5.442529   -2.844901
     14          1           0       -4.631766   -5.319471   -1.865133
     15          6           0       -2.490059   -4.840363   -4.471736
     16          1           0       -1.608201   -4.265908   -4.752653
     17          6           0       -4.670840   -6.408090   -3.719619
     18          1           0       -5.511961   -7.025901   -3.419443
     19          6           0       -2.992159   -5.805917   -5.350855
     20          1           0       -2.519461   -5.952977   -6.317341
     21          6           0       -4.083602   -6.588398   -4.975775
     22          1           0       -4.470326   -7.343708   -5.653026
     23          7           0       -2.543658   -0.962523   -0.409890
     24          6           0       -1.801143    0.196303    0.161521
     25          1           0       -2.259067    1.120599   -0.200814
     26          6           0       -0.319308    0.284334   -0.243965
     27          6           0       -1.995058    0.020947    1.683498
     28          1           0       -1.170075   -0.568393    2.100391
     29          1           0       -2.005358    0.985642    2.194132
     30          8           0        0.224541    1.375425   -0.300020
     31          6           0       -3.318000   -0.749765    1.808266
     32          1           0       -3.426501   -1.265031    2.765919
     33          1           0       -4.170754   -0.072628    1.688413
     34          6           0       -3.265496   -1.732972    0.630813
     35          1           0       -4.258041   -2.033293    0.283349
     36          1           0       -2.702466   -2.637446    0.893886
     37          7           0        0.319820   -0.898579   -0.458164
     38          1           0       -0.169215   -1.774178   -0.346670
     39          6           0        1.736725   -0.947075   -0.808677
     40          1           0        1.959867   -0.041350   -1.379153
     41          6           0        2.026668   -2.134977   -1.710699
     42          6           0        2.651527   -0.971021    0.446671
     43          1           0        2.493100   -1.917352    0.981267
     44          1           0        2.280819   -0.170714    1.098083
     45          8           0        2.974671   -2.235752   -2.447908
     46          6           0        4.139938   -0.734271    0.151874
     47          1           0        4.532146   -1.512956   -0.512076
     48          1           0        4.235416    0.206393   -0.406263
     49          6           0        5.010105   -0.642718    1.417877
     50          1           0        4.603463    0.132005    2.083357
     51          1           0        6.013929   -0.317984    1.121716
     52          6           0        5.159098   -1.947578    2.211545
     53          1           0        5.782504   -1.741136    3.089036
     54          1           0        4.174600   -2.266031    2.604911
     55          7           0        5.845294   -2.975085    1.420342
     56          1           0        5.218246   -3.367315    0.720678
     57          1           0        6.119556   -3.751214    2.019218
     58          8           0        1.118393   -3.153239   -1.559647
     59          1           0        1.459480   -3.887597   -2.105850
 ---------------------------------------------------------------------

 SCF Done:  E(RB3LYP) =  -1300.51444204     A.U. after    3 cycles

 Alpha  occ. eigenvalues --  -19.30312 -19.27839 -19.23869 -19.20879 -14.60595
 Alpha  occ. eigenvalues --  -14.51772 -14.46043 -14.36517 -10.44689 -10.42241
 Alpha  occ. eigenvalues --  -10.41975 -10.38694 -10.36687 -10.35557 -10.35051
 Alpha  occ. eigenvalues --  -10.33680 -10.33142 -10.32349 -10.32041 -10.31606
 Alpha  occ. eigenvalues --  -10.31518 -10.31518 -10.31223 -10.30954 -10.27090
 Alpha  occ. eigenvalues --  -10.26172 -10.24644 -10.23532  -1.20609  -1.20439
 Alpha  occ. eigenvalues --   -1.14886  -1.13135  -1.11610  -1.09025  -1.02418
 Alpha  occ. eigenvalues --   -0.99041  -0.94983  -0.93266  -0.92391  -0.89301
 Alpha  occ. eigenvalues --   -0.87900  -0.87220  -0.86718  -0.82562  -0.81155
 Alpha  occ. eigenvalues --   -0.78321  -0.76599  -0.75030  -0.74399  -0.73006
 Alpha  occ. eigenvalues --   -0.72503  -0.72168  -0.71470  -0.70903  -0.68802
 Alpha  occ. eigenvalues --   -0.67814  -0.65187  -0.64920  -0.63998  -0.63387
 Alpha  occ. eigenvalues --   -0.62629  -0.61435  -0.59602  -0.58443  -0.58398
 Alpha  occ. eigenvalues --   -0.57977  -0.57435  -0.56710  -0.56345  -0.55340
 Alpha  occ. eigenvalues --   -0.55125  -0.55045  -0.54626  -0.53821  -0.53725
 Alpha  occ. eigenvalues --   -0.53203  -0.52372  -0.52225  -0.51898  -0.51064
 Alpha  occ. eigenvalues --   -0.50245  -0.49470  -0.48797  -0.48445  -0.48099
 Alpha  occ. eigenvalues --   -0.47996  -0.47114  -0.46785  -0.46380  -0.45935
 Alpha  occ. eigenvalues --   -0.45396  -0.44609  -0.43249  -0.42374  -0.41974
 Alpha  occ. eigenvalues --   -0.39958  -0.39642  -0.39243  -0.38795  -0.38040
 Alpha  occ. eigenvalues --   -0.37614  -0.37499  -0.34762  -0.34150  -0.28648
 Alpha virt. eigenvalues --   -0.14690  -0.13715  -0.12678  -0.11139  -0.09187
 Alpha virt. eigenvalues --   -0.07341  -0.07029  -0.05487  -0.03389  -0.03290
 Alpha virt. eigenvalues --   -0.03001  -0.02244  -0.01884  -0.00653   0.00635

 Mulliken charges:
               1
     1  N   -0.752749
     2  H    0.416403
     3  H    0.406839
     4  H    0.432234
     5  C   -0.105626
     6  H    0.206892
     7  C    0.632575
     8  C   -0.394607
     9  H    0.200541
    10  H    0.199756
    11  O   -0.524389
    12  C    0.134176
    13  C   -0.180745
    14  H    0.143053
    15  C   -0.231878
    16  H    0.152453
    17  C   -0.121621
    18  H    0.171215
    19  C   -0.119152
    20  H    0.172438
    21  C   -0.123028
    22  H    0.174282
    23  N   -0.474433
    24  C   -0.035227
    25  H    0.206016
    26  C    0.637994
    27  C   -0.315213
    28  H    0.171582
    29  H    0.203828
    30  O   -0.499727
    31  C   -0.298618
    32  H    0.186326
    33  H    0.177090
    34  C   -0.153092
    35  H    0.168918
    36  H    0.178454
    37  N   -0.631197
    38  H    0.336427
    39  C   -0.039128
    40  H    0.216505
    41  C    0.585577
    42  C   -0.272831
    43  H    0.135913
    44  H    0.171173
    45  O   -0.430258
    46  C   -0.284204
    47  H    0.165889
    48  H    0.152017
    49  C   -0.245574
    50  H    0.129326
    51  H    0.160786
    52  C   -0.147125
    53  H    0.151685
    54  H    0.103914
    55  N   -0.710415
    56  H    0.289425
    57  H    0.303027
    58  O   -0.603330
    59  H    0.419437
 Sum of Mulliken charges =   1.00000

 Dipole moment (field-independent basis, Debye):
    X=            -18.6985    Y=            -16.3687    Z=             -9.4074  Tot=             26.5719
 Quadrupole moment (field-independent basis, Debye-Ang):
   XX=            -98.4515   YY=           -103.9693   ZZ=            -99.8530
   XY=             45.6581   XZ=             54.7039   YZ=             44.4164

 Normal termination of Gaussian 16 at Wed May 25 07:50:28 2022.
