 Gaussian 16, Revision C.01,
 Gaussian 16:  ES64L-G16RevC.01  3-Jul-2019

 -------------------------------------------------------------------
 # B3LYP/6-31G* guess=read geom=check nosymm integral(ultrafinegrid)
 -------------------------------------------------------------------

 ------------------------------------------------------
 Candidate Structure: Conf:433 Charge calc in gas phase
 ------------------------------------------------------
 Structure from the checkpoint file:  "conf-433.chk"
 Charge =  1 Multiplicity = 1

                          Input orientation:
 ---------------------------------------------------------------------
 Center     Atomic      Atomic             Coordinates (Angstroms)
 Number     Number       Type             X           Y           Z
 ---------------------------------------------------------------------
      1          7           0       -0.879286   -0.831517   -3.626421
      2          1           0        0.051732   -0.825060   -3.172280
      3          1           0       -0.826812   -0.559177   -4.615537
      4          1           0       -1.279283   -1.791421   -3.559564
      5          6           0       -1.839849    0.024893   -2.841547
      6          1           0       -1.266363    0.855931   -2.436138
      7          6           0       -2.354956   -0.946462   -1.755353
      8          6           0       -2.985205    0.574257   -3.755677
      9          1           0       -3.875205    0.699370   -3.129633
     10          1           0       -2.691149    1.576765   -4.082591
     11          8           0       -2.476094   -2.136450   -2.067118
     12          6           0       -3.289929   -0.281161   -4.969960
     13          6           0       -2.730908    0.062296   -6.212368
     14          1           0       -2.145147    0.975673   -6.307910
     15          6           0       -4.090192   -1.429976   -4.880762
     16          1           0       -4.530943   -1.712098   -3.929188
     17          6           0       -2.964644   -0.726627   -7.342211
     18          1           0       -2.538079   -0.439771   -8.298860
     19          6           0       -4.325566   -2.214000   -6.010314
     20          1           0       -4.955392   -3.095040   -5.930210
     21          6           0       -3.761691   -1.866986   -7.241011
     22          1           0       -3.952532   -2.477617   -8.118368
     23          7           0       -2.652210   -0.446747   -0.542584
     24          6           0       -2.301438    0.907656   -0.067276
     25          1           0       -2.774960    1.682768   -0.675880
     26          6           0       -0.789654    1.215268   -0.138874
     27          6           0       -2.871647    0.930401    1.374151
     28          1           0       -2.285662    1.577117    2.031653
     29          1           0       -3.890257    1.330101    1.343118
     30          8           0       -0.417497    2.358637   -0.358361
     31          6           0       -2.889207   -0.545604    1.807933
     32          1           0       -1.904046   -0.853925    2.177961
     33          1           0       -3.611173   -0.738370    2.604973
     34          6           0       -3.239281   -1.299237    0.519607
     35          1           0       -4.322358   -1.369438    0.367094
     36          1           0       -2.825827   -2.307956    0.455037
     37          7           0        0.072094    0.156773   -0.002073
     38          1           0       -0.295048   -0.734733    0.305372
     39          6           0        1.514507    0.363137    0.072513
     40          1           0        1.670145    1.397095   -0.263561
     41          6           0        2.293612   -0.520203   -0.901504
     42          6           0        2.086524    0.211219    1.498041
     43          1           0        3.175428    0.286732    1.420835
     44          1           0        1.877603   -0.805037    1.862453
     45          8           0        3.447099   -0.830863   -0.770134
     46          6           0        1.557911    1.251925    2.491592
     47          1           0        1.736169    2.260826    2.093812
     48          1           0        0.468143    1.149676    2.593763
     49          6           0        2.209996    1.124250    3.874943
     50          1           0        3.299278    1.228690    3.771146
     51          1           0        2.034485    0.113201    4.273128
     52          6           0        1.710418    2.164161    4.898621
     53          1           0        2.298722    2.060183    5.817798
     54          1           0        1.912170    3.174210    4.518717
     55          7           0        0.297198    2.109022    5.273986
     56          1           0        0.059344    1.188978    5.641298
     57          1           0       -0.302887    2.276197    4.469256
     58          8           0        1.589973   -0.943397   -2.019286
     59          1           0        2.253132   -1.468922   -2.511932
 ---------------------------------------------------------------------

 SCF Done:  E(RB3LYP) =  -1300.52239417     A.U. after    1 cycles

 Alpha  occ. eigenvalues --  -19.33957 -19.27146 -19.26952 -19.24622 -14.59294
 Alpha  occ. eigenvalues --  -14.51362 -14.49697 -14.38212 -10.45214 -10.43948
 Alpha  occ. eigenvalues --  -10.41944 -10.40684 -10.37158 -10.36380 -10.34974
 Alpha  occ. eigenvalues --  -10.34236 -10.32169 -10.32132 -10.31674 -10.30870
 Alpha  occ. eigenvalues --  -10.30371 -10.30205 -10.30018 -10.29873 -10.29409
 Alpha  occ. eigenvalues --  -10.27717 -10.27520 -10.25964  -1.23854  -1.19424
 Alpha  occ. eigenvalues --   -1.16754  -1.14909  -1.13786  -1.09065  -1.05616
 Alpha  occ. eigenvalues --   -0.97477  -0.94923  -0.94073  -0.92055  -0.91066
 Alpha  occ. eigenvalues --   -0.88388  -0.86481  -0.85718  -0.85270  -0.80351
 Alpha  occ. eigenvalues --   -0.79060  -0.78036  -0.74518  -0.73796  -0.73580
 Alpha  occ. eigenvalues --   -0.72704  -0.72079  -0.71667  -0.71174  -0.70037
 Alpha  occ. eigenvalues --   -0.69417  -0.66592  -0.65867  -0.64212  -0.63604
 Alpha  occ. eigenvalues --   -0.62359  -0.61811  -0.61339  -0.59960  -0.58917
 Alpha  occ. eigenvalues --   -0.58435  -0.57806  -0.57235  -0.56694  -0.56565
 Alpha  occ. eigenvalues --   -0.56240  -0.55498  -0.54859  -0.54473  -0.54330
 Alpha  occ. eigenvalues --   -0.53996  -0.53259  -0.52930  -0.52390  -0.51944
 Alpha  occ. eigenvalues --   -0.51578  -0.50702  -0.50205  -0.49641  -0.48590
 Alpha  occ. eigenvalues --   -0.48259  -0.47589  -0.47317  -0.47145  -0.46385
 Alpha  occ. eigenvalues --   -0.45539  -0.45419  -0.45235  -0.44570  -0.43352
 Alpha  occ. eigenvalues --   -0.41789  -0.41343  -0.41120  -0.40887  -0.40281
 Alpha  occ. eigenvalues --   -0.38278  -0.37110  -0.36512  -0.36152  -0.30026
 Alpha virt. eigenvalues --   -0.14055  -0.12445  -0.12264  -0.11889  -0.11258
 Alpha virt. eigenvalues --   -0.08927  -0.06460  -0.05175  -0.03251  -0.03073
 Alpha virt. eigenvalues --   -0.02843  -0.02021  -0.01009  -0.00455   0.00656

 Mulliken charges:
               1
     1  N   -0.777088
     2  H    0.436412
     3  H    0.403238
     4  H    0.423834
     5  C   -0.109108
     6  H    0.223188
     7  C    0.617101
     8  C   -0.385185
     9  H    0.201882
    10  H    0.196131
    11  O   -0.526324
    12  C    0.119467
    13  C   -0.222329
    14  H    0.146484
    15  C   -0.170559
    16  H    0.156091
    17  C   -0.121865
    18  H    0.165253
    19  C   -0.126770
    20  H    0.166753
    21  C   -0.123531
    22  H    0.167938
    23  N   -0.470520
    24  C   -0.058313
    25  H    0.194925
    26  C    0.595794
    27  C   -0.309973
    28  H    0.194659
    29  H    0.188835
    30  O   -0.500486
    31  C   -0.317667
    32  H    0.159567
    33  H    0.194155
    34  C   -0.137404
    35  H    0.192346
    36  H    0.199319
    37  N   -0.609914
    38  H    0.343082
    39  C   -0.084078
    40  H    0.234619
    41  C    0.617451
    42  C   -0.265574
    43  H    0.193592
    44  H    0.142085
    45  O   -0.412750
    46  C   -0.267236
    47  H    0.157241
    48  H    0.108816
    49  C   -0.266029
    50  H    0.145538
    51  H    0.128400
    52  C   -0.148272
    53  H    0.160467
    54  H    0.150707
    55  N   -0.699738
    56  H    0.294063
    57  H    0.288561
    58  O   -0.627188
    59  H    0.429904
 Sum of Mulliken charges =   1.00000

 Dipole moment (field-independent basis, Debye):
    X=             -7.2094    Y=             -3.8847    Z=            -11.5869  Tot=             14.1888
 Quadrupole moment (field-independent basis, Debye-Ang):
   XX=           -135.5754   YY=           -167.1232   ZZ=            -87.9498
   XY=              5.2875   XZ=             17.7736   YZ=              5.7123

 Normal termination of Gaussian 16 at Wed May 25 07:54:26 2022.
