 Gaussian 16, Revision C.01,
 Gaussian 16:  ES64L-G16RevC.01  3-Jul-2019

 -------------------------------------------------------------------
 # B3LYP/6-31G* guess=read geom=check nosymm integral(ultrafinegrid)
 -------------------------------------------------------------------

 ------------------------------------------------------
 Candidate Structure: Conf:549 Charge calc in gas phase
 ------------------------------------------------------
 Structure from the checkpoint file:  "conf-549.chk"
 Charge =  1 Multiplicity = 1

                          Input orientation:
 ---------------------------------------------------------------------
 Center     Atomic      Atomic             Coordinates (Angstroms)
 Number     Number       Type             X           Y           Z
 ---------------------------------------------------------------------
      1          7           0       -2.778836    2.307637    2.762671
      2          1           0       -1.821727    2.162865    2.389042
      3          1           0       -2.797464    2.363074    3.789693
      4          1           0       -3.175939    3.168060    2.355503
      5          6           0       -3.608807    1.151620    2.253730
      6          1           0       -3.023779    0.257309    2.460179
      7          6           0       -3.765583    1.487091    0.756964
      8          6           0       -4.962594    1.108494    2.988491
      9          1           0       -5.542875    1.989362    2.694942
     10          1           0       -5.503384    0.232219    2.612588
     11          8           0       -4.286090    2.573114    0.496671
     12          6           0       -4.793774    1.035489    4.493439
     13          6           0       -4.483257   -0.179052    5.123833
     14          1           0       -4.414773   -1.091234    4.534378
     15          6           0       -4.901265    2.194668    5.278574
     16          1           0       -5.184684    3.137726    4.813734
     17          6           0       -4.287273   -0.234081    6.503184
     18          1           0       -4.060928   -1.184087    6.978410
     19          6           0       -4.701632    2.140682    6.661377
     20          1           0       -4.803207    3.043518    7.256441
     21          6           0       -4.392397    0.926716    7.274466
     22          1           0       -4.244804    0.881146    8.349255
     23          7           0       -3.342202    0.613641   -0.179275
     24          6           0       -2.401952   -0.501020    0.012454
     25          1           0       -2.743533   -1.173415    0.808062
     26          6           0       -1.012395    0.055745    0.446549
     27          6           0       -2.464466   -1.195317   -1.363436
     28          1           0       -1.627686   -1.868148   -1.568211
     29          1           0       -3.372863   -1.806562   -1.397323
     30          8           0       -0.929342    1.070745    1.152691
     31          6           0       -2.564556   -0.013929   -2.340163
     32          1           0       -1.577132    0.438253   -2.484744
     33          1           0       -2.951037   -0.307153   -3.318911
     34          6           0       -3.503105    0.961957   -1.616345
     35          1           0       -4.552587    0.821907   -1.895314
     36          1           0       -3.251818    2.013403   -1.771597
     37          7           0        0.077668   -0.641346    0.081573
     38          1           0       -0.019691   -1.364756   -0.617119
     39          6           0        1.428599   -0.119613    0.287087
     40          1           0        1.497101    0.259859    1.309409
     41          6           0        1.644200    1.052353   -0.680368
     42          6           0        2.450544   -1.259265    0.077281
     43          1           0        2.419366   -1.575211   -0.975673
     44          1           0        2.098608   -2.110276    0.674737
     45          8           0        1.023100    1.217001   -1.706585
     46          6           0        3.893137   -0.929754    0.483363
     47          1           0        4.286379   -0.119155   -0.142271
     48          1           0        3.897763   -0.563879    1.518251
     49          6           0        4.808289   -2.157258    0.383145
     50          1           0        4.800924   -2.541090   -0.647057
     51          1           0        4.418624   -2.952961    1.031191
     52          6           0        6.258662   -1.871963    0.793136
     53          1           0        6.828749   -2.803203    0.703947
     54          1           0        6.707667   -1.160794    0.076667
     55          7           0        6.339093   -1.428294    2.191917
     56          1           0        6.183086   -0.424000    2.252396
     57          1           0        7.279607   -1.581431    2.549330
     58          8           0        2.626525    1.868686   -0.259204
     59          1           0        2.737977    2.561150   -0.939715
 ---------------------------------------------------------------------

 SCF Done:  E(RB3LYP) =  -1300.53907784     A.U. after    2 cycles

 Alpha  occ. eigenvalues --  -19.30019 -19.25934 -19.24473 -19.24413 -14.58246
 Alpha  occ. eigenvalues --  -14.49460 -14.49292 -14.37509 -10.42650 -10.42454
 Alpha  occ. eigenvalues --  -10.41846 -10.39103 -10.37226 -10.35066 -10.32949
 Alpha  occ. eigenvalues --  -10.32527 -10.31757 -10.31405 -10.30200 -10.29982
 Alpha  occ. eigenvalues --  -10.29826 -10.29620 -10.29554 -10.29498 -10.29301
 Alpha  occ. eigenvalues --  -10.27217 -10.26694 -10.25142  -1.20993  -1.17859
 Alpha  occ. eigenvalues --   -1.16708  -1.12744  -1.12029  -1.07106  -1.05682
 Alpha  occ. eigenvalues --   -0.96823  -0.94268  -0.92766  -0.91516  -0.90140
 Alpha  occ. eigenvalues --   -0.87276  -0.85454  -0.85131  -0.83971  -0.79383
 Alpha  occ. eigenvalues --   -0.77990  -0.76875  -0.74658  -0.72928  -0.72180
 Alpha  occ. eigenvalues --   -0.71828  -0.71224  -0.70453  -0.69956  -0.69170
 Alpha  occ. eigenvalues --   -0.67591  -0.65099  -0.64790  -0.63173  -0.61848
 Alpha  occ. eigenvalues --   -0.61640  -0.61142  -0.59672  -0.58723  -0.57859
 Alpha  occ. eigenvalues --   -0.57208  -0.56651  -0.56247  -0.56027  -0.55478
 Alpha  occ. eigenvalues --   -0.54952  -0.54802  -0.54191  -0.53749  -0.53357
 Alpha  occ. eigenvalues --   -0.52695  -0.52365  -0.51925  -0.51504  -0.50540
 Alpha  occ. eigenvalues --   -0.49587  -0.49438  -0.49093  -0.48874  -0.47672
 Alpha  occ. eigenvalues --   -0.47188  -0.46703  -0.46593  -0.45774  -0.45502
 Alpha  occ. eigenvalues --   -0.44820  -0.44771  -0.44749  -0.42228  -0.41594
 Alpha  occ. eigenvalues --   -0.41048  -0.40069  -0.40025  -0.39461  -0.38658
 Alpha  occ. eigenvalues --   -0.37763  -0.36821  -0.35933  -0.35497  -0.29834
 Alpha virt. eigenvalues --   -0.13256  -0.11637  -0.11312  -0.10331  -0.09369
 Alpha virt. eigenvalues --   -0.06683  -0.04863  -0.03715  -0.02035  -0.01906
 Alpha virt. eigenvalues --   -0.00772  -0.00175   0.00475   0.00956   0.01764

 Mulliken charges:
               1
     1  N   -0.743429
     2  H    0.444871
     3  H    0.402347
     4  H    0.411706
     5  C   -0.090458
     6  H    0.187410
     7  C    0.623450
     8  C   -0.370340
     9  H    0.202096
    10  H    0.194231
    11  O   -0.522024
    12  C    0.130595
    13  C   -0.179653
    14  H    0.137089
    15  C   -0.224222
    16  H    0.146044
    17  C   -0.123159
    18  H    0.162195
    19  C   -0.120669
    20  H    0.163733
    21  C   -0.124764
    22  H    0.165454
    23  N   -0.438967
    24  C   -0.105248
    25  H    0.190234
    26  C    0.669576
    27  C   -0.312955
    28  H    0.162277
    29  H    0.183856
    30  O   -0.579360
    31  C   -0.327774
    32  H    0.197442
    33  H    0.184781
    34  C   -0.119385
    35  H    0.188077
    36  H    0.200237
    37  N   -0.592654
    38  H    0.354947
    39  C   -0.035134
    40  H    0.196456
    41  C    0.600818
    42  C   -0.305681
    43  H    0.155185
    44  H    0.166234
    45  O   -0.461850
    46  C   -0.271230
    47  H    0.149499
    48  H    0.152884
    49  C   -0.236763
    50  H    0.131074
    51  H    0.145772
    52  C   -0.152800
    53  H    0.152171
    54  H    0.123288
    55  N   -0.719554
    56  H    0.297132
    57  H    0.309736
    58  O   -0.552253
    59  H    0.427430
 Sum of Mulliken charges =   1.00000

 Dipole moment (field-independent basis, Debye):
    X=             -6.9386    Y=              2.3230    Z=              9.0057  Tot=             11.6036
 Quadrupole moment (field-independent basis, Debye-Ang):
   XX=            -99.1835   YY=           -142.1927   ZZ=           -106.1492
   XY=             -4.6154   XZ=            -34.9088   YZ=             22.6211

 Normal termination of Gaussian 16 at Wed May 25 07:54:34 2022.
