 Gaussian 16, Revision C.01,
 Gaussian 16:  ES64L-G16RevC.01  3-Jul-2019

 -------------------------------------------------------------------
 # B3LYP/6-31G* guess=read geom=check nosymm integral(ultrafinegrid)
 -------------------------------------------------------------------

 ------------------------------------------------------
 Candidate Structure: Conf:876 Charge calc in gas phase
 ------------------------------------------------------
 Structure from the checkpoint file:  "conf-876.chk"
 Charge =  1 Multiplicity = 1

                          Input orientation:
 ---------------------------------------------------------------------
 Center     Atomic      Atomic             Coordinates (Angstroms)
 Number     Number       Type             X           Y           Z
 ---------------------------------------------------------------------
      1          7           0       -3.451187    3.320122    2.552685
      2          1           0       -4.399356    3.063863    2.843799
      3          1           0       -3.155703    4.146294    3.080493
      4          1           0       -2.807645    2.491245    2.725860
      5          6           0       -3.309001    3.494724    1.047332
      6          1           0       -4.277948    3.789316    0.642011
      7          6           0       -2.844593    2.076702    0.615045
      8          6           0       -2.235613    4.583394    0.783270
      9          1           0       -2.465816    5.434144    1.440922
     10          1           0       -1.261354    4.184605    1.087776
     11          8           0       -2.277214    1.404772    1.498310
     12          6           0       -2.185284    5.075423   -0.649049
     13          6           0       -3.126926    6.012362   -1.098227
     14          1           0       -3.882998    6.396269   -0.414955
     15          6           0       -1.197620    4.616382   -1.529783
     16          1           0       -0.478147    3.872780   -1.201061
     17          6           0       -3.090732    6.478313   -2.412048
     18          1           0       -3.820060    7.210024   -2.747034
     19          6           0       -1.160655    5.088163   -2.844172
     20          1           0       -0.387435    4.732018   -3.518722
     21          6           0       -2.105233    6.015831   -3.287827
     22          1           0       -2.068957    6.385330   -4.308511
     23          7           0       -3.035871    1.644140   -0.627811
     24          6           0       -2.420026    0.364973   -1.041085
     25          1           0       -2.841364   -0.439923   -0.427518
     26          6           0       -0.887093    0.421946   -0.871009
     27          6           0       -2.836106    0.231508   -2.524469
     28          1           0       -2.056322    0.663866   -3.160654
     29          1           0       -2.972066   -0.812684   -2.814988
     30          8           0       -0.270845    1.477653   -0.974840
     31          6           0       -4.123147    1.064175   -2.628181
     32          1           0       -4.344985    1.378000   -3.651250
     33          1           0       -4.982440    0.498002   -2.251635
     34          6           0       -3.831775    2.260651   -1.715673
     35          1           0       -4.736515    2.727540   -1.316866
     36          1           0       -3.237578    3.021011   -2.228818
     37          7           0       -0.301608   -0.782067   -0.682977
     38          1           0       -0.863901   -1.610308   -0.538578
     39          6           0        1.149874   -0.928902   -0.568417
     40          1           0        1.608188   -0.169823   -1.206646
     41          6           0        1.588876   -2.289316   -1.092171
     42          6           0        1.635121   -0.718180    0.890138
     43          1           0        1.225009   -1.523102    1.513221
     44          1           0        1.174727    0.215960    1.233434
     45          8           0        2.678171   -2.531174   -1.550768
     46          6           0        3.160849   -0.623301    1.036348
     47          1           0        3.635621   -1.536834    0.658818
     48          1           0        3.525065    0.186904    0.391150
     49          6           0        3.619896   -0.360422    2.480787
     50          1           0        3.107779    0.532664    2.869865
     51          1           0        4.690999   -0.115427    2.466361
     52          6           0        3.401431   -1.530741    3.463037
     53          1           0        3.692658   -1.200420    4.467658
     54          1           0        2.332834   -1.775884    3.527598
     55          7           0        4.121699   -2.774361    3.186352
     56          1           0        5.125647   -2.600430    3.161551
     57          1           0        3.873635   -3.142062    2.269637
     58          8           0        0.626686   -3.235409   -0.923261
     59          1           0        0.999993   -4.079220   -1.243194
 ---------------------------------------------------------------------

 SCF Done:  E(RB3LYP) =  -1300.51914987     A.U. after    1 cycles

 Alpha  occ. eigenvalues --  -19.28958 -19.27149 -19.22803 -19.21823 -14.60758
 Alpha  occ. eigenvalues --  -14.51018 -14.46433 -14.36676 -10.43965 -10.41642
 Alpha  occ. eigenvalues --  -10.41041 -10.39380 -10.35437 -10.34899 -10.34428
 Alpha  occ. eigenvalues --  -10.32952 -10.30959 -10.30832 -10.30774 -10.29692
 Alpha  occ. eigenvalues --  -10.29045 -10.28861 -10.28821 -10.28739 -10.27228
 Alpha  occ. eigenvalues --  -10.26417 -10.25312 -10.24430  -1.19874  -1.19563
 Alpha  occ. eigenvalues --   -1.14718  -1.13672  -1.10597  -1.08236  -1.02830
 Alpha  occ. eigenvalues --   -0.96831  -0.93729  -0.93487  -0.91616  -0.89091
 Alpha  occ. eigenvalues --   -0.86952  -0.85711  -0.84517  -0.82745  -0.80322
 Alpha  occ. eigenvalues --   -0.77862  -0.76543  -0.74538  -0.73811  -0.72136
 Alpha  occ. eigenvalues --   -0.71857  -0.70998  -0.70692  -0.68985  -0.68477
 Alpha  occ. eigenvalues --   -0.66937  -0.64627  -0.64188  -0.63925  -0.63507
 Alpha  occ. eigenvalues --   -0.61328  -0.61201  -0.58730  -0.58082  -0.56755
 Alpha  occ. eigenvalues --   -0.56500  -0.56472  -0.56016  -0.55857  -0.55766
 Alpha  occ. eigenvalues --   -0.54106  -0.53726  -0.53348  -0.52784  -0.52557
 Alpha  occ. eigenvalues --   -0.51861  -0.51664  -0.51504  -0.50923  -0.50247
 Alpha  occ. eigenvalues --   -0.50048  -0.49230  -0.48604  -0.48331  -0.47498
 Alpha  occ. eigenvalues --   -0.46323  -0.46094  -0.45475  -0.45274  -0.44782
 Alpha  occ. eigenvalues --   -0.44649  -0.44066  -0.44003  -0.41793  -0.41453
 Alpha  occ. eigenvalues --   -0.40454  -0.39904  -0.39193  -0.38739  -0.37151
 Alpha  occ. eigenvalues --   -0.35845  -0.35165  -0.34956  -0.34432  -0.28693
 Alpha virt. eigenvalues --   -0.13688  -0.11593  -0.11539  -0.10277  -0.08584
 Alpha virt. eigenvalues --   -0.07608  -0.06964  -0.04376  -0.02891  -0.02362
 Alpha virt. eigenvalues --   -0.01697  -0.00834  -0.00225   0.00380   0.01287

 Mulliken charges:
               1
     1  N   -0.752385
     2  H    0.415250
     3  H    0.411923
     4  H    0.434580
     5  C   -0.108705
     6  H    0.206692
     7  C    0.653619
     8  C   -0.382995
     9  H    0.171857
    10  H    0.205327
    11  O   -0.555644
    12  C    0.145242
    13  C   -0.184817
    14  H    0.126046
    15  C   -0.193733
    16  H    0.192918
    17  C   -0.128790
    18  H    0.157965
    19  C   -0.140957
    20  H    0.161152
    21  C   -0.124280
    22  H    0.160992
    23  N   -0.440014
    24  C   -0.044458
    25  H    0.175894
    26  C    0.655502
    27  C   -0.313730
    28  H    0.187656
    29  H    0.181823
    30  O   -0.536722
    31  C   -0.299982
    32  H    0.185939
    33  H    0.168669
    34  C   -0.151331
    35  H    0.163682
    36  H    0.211674
    37  N   -0.622702
    38  H    0.355232
    39  C   -0.040083
    40  H    0.205954
    41  C    0.588041
    42  C   -0.271761
    43  H    0.148642
    44  H    0.163191
    45  O   -0.438070
    46  C   -0.273167
    47  H    0.152105
    48  H    0.147202
    49  C   -0.264825
    50  H    0.121153
    51  H    0.139393
    52  C   -0.147849
    53  H    0.150573
    54  H    0.135372
    55  N   -0.702582
    56  H    0.300379
    57  H    0.295657
    58  O   -0.586152
    59  H    0.428434
 Sum of Mulliken charges =   1.00000

 Dipole moment (field-independent basis, Debye):
    X=            -16.7889    Y=             12.7870    Z=              2.5870  Tot=             21.2619
 Quadrupole moment (field-independent basis, Debye-Ang):
   XX=            -94.5194   YY=            -95.9566   ZZ=           -132.1780
   XY=            -51.0551   XZ=            -11.5833   YZ=             23.8307

 Normal termination of Gaussian 16 at Wed May 25 07:54:34 2022.
