 Gaussian 16, Revision C.01,
 Gaussian 16:  ES64L-G16RevC.01  3-Jul-2019

 -------------------------------------------------------------------
 # B3LYP/6-31G* guess=read geom=check nosymm integral(ultrafinegrid)
 -------------------------------------------------------------------

 ------------------------------------------------------
 Candidate Structure: Conf:217 Charge calc in gas phase
 ------------------------------------------------------
 Structure from the checkpoint file:  "conf-217.chk"
 Charge =  1 Multiplicity = 1

                          Input orientation:
 ---------------------------------------------------------------------
 Center     Atomic      Atomic             Coordinates (Angstroms)
 Number     Number       Type             X           Y           Z
 ---------------------------------------------------------------------
      1          7           0       -4.629750    3.032994    3.477740
      2          1           0       -5.565996    2.764296    3.791739
      3          1           0       -4.388968    3.948102    3.889786
      4          1           0       -3.949868    2.271796    3.751588
      5          6           0       -4.492673    3.067585    1.971889
      6          1           0       -5.489657    3.193780    1.546590
      7          6           0       -3.842490    1.701240    1.648404
      8          6           0       -3.557654    4.239965    1.562565
      9          1           0       -2.525877    3.962254    1.802618
     10          1           0       -3.604376    4.322408    0.472973
     11          8           0       -3.309133    1.099244    2.593613
     12          6           0       -3.945822    5.545179    2.225479
     13          6           0       -5.039655    6.293799    1.763941
     14          1           0       -5.587300    5.965755    0.882680
     15          6           0       -3.239672    6.001905    3.350886
     16          1           0       -2.358506    5.460458    3.691741
     17          6           0       -5.415760    7.470689    2.409380
     18          1           0       -6.255193    8.047705    2.032685
     19          6           0       -3.620864    7.180656    4.001111
     20          1           0       -3.055581    7.529080    4.860396
     21          6           0       -4.709913    7.914006    3.532185
     22          1           0       -5.002696    8.833352    4.030161
     23          7           0       -3.832080    1.263001    0.387215
     24          6           0       -2.891673    0.194291    0.012483
     25          1           0       -3.096940   -0.696818    0.613181
     26          6           0       -1.450780    0.697724    0.259653
     27          6           0       -3.156472   -0.028378   -1.504206
     28          1           0       -2.338862    0.404238   -2.089426
     29          1           0       -3.212086   -1.091177   -1.751518
     30          8           0       -1.205312    1.894293    0.374016
     31          6           0       -4.477513    0.710966   -1.789042
     32          1           0       -4.557133    1.050350   -2.824799
     33          1           0       -5.336531    0.066544   -1.574495
     34          6           0       -4.448065    1.880723   -0.799664
     35          1           0       -5.442706    2.272160   -0.568418
     36          1           0       -3.815961    2.696366   -1.172668
     37          7           0       -0.501454   -0.266177    0.283774
     38          1           0       -0.758502   -1.223364    0.079474
     39          6           0        0.920301    0.066480    0.302962
     40          1           0        1.092844    0.785104    1.108438
     41          6           0        1.376099    0.765590   -0.980052
     42          6           0        1.744666   -1.213985    0.558261
     43          1           0        1.616422   -1.890491   -0.297458
     44          1           0        1.300992   -1.713581    1.429987
     45          8           0        2.301072    1.538847   -1.037013
     46          6           0        3.235488   -0.960910    0.829675
     47          1           0        3.699004   -0.478243   -0.038881
     48          1           0        3.321555   -0.242506    1.655154
     49          6           0        4.011015   -2.236339    1.195870
     50          1           0        3.529139   -2.750517    2.037520
     51          1           0        5.009170   -1.941373    1.548369
     52          6           0        4.179914   -3.235926    0.046381
     53          1           0        3.196984   -3.579194   -0.301810
     54          1           0        4.651961   -2.718343   -0.810718
     55          7           0        4.908294   -4.417894    0.513832
     56          1           0        5.864720   -4.159183    0.754251
     57          1           0        4.983126   -5.102274   -0.236770
     58          8           0        0.668056    0.373193   -2.070716
     59          1           0        1.071028    0.836461   -2.830181
 ---------------------------------------------------------------------

 SCF Done:  E(RB3LYP) =  -1300.52611244     A.U. after    1 cycles

 Alpha  occ. eigenvalues --  -19.27972 -19.26452 -19.21966 -19.21883 -14.59306
 Alpha  occ. eigenvalues --  -14.50232 -14.46361 -14.36235 -10.43310 -10.40757
 Alpha  occ. eigenvalues --  -10.40007 -10.39132 -10.35184 -10.35061 -10.33539
 Alpha  occ. eigenvalues --  -10.32683 -10.32228 -10.30947 -10.30740 -10.30725
 Alpha  occ. eigenvalues --  -10.30673 -10.30345 -10.30299 -10.30014 -10.27657
 Alpha  occ. eigenvalues --  -10.26255 -10.25240 -10.23949  -1.19110  -1.18609
 Alpha  occ. eigenvalues --   -1.14151  -1.13294  -1.09603  -1.07930  -1.02783
 Alpha  occ. eigenvalues --   -0.97632  -0.93672  -0.93109  -0.91298  -0.89023
 Alpha  occ. eigenvalues --   -0.87225  -0.86129  -0.85867  -0.82435  -0.79816
 Alpha  occ. eigenvalues --   -0.77467  -0.75863  -0.73757  -0.73060  -0.72317
 Alpha  occ. eigenvalues --   -0.71768  -0.71545  -0.70245  -0.69718  -0.68659
 Alpha  occ. eigenvalues --   -0.66676  -0.64015  -0.63848  -0.63493  -0.62713
 Alpha  occ. eigenvalues --   -0.62192  -0.60886  -0.58365  -0.57807  -0.57191
 Alpha  occ. eigenvalues --   -0.56972  -0.56430  -0.55819  -0.55261  -0.54844
 Alpha  occ. eigenvalues --   -0.54363  -0.53386  -0.53326  -0.52974  -0.52714
 Alpha  occ. eigenvalues --   -0.52075  -0.51690  -0.51558  -0.50447  -0.50326
 Alpha  occ. eigenvalues --   -0.49869  -0.49351  -0.48605  -0.47628  -0.47442
 Alpha  occ. eigenvalues --   -0.47208  -0.46031  -0.45710  -0.45495  -0.45261
 Alpha  occ. eigenvalues --   -0.45122  -0.44012  -0.43539  -0.41146  -0.40691
 Alpha  occ. eigenvalues --   -0.40071  -0.39252  -0.38514  -0.38290  -0.37591
 Alpha  occ. eigenvalues --   -0.36744  -0.36290  -0.35595  -0.34093  -0.28489
 Alpha virt. eigenvalues --   -0.13345  -0.12389  -0.11276  -0.09941  -0.08071
 Alpha virt. eigenvalues --   -0.07035  -0.05483  -0.02844  -0.02110  -0.01842
 Alpha virt. eigenvalues --   -0.01549  -0.00924  -0.00873  -0.00312   0.00631

 Mulliken charges:
               1
     1  N   -0.752612
     2  H    0.412124
     3  H    0.404859
     4  H    0.428905
     5  C   -0.114869
     6  H    0.202526
     7  C    0.651849
     8  C   -0.385742
     9  H    0.222652
    10  H    0.204836
    11  O   -0.543509
    12  C    0.129274
    13  C   -0.180769
    14  H    0.140310
    15  C   -0.227053
    16  H    0.156491
    17  C   -0.122220
    18  H    0.166474
    19  C   -0.119688
    20  H    0.168164
    21  C   -0.124068
    22  H    0.169372
    23  N   -0.433414
    24  C   -0.064551
    25  H    0.191870
    26  C    0.651826
    27  C   -0.323289
    28  H    0.193547
    29  H    0.179435
    30  O   -0.535676
    31  C   -0.290111
    32  H    0.183005
    33  H    0.173668
    34  C   -0.154044
    35  H    0.166544
    36  H    0.190381
    37  N   -0.616232
    38  H    0.340792
    39  C   -0.007710
    40  H    0.199779
    41  C    0.600832
    42  C   -0.315989
    43  H    0.155046
    44  H    0.160822
    45  O   -0.445677
    46  C   -0.272743
    47  H    0.163241
    48  H    0.146422
    49  C   -0.255135
    50  H    0.149008
    51  H    0.140342
    52  C   -0.133775
    53  H    0.131906
    54  H    0.116982
    55  N   -0.715961
    56  H    0.298588
    57  H    0.301710
    58  O   -0.579172
    59  H    0.420431
 Sum of Mulliken charges =   1.00000

 Dipole moment (field-independent basis, Debye):
    X=            -19.9744    Y=             11.6821    Z=              6.8159  Tot=             24.1227
 Quadrupole moment (field-independent basis, Debye-Ang):
   XX=            -45.7178   YY=            -92.3592   ZZ=           -114.6858
   XY=            -81.6661   XZ=            -45.8090   YZ=             51.6530

 Normal termination of Gaussian 16 at Wed May 25 07:50:10 2022.
