 Gaussian 16, Revision C.01,
 Gaussian 16:  ES64L-G16RevC.01  3-Jul-2019

 -------------------------------------------------------------------
 # B3LYP/6-31G* guess=read geom=check nosymm integral(ultrafinegrid)
 -------------------------------------------------------------------

 ------------------------------------------------------
 Candidate Structure: Conf:879 Charge calc in gas phase
 ------------------------------------------------------
 Structure from the checkpoint file:  "conf-879.chk"
 Charge =  1 Multiplicity = 1

                          Input orientation:
 ---------------------------------------------------------------------
 Center     Atomic      Atomic             Coordinates (Angstroms)
 Number     Number       Type             X           Y           Z
 ---------------------------------------------------------------------
      1          7           0       -4.799580    3.780824    0.060315
      2          1           0       -5.789434    3.607113    0.255437
      3          1           0       -4.608044    4.789864    0.162538
      4          1           0       -4.219276    3.192110    0.714540
      5          6           0       -4.363106    3.284941   -1.300306
      6          1           0       -5.231552    3.297003   -1.960687
      7          6           0       -3.812861    1.872190   -0.998552
      8          6           0       -3.234264    4.212535   -1.828800
      9          1           0       -2.338351    4.040186   -1.222507
     10          1           0       -2.979132    3.879918   -2.838846
     11          8           0       -3.443116    1.662327    0.167705
     12          6           0       -3.637259    5.672311   -1.808942
     13          6           0       -4.496618    6.197879   -2.786200
     14          1           0       -4.837198    5.566403   -3.604367
     15          6           0       -3.192279    6.514032   -0.775904
     16          1           0       -2.484372    6.137240   -0.039035
     17          6           0       -4.898338    7.531565   -2.733268
     18          1           0       -5.552116    7.928743   -3.504161
     19          6           0       -3.599832    7.851330   -0.720573
     20          1           0       -3.234952    8.493578    0.075473
     21          6           0       -4.454482    8.359776   -1.697600
     22          1           0       -4.765879    9.399301   -1.661598
     23          7           0       -3.708108    0.986085   -1.990798
     24          6           0       -2.843796   -0.190047   -1.807021
     25          1           0       -3.134529   -0.731759   -0.902788
     26          6           0       -1.376803    0.296171   -1.695317
     27          6           0       -3.076759   -0.999637   -3.100672
     28          1           0       -2.219042   -1.629628   -3.349095
     29          1           0       -3.953801   -1.644716   -2.978594
     30          8           0       -1.050251    1.418732   -2.067707
     31          6           0       -3.336174    0.089785   -4.154425
     32          1           0       -2.388776    0.523712   -4.486482
     33          1           0       -3.871144   -0.282267   -5.031418
     34          6           0       -4.150333    1.148504   -3.394482
     35          1           0       -5.227938    0.954037   -3.461672
     36          1           0       -3.952929    2.157863   -3.763257
     37          7           0       -0.516627   -0.625724   -1.196343
     38          1           0       -0.866254   -1.552892   -0.993052
     39          6           0        0.929134   -0.452379   -1.251604
     40          1           0        1.092688    0.617418   -1.414368
     41          6           0        1.571751   -1.155272   -2.453499
     42          6           0        1.630010   -0.868789    0.057618
     43          1           0        1.247267   -0.222698    0.854961
     44          1           0        2.694596   -0.642230   -0.063971
     45          8           0        2.761276   -1.168028   -2.657684
     46          6           0        1.465922   -2.350519    0.431336
     47          1           0        0.403839   -2.583228    0.607154
     48          1           0        1.787353   -2.971758   -0.415485
     49          6           0        2.275795   -2.766310    1.670430
     50          1           0        3.334437   -2.517256    1.528032
     51          1           0        2.227358   -3.860203    1.765568
     52          6           0        1.798800   -2.142444    2.986502
     53          1           0        1.895057   -1.050467    2.940039
     54          1           0        0.718940   -2.356620    3.114242
     55          7           0        2.640436   -2.604637    4.091186
     56          1           0        2.499614   -3.602811    4.241826
     57          1           0        2.369474   -2.144977    4.958350
     58          8           0        0.673596   -1.760770   -3.272465
     59          1           0        1.198389   -2.159574   -3.993776
 ---------------------------------------------------------------------

 SCF Done:  E(RB3LYP) =  -1300.52646140     A.U. after    2 cycles

 Alpha  occ. eigenvalues --  -19.28473 -19.26428 -19.22148 -19.22017 -14.59687
 Alpha  occ. eigenvalues --  -14.50239 -14.46307 -14.36576 -10.43292 -10.40860
 Alpha  occ. eigenvalues --  -10.40378 -10.39231 -10.35159 -10.35026 -10.33744
 Alpha  occ. eigenvalues --  -10.32667 -10.32366 -10.31112 -10.30856 -10.30597
 Alpha  occ. eigenvalues --  -10.30475 -10.30411 -10.30362 -10.30130 -10.26839
 Alpha  occ. eigenvalues --  -10.26669 -10.26119 -10.24347  -1.19098  -1.19010
 Alpha  occ. eigenvalues --   -1.14249  -1.13483  -1.09971  -1.07820  -1.02829
 Alpha  occ. eigenvalues --   -0.97775  -0.93779  -0.93479  -0.91429  -0.88878
 Alpha  occ. eigenvalues --   -0.87235  -0.86198  -0.85974  -0.82843  -0.79906
 Alpha  occ. eigenvalues --   -0.77297  -0.76052  -0.73972  -0.73345  -0.72241
 Alpha  occ. eigenvalues --   -0.71897  -0.71485  -0.70955  -0.70233  -0.68266
 Alpha  occ. eigenvalues --   -0.66717  -0.64808  -0.63819  -0.63222  -0.63032
 Alpha  occ. eigenvalues --   -0.62163  -0.60649  -0.58237  -0.57906  -0.57678
 Alpha  occ. eigenvalues --   -0.56895  -0.56614  -0.56315  -0.55455  -0.54834
 Alpha  occ. eigenvalues --   -0.54539  -0.53533  -0.53417  -0.53074  -0.52889
 Alpha  occ. eigenvalues --   -0.52010  -0.51658  -0.51350  -0.50903  -0.50379
 Alpha  occ. eigenvalues --   -0.49934  -0.49302  -0.48749  -0.48165  -0.47540
 Alpha  occ. eigenvalues --   -0.47132  -0.46592  -0.45905  -0.45795  -0.45577
 Alpha  occ. eigenvalues --   -0.45282  -0.44006  -0.43452  -0.41066  -0.40901
 Alpha  occ. eigenvalues --   -0.40089  -0.39865  -0.38869  -0.38405  -0.37852
 Alpha  occ. eigenvalues --   -0.36870  -0.36411  -0.35680  -0.33998  -0.28777
 Alpha virt. eigenvalues --   -0.13612  -0.12510  -0.11433  -0.09971  -0.08207
 Alpha virt. eigenvalues --   -0.07461  -0.05084  -0.03416  -0.02171  -0.01996
 Alpha virt. eigenvalues --   -0.01558  -0.01006  -0.00593  -0.00069   0.01106

 Mulliken charges:
               1
     1  N   -0.749012
     2  H    0.412770
     3  H    0.404634
     4  H    0.426703
     5  C   -0.119512
     6  H    0.204541
     7  C    0.653640
     8  C   -0.383899
     9  H    0.213217
    10  H    0.215614
    11  O   -0.545686
    12  C    0.132336
    13  C   -0.180343
    14  H    0.141098
    15  C   -0.228295
    16  H    0.153815
    17  C   -0.122166
    18  H    0.167040
    19  C   -0.119522
    20  H    0.168033
    21  C   -0.123795
    22  H    0.169737
    23  N   -0.432505
    24  C   -0.091915
    25  H    0.192232
    26  C    0.653043
    27  C   -0.306004
    28  H    0.194709
    29  H    0.173900
    30  O   -0.534020
    31  C   -0.312057
    32  H    0.192893
    33  H    0.180582
    34  C   -0.135340
    35  H    0.176891
    36  H    0.168826
    37  N   -0.600259
    38  H    0.344207
    39  C   -0.076438
    40  H    0.219571
    41  C    0.599680
    42  C   -0.267970
    43  H    0.156732
    44  H    0.184627
    45  O   -0.441176
    46  C   -0.289219
    47  H    0.116510
    48  H    0.151479
    49  C   -0.251964
    50  H    0.164158
    51  H    0.136366
    52  C   -0.132374
    53  H    0.140168
    54  H    0.105059
    55  N   -0.712673
    56  H    0.297803
    57  H    0.301435
    58  O   -0.580658
    59  H    0.422752
 Sum of Mulliken charges =   1.00000

 Dipole moment (field-independent basis, Debye):
    X=            -22.1254    Y=             12.3888    Z=             -5.6446  Tot=             25.9784
 Quadrupole moment (field-independent basis, Debye-Ang):
   XX=            -72.7808   YY=            -60.8486   ZZ=           -128.3373
   XY=            -77.1458   XZ=             28.3513   YZ=             -7.9635

 Normal termination of Gaussian 16 at Wed May 25 07:54:34 2022.
