 Gaussian 16, Revision C.01,
 Gaussian 16:  ES64L-G16RevC.01  3-Jul-2019

 -------------------------------------------------------------------
 # B3LYP/6-31G* guess=read geom=check nosymm integral(ultrafinegrid)
 -------------------------------------------------------------------

 ------------------------------------------------------
 Candidate Structure: Conf:102 Charge calc in gas phase
 ------------------------------------------------------
 Structure from the checkpoint file:  "conf-102.chk"
 Charge =  1 Multiplicity = 1

                          Input orientation:
 ---------------------------------------------------------------------
 Center     Atomic      Atomic             Coordinates (Angstroms)
 Number     Number       Type             X           Y           Z
 ---------------------------------------------------------------------
      1          7           0       -2.642519   -2.528360    2.153732
      2          1           0       -3.390541   -3.013944    2.652297
      3          1           0       -1.707140   -3.076759    2.272935
      4          1           0       -2.808536   -2.525578    1.125943
      5          6           0       -2.532093   -1.065451    2.535701
      6          1           0       -3.452468   -0.776895    3.050927
      7          6           0       -2.383613   -0.350659    1.164634
      8          6           0       -1.306996   -0.902728    3.478804
      9          1           0       -1.363506   -1.729721    4.199878
     10          1           0       -0.399597   -1.059664    2.885738
     11          8           0       -2.198151   -1.083918    0.175659
     12          6           0       -1.205368    0.398452    4.245331
     13          6           0       -0.232509    1.349373    3.911367
     14          1           0        0.420288    1.186189    3.058102
     15          6           0       -2.060179    0.647241    5.328494
     16          1           0       -2.804219   -0.093871    5.616844
     17          6           0       -0.123939    2.532618    4.645532
     18          1           0        0.634790    3.261763    4.376796
     19          6           0       -1.956098    1.831688    6.057278
     20          1           0       -2.622126    2.010897    6.896333
     21          6           0       -0.985382    2.777169    5.716656
     22          1           0       -0.897493    3.696287    6.288571
     23          7           0       -2.361893    0.983430    1.080534
     24          6           0       -1.855752    1.595675   -0.180393
     25          1           0       -2.409181    1.172494   -1.024669
     26          6           0       -0.344031    1.278289   -0.283355
     27          6           0       -2.147655    3.093328    0.011050
     28          1           0       -1.268240    3.567631    0.457320
     29          1           0       -2.364669    3.586000   -0.939773
     30          8           0        0.457624    1.774574    0.506285
     31          6           0       -3.330105    3.121048    0.992845
     32          1           0       -3.435401    4.081361    1.504449
     33          1           0       -4.271920    2.905209    0.475651
     34          6           0       -2.985723    1.991847    1.971876
     35          1           0       -3.858690    1.567157    2.475221
     36          1           0       -2.272364    2.330175    2.724596
     37          7           0        0.000988    0.411004   -1.259457
     38          1           0       -0.710255   -0.045149   -1.819487
     39          6           0        1.361023   -0.072971   -1.444645
     40          1           0        2.040782    0.785129   -1.477995
     41          6           0        1.396260   -0.775267   -2.796202
     42          6           0        1.854155   -1.015899   -0.312457
     43          1           0        1.886227   -0.415035    0.602621
     44          1           0        2.888062   -1.296413   -0.546658
     45          8           0        0.411596   -1.104398   -3.422750
     46          6           0        0.997947   -2.272314   -0.092753
     47          1           0       -0.029482   -1.979463    0.146598
     48          1           0        0.937532   -2.855266   -1.022537
     49          6           0        1.570178   -3.176301    1.010872
     50          1           0        1.768139   -2.588856    1.920854
     51          1           0        2.550221   -3.549857    0.689254
     52          6           0        0.701535   -4.391470    1.374782
     53          1           0        0.157426   -4.750870    0.494627
     54          1           0        1.345568   -5.212814    1.713173
     55          7           0       -0.312468   -4.093838    2.437246
     56          1           0        0.192222   -3.770601    3.265783
     57          1           0       -0.726976   -4.984528    2.722372
     58          8           0        2.656123   -1.020119   -3.194907
     59          1           0        2.603457   -1.483790   -4.052987
 ---------------------------------------------------------------------

 SCF Done:  E(RB3LYP) =  -1300.54648349     A.U. after    1 cycles

 Alpha  occ. eigenvalues --  -19.29134 -19.25654 -19.23691 -19.20958 -14.56046
 Alpha  occ. eigenvalues --  -14.49301 -14.47684 -14.45517 -10.42499 -10.41651
 Alpha  occ. eigenvalues --  -10.39670 -10.38345 -10.33835 -10.33361 -10.33293
 Alpha  occ. eigenvalues --  -10.33270 -10.33255 -10.30309 -10.29332 -10.29179
 Alpha  occ. eigenvalues --  -10.29135 -10.28710 -10.28593 -10.28456 -10.28366
 Alpha  occ. eigenvalues --  -10.28315 -10.28278 -10.28020  -1.20199  -1.17960
 Alpha  occ. eigenvalues --   -1.12934  -1.11293  -1.10841  -1.06414  -1.02536
 Alpha  occ. eigenvalues --   -1.02066  -0.95967  -0.92185  -0.90257  -0.89858
 Alpha  occ. eigenvalues --   -0.87085  -0.85157  -0.84359  -0.84035  -0.80165
 Alpha  occ. eigenvalues --   -0.78753  -0.76083  -0.73622  -0.72338  -0.72201
 Alpha  occ. eigenvalues --   -0.70322  -0.70138  -0.69767  -0.69220  -0.66836
 Alpha  occ. eigenvalues --   -0.66500  -0.66226  -0.63053  -0.62665  -0.62064
 Alpha  occ. eigenvalues --   -0.61818  -0.60525  -0.59850  -0.58828  -0.58165
 Alpha  occ. eigenvalues --   -0.58026  -0.56757  -0.56459  -0.55722  -0.55443
 Alpha  occ. eigenvalues --   -0.55173  -0.54660  -0.54047  -0.53592  -0.52611
 Alpha  occ. eigenvalues --   -0.51907  -0.51465  -0.51160  -0.51062  -0.50909
 Alpha  occ. eigenvalues --   -0.50475  -0.49391  -0.49094  -0.48687  -0.48387
 Alpha  occ. eigenvalues --   -0.47006  -0.46646  -0.46004  -0.45335  -0.45053
 Alpha  occ. eigenvalues --   -0.44261  -0.44047  -0.43745  -0.43591  -0.43349
 Alpha  occ. eigenvalues --   -0.43086  -0.41250  -0.40096  -0.39928  -0.37606
 Alpha  occ. eigenvalues --   -0.37213  -0.35090  -0.34600  -0.34414  -0.34102
 Alpha virt. eigenvalues --   -0.12612  -0.10519  -0.09834  -0.08904  -0.08736
 Alpha virt. eigenvalues --   -0.07684  -0.05596  -0.03702  -0.02914  -0.01479
 Alpha virt. eigenvalues --   -0.01117  -0.00984   0.00261   0.00571   0.01244

 Mulliken charges:
               1
     1  N   -0.804751
     2  H    0.386671
     3  H    0.460997
     4  H    0.414441
     5  C   -0.077352
     6  H    0.200306
     7  C    0.613618
     8  C   -0.387717
     9  H    0.164901
    10  H    0.187820
    11  O   -0.539873
    12  C    0.160509
    13  C   -0.200342
    14  H    0.174240
    15  C   -0.183968
    16  H    0.123205
    17  C   -0.135477
    18  H    0.162124
    19  C   -0.128576
    20  H    0.155987
    21  C   -0.125354
    22  H    0.159567
    23  N   -0.435586
    24  C   -0.038352
    25  H    0.175972
    26  C    0.618108
    27  C   -0.315662
    28  H    0.195475
    29  H    0.178723
    30  O   -0.530750
    31  C   -0.302432
    32  H    0.179609
    33  H    0.164918
    34  C   -0.149825
    35  H    0.161670
    36  H    0.207257
    37  N   -0.601683
    38  H    0.365903
    39  C   -0.026267
    40  H    0.205557
    41  C    0.585851
    42  C   -0.287486
    43  H    0.173698
    44  H    0.170540
    45  O   -0.464583
    46  C   -0.297637
    47  H    0.159705
    48  H    0.152865
    49  C   -0.272443
    50  H    0.136981
    51  H    0.168503
    52  C   -0.150944
    53  H    0.171368
    54  H    0.165486
    55  N   -0.786074
    56  H    0.335781
    57  H    0.336289
    58  O   -0.559615
    59  H    0.428105
 Sum of Mulliken charges =   1.00000

 Dipole moment (field-independent basis, Debye):
    X=             -8.0360    Y=             -7.9159    Z=             10.3314  Tot=             15.2963
 Quadrupole moment (field-independent basis, Debye-Ang):
   XX=           -124.2823   YY=           -106.4272   ZZ=           -113.9920
   XY=             -0.7652   XZ=            -34.4747   YZ=            -16.8081

 Normal termination of Gaussian 16 at Wed May 25 07:50:13 2022.
