 Gaussian 16, Revision C.01,
 Gaussian 16:  ES64L-G16RevC.01  3-Jul-2019

 -------------------------------------------------------------------
 # B3LYP/6-31G* guess=read geom=check nosymm integral(ultrafinegrid)
 -------------------------------------------------------------------

 ------------------------------------------------------
 Candidate Structure: Conf:727 Charge calc in gas phase
 ------------------------------------------------------
 Structure from the checkpoint file:  "conf-727.chk"
 Charge =  1 Multiplicity = 1

                          Input orientation:
 ---------------------------------------------------------------------
 Center     Atomic      Atomic             Coordinates (Angstroms)
 Number     Number       Type             X           Y           Z
 ---------------------------------------------------------------------
      1          7           0       -1.750402    4.140672    1.145156
      2          1           0       -0.931548    3.583999    0.822817
      3          1           0       -1.534719    4.648507    2.008098
      4          1           0       -2.027000    4.803739    0.404940
      5          6           0       -2.881436    3.139316    1.295550
      6          1           0       -2.476812    2.320774    1.887310
      7          6           0       -3.176057    2.778431   -0.177004
      8          6           0       -4.098052    3.772555    1.985503
      9          1           0       -3.783572    4.169039    2.960288
     10          1           0       -4.448979    4.611719    1.376169
     11          8           0       -3.500696    3.717342   -0.907393
     12          6           0       -5.204121    2.750559    2.171314
     13          6           0       -6.233907    2.639020    1.227799
     14          1           0       -6.254470    3.308963    0.371804
     15          6           0       -5.194432    1.887095    3.275490
     16          1           0       -4.414139    1.978924    4.029117
     17          6           0       -7.237020    1.681790    1.388038
     18          1           0       -8.037798    1.613823    0.657324
     19          6           0       -6.196345    0.928987    3.434842
     20          1           0       -6.185965    0.275516    4.302460
     21          6           0       -7.219400    0.824751    2.489965
     22          1           0       -8.005687    0.086682    2.618754
     23          7           0       -3.049345    1.507987   -0.602596
     24          6           0       -2.383044    0.399606    0.094841
     25          1           0       -2.789218    0.275996    1.105561
     26          6           0       -0.862653    0.705151    0.242762
     27          6           0       -2.758437   -0.801929   -0.798475
     28          1           0       -2.110667   -1.673859   -0.677873
     29          1           0       -3.772335   -1.121139   -0.534960
     30          8           0       -0.455409    1.872913    0.344322
     31          6           0       -2.726212   -0.207199   -2.214186
     32          1           0       -1.690803   -0.131116   -2.565017
     33          1           0       -3.284876   -0.806084   -2.937076
     34          6           0       -3.334471    1.188438   -2.024200
     35          1           0       -4.419027    1.196672   -2.175470
     36          1           0       -2.899920    1.954418   -2.670263
     37          7           0       -0.027468   -0.343179    0.327842
     38          1           0       -0.376143   -1.270141    0.130134
     39          6           0        1.421541   -0.177704    0.420136
     40          1           0        1.606611    0.696298    1.048949
     41          6           0        2.078001    0.145425   -0.927546
     42          6           0        2.099683   -1.405942    1.064609
     43          1           0        1.701973   -1.517539    2.081356
     44          1           0        3.158951   -1.150976    1.162108
     45          8           0        3.213090    0.542213   -1.020510
     46          6           0        1.944408   -2.725963    0.291349
     47          1           0        0.878402   -2.979871    0.183319
     48          1           0        2.333714   -2.606083   -0.729165
     49          6           0        2.650764   -3.917132    0.965083
     50          1           0        2.354755   -4.836530    0.441890
     51          1           0        2.289468   -4.022565    1.998998
     52          6           0        4.190667   -3.834069    0.967542
     53          1           0        4.544733   -3.694855   -0.062856
     54          1           0        4.523217   -2.950400    1.526165
     55          7           0        4.889301   -4.988226    1.526685
     56          1           0        4.635603   -5.836290    1.022192
     57          1           0        4.614974   -5.136123    2.496627
     58          8           0        1.274726   -0.093304   -1.991744
     59          1           0        1.802998    0.121123   -2.785562
 ---------------------------------------------------------------------

 SCF Done:  E(RB3LYP) =  -1300.53115321     A.U. after    1 cycles

 Alpha  occ. eigenvalues --  -19.30382 -19.26415 -19.24908 -19.24121 -14.59352
 Alpha  occ. eigenvalues --  -14.49945 -14.49878 -14.37485 -10.43150 -10.42430
 Alpha  occ. eigenvalues --  -10.42315 -10.39666 -10.37594 -10.35402 -10.33618
 Alpha  occ. eigenvalues --  -10.32883 -10.32301 -10.30702 -10.30637 -10.29671
 Alpha  occ. eigenvalues --  -10.29346 -10.28981 -10.28815 -10.28655 -10.28562
 Alpha  occ. eigenvalues --  -10.28541 -10.27644 -10.26372  -1.21003  -1.18341
 Alpha  occ. eigenvalues --   -1.17171  -1.13501  -1.12008  -1.07634  -1.06233
 Alpha  occ. eigenvalues --   -0.96333  -0.94521  -0.93177  -0.91824  -0.90666
 Alpha  occ. eigenvalues --   -0.87824  -0.85115  -0.84660  -0.84335  -0.79940
 Alpha  occ. eigenvalues --   -0.78087  -0.77203  -0.74399  -0.73688  -0.73416
 Alpha  occ. eigenvalues --   -0.72382  -0.71718  -0.70615  -0.70544  -0.68561
 Alpha  occ. eigenvalues --   -0.68027  -0.66347  -0.65743  -0.63828  -0.62463
 Alpha  occ. eigenvalues --   -0.62012  -0.60812  -0.59766  -0.58984  -0.57918
 Alpha  occ. eigenvalues --   -0.57293  -0.57056  -0.56943  -0.55760  -0.55681
 Alpha  occ. eigenvalues --   -0.55260  -0.54917  -0.54747  -0.54056  -0.53450
 Alpha  occ. eigenvalues --   -0.52804  -0.51816  -0.51614  -0.51208  -0.50741
 Alpha  occ. eigenvalues --   -0.50634  -0.49521  -0.49328  -0.48990  -0.48361
 Alpha  occ. eigenvalues --   -0.47763  -0.47351  -0.46794  -0.46234  -0.45772
 Alpha  occ. eigenvalues --   -0.44828  -0.44382  -0.43991  -0.43852  -0.42439
 Alpha  occ. eigenvalues --   -0.41698  -0.41425  -0.40794  -0.40281  -0.39053
 Alpha  occ. eigenvalues --   -0.37343  -0.36763  -0.34936  -0.34751  -0.29498
 Alpha virt. eigenvalues --   -0.13422  -0.11448  -0.10784  -0.10152  -0.09435
 Alpha virt. eigenvalues --   -0.08794  -0.06051  -0.04088  -0.02606  -0.02324
 Alpha virt. eigenvalues --   -0.01630  -0.01022   0.00493   0.00831   0.01214

 Mulliken charges:
               1
     1  N   -0.749164
     2  H    0.449190
     3  H    0.406183
     4  H    0.417208
     5  C   -0.090093
     6  H    0.189079
     7  C    0.635523
     8  C   -0.368864
     9  H    0.166026
    10  H    0.195675
    11  O   -0.529561
    12  C    0.148707
    13  C   -0.183400
    14  H    0.157268
    15  C   -0.191454
    16  H    0.129659
    17  C   -0.130970
    18  H    0.157451
    19  C   -0.128495
    20  H    0.154838
    21  C   -0.125723
    22  H    0.158389
    23  N   -0.435413
    24  C   -0.105375
    25  H    0.201140
    26  C    0.663648
    27  C   -0.313986
    28  H    0.162305
    29  H    0.188688
    30  O   -0.580817
    31  C   -0.319370
    32  H    0.179265
    33  H    0.186490
    34  C   -0.119057
    35  H    0.189440
    36  H    0.197477
    37  N   -0.598279
    38  H    0.360245
    39  C   -0.051199
    40  H    0.203745
    41  C    0.604894
    42  C   -0.295984
    43  H    0.157930
    44  H    0.197253
    45  O   -0.437214
    46  C   -0.287553
    47  H    0.117460
    48  H    0.157726
    49  C   -0.267805
    50  H    0.140753
    51  H    0.131291
    52  C   -0.143169
    53  H    0.150101
    54  H    0.147525
    55  N   -0.697835
    56  H    0.299720
    57  H    0.297922
    58  O   -0.577174
    59  H    0.427739
 Sum of Mulliken charges =   1.00000

 Dipole moment (field-independent basis, Debye):
    X=            -11.0442    Y=              5.5713    Z=              4.4465  Tot=             13.1448
 Quadrupole moment (field-independent basis, Debye-Ang):
   XX=           -136.7336   YY=           -108.3647   ZZ=           -137.2958
   XY=            -14.6961   XZ=            -12.4149   YZ=             17.9693

 Normal termination of Gaussian 16 at Wed May 25 07:54:27 2022.
