 Gaussian 16, Revision C.01,
 Gaussian 16:  ES64L-G16RevC.01  3-Jul-2019

 -------------------------------------------------------------------
 # B3LYP/6-31G* guess=read geom=check nosymm integral(ultrafinegrid)
 -------------------------------------------------------------------

 ------------------------------------------------------
 Candidate Structure: Conf:883 Charge calc in gas phase
 ------------------------------------------------------
 Structure from the checkpoint file:  "conf-883.chk"
 Charge =  1 Multiplicity = 1

                          Input orientation:
 ---------------------------------------------------------------------
 Center     Atomic      Atomic             Coordinates (Angstroms)
 Number     Number       Type             X           Y           Z
 ---------------------------------------------------------------------
      1          7           0       -3.830364    3.813212   -2.965783
      2          1           0       -4.780639    4.190414   -3.018629
      3          1           0       -3.370795    3.944990   -3.880199
      4          1           0       -3.322671    4.300414   -2.177642
      5          6           0       -3.792247    2.362096   -2.542247
      6          1           0       -4.768002    1.925977   -2.762238
      7          6           0       -3.483165    2.449428   -1.024477
      8          6           0       -2.670779    1.618461   -3.316676
      9          1           0       -1.700179    1.932605   -2.915189
     10          1           0       -2.776079    0.553506   -3.085112
     11          8           0       -3.057793    3.535745   -0.605322
     12          6           0       -2.739595    1.856734   -4.811083
     13          6           0       -3.668800    1.172938   -5.609684
     14          1           0       -4.313796    0.417568   -5.165413
     15          6           0       -1.901957    2.811552   -5.411773
     16          1           0       -1.142255    3.316727   -4.816601
     17          6           0       -3.756284    1.435749   -6.975995
     18          1           0       -4.470226    0.889467   -7.585237
     19          6           0       -1.994196    3.078452   -6.781995
     20          1           0       -1.330700    3.809065   -7.234957
     21          6           0       -2.922572    2.392141   -7.563799
     22          1           0       -2.990875    2.591620   -8.628827
     23          7           0       -3.614987    1.356864   -0.262405
     24          6           0       -3.293050    1.442829    1.190046
     25          1           0       -3.877424    2.254380    1.631721
     26          6           0       -1.824157    1.769428    1.512536
     27          6           0       -3.731160    0.063265    1.729021
     28          1           0       -2.885614   -0.633764    1.704079
     29          1           0       -4.073461    0.133946    2.763141
     30          8           0       -1.553881    2.369086    2.540911
     31          6           0       -4.826918   -0.392653    0.753623
     32          1           0       -4.989867   -1.473268    0.765284
     33          1           0       -5.778724    0.096997    0.987067
     34          6           0       -4.311668    0.094807   -0.607383
     35          1           0       -5.115055    0.270932   -1.328185
     36          1           0       -3.605305   -0.622263   -1.044451
     37          7           0       -0.894369    1.294697    0.639342
     38          1           0       -1.179873    0.797286   -0.190395
     39          6           0        0.530741    1.527197    0.845113
     40          1           0        0.623137    2.487306    1.363189
     41          6           0        1.280605    1.660981   -0.472023
     42          6           0        1.213650    0.449634    1.724383
     43          1           0        0.736195    0.493481    2.710077
     44          1           0        2.257352    0.756859    1.857466
     45          8           0        2.440368    1.975921   -0.559813
     46          6           0        1.148229   -0.970176    1.151525
     47          1           0        0.097291   -1.279426    1.047433
     48          1           0        1.581679   -1.004189    0.144653
     49          6           0        1.883169   -1.994032    2.025586
     50          1           0        1.448970   -2.009500    3.034657
     51          1           0        2.929986   -1.678965    2.150218
     52          6           0        1.853345   -3.417206    1.456413
     53          1           0        2.324008   -4.098873    2.185993
     54          1           0        0.809846   -3.744255    1.352874
     55          7           0        2.464115   -3.463611    0.120332
     56          1           0        2.378490   -4.403802   -0.262912
     57          1           0        3.466138   -3.290104    0.202328
     58          8           0        0.533010    1.340317   -1.575200
     59          1           0        1.158981    1.378545   -2.324335
 ---------------------------------------------------------------------

 SCF Done:  E(RB3LYP) =  -1300.52037018     A.U. after    3 cycles

 Alpha  occ. eigenvalues --  -19.29880 -19.27578 -19.23196 -19.20577 -14.60341
 Alpha  occ. eigenvalues --  -14.51507 -14.45669 -14.37389 -10.44423 -10.41958
 Alpha  occ. eigenvalues --  -10.41463 -10.38372 -10.36416 -10.35166 -10.34775
 Alpha  occ. eigenvalues --  -10.33413 -10.32713 -10.32104 -10.31791 -10.31380
 Alpha  occ. eigenvalues --  -10.31288 -10.31278 -10.30997 -10.30688 -10.26937
 Alpha  occ. eigenvalues --  -10.26338 -10.25141 -10.24661  -1.20186  -1.20120
 Alpha  occ. eigenvalues --   -1.14628  -1.12815  -1.11069  -1.08761  -1.02056
 Alpha  occ. eigenvalues --   -0.98779  -0.94705  -0.94063  -0.92123  -0.89030
 Alpha  occ. eigenvalues --   -0.87663  -0.86985  -0.86535  -0.82889  -0.80881
 Alpha  occ. eigenvalues --   -0.78117  -0.76773  -0.74774  -0.74144  -0.72761
 Alpha  occ. eigenvalues --   -0.72219  -0.72053  -0.71489  -0.70896  -0.67588
 Alpha  occ. eigenvalues --   -0.67180  -0.64903  -0.64670  -0.64255  -0.63584
 Alpha  occ. eigenvalues --   -0.63007  -0.61491  -0.59432  -0.58271  -0.58165
 Alpha  occ. eigenvalues --   -0.57617  -0.57258  -0.56438  -0.56066  -0.55066
 Alpha  occ. eigenvalues --   -0.54907  -0.54712  -0.54391  -0.53464  -0.53287
 Alpha  occ. eigenvalues --   -0.52955  -0.52511  -0.51791  -0.51568  -0.51005
 Alpha  occ. eigenvalues --   -0.50040  -0.49270  -0.48965  -0.48522  -0.48484
 Alpha  occ. eigenvalues --   -0.47762  -0.47288  -0.46860  -0.46543  -0.45745
 Alpha  occ. eigenvalues --   -0.45116  -0.43886  -0.42691  -0.42072  -0.41567
 Alpha  occ. eigenvalues --   -0.40543  -0.39727  -0.39635  -0.39532  -0.37802
 Alpha  occ. eigenvalues --   -0.37376  -0.37268  -0.34549  -0.33952  -0.29639
 Alpha virt. eigenvalues --   -0.14422  -0.13479  -0.12412  -0.10905  -0.08472
 Alpha virt. eigenvalues --   -0.07099  -0.06782  -0.05136  -0.03231  -0.03007
 Alpha virt. eigenvalues --   -0.02769  -0.01966  -0.01423  -0.00707   0.00678

 Mulliken charges:
               1
     1  N   -0.752757
     2  H    0.415785
     3  H    0.406369
     4  H    0.431941
     5  C   -0.106092
     6  H    0.206143
     7  C    0.633670
     8  C   -0.399427
     9  H    0.207153
    10  H    0.199946
    11  O   -0.525288
    12  C    0.135941
    13  C   -0.180687
    14  H    0.142785
    15  C   -0.231956
    16  H    0.151546
    17  C   -0.121614
    18  H    0.170461
    19  C   -0.119099
    20  H    0.171448
    21  C   -0.123171
    22  H    0.173409
    23  N   -0.474407
    24  C   -0.034467
    25  H    0.204885
    26  C    0.634017
    27  C   -0.317353
    28  H    0.174933
    29  H    0.202492
    30  O   -0.500068
    31  C   -0.298145
    32  H    0.185639
    33  H    0.175977
    34  C   -0.153397
    35  H    0.168000
    36  H    0.180312
    37  N   -0.619386
    38  H    0.337580
    39  C   -0.053180
    40  H    0.218322
    41  C    0.596540
    42  C   -0.269697
    43  H    0.168899
    44  H    0.174139
    45  O   -0.436737
    46  C   -0.263741
    47  H    0.110258
    48  H    0.164935
    49  C   -0.260959
    50  H    0.139275
    51  H    0.140203
    52  C   -0.139072
    53  H    0.130132
    54  H    0.131397
    55  N   -0.721299
    56  H    0.303271
    57  H    0.299813
    58  O   -0.605112
    59  H    0.419495
 Sum of Mulliken charges =   1.00000

 Dipole moment (field-independent basis, Debye):
    X=            -17.9743    Y=              6.5895    Z=            -15.4411  Tot=             24.5952
 Quadrupole moment (field-independent basis, Debye-Ang):
   XX=            -77.6847   YY=           -121.4885   ZZ=            -89.6955
   XY=            -44.9529   XZ=             54.4005   YZ=            -56.0195

 Normal termination of Gaussian 16 at Wed May 25 07:54:43 2022.
