 Gaussian 16, Revision C.01,
 Gaussian 16:  ES64L-G16RevC.01  3-Jul-2019

 -------------------------------------------------------------------
 # B3LYP/6-31G* guess=read geom=check nosymm integral(ultrafinegrid)
 -------------------------------------------------------------------

 ------------------------------------------------------
 Candidate Structure: Conf:353 Charge calc in gas phase
 ------------------------------------------------------
 Structure from the checkpoint file:  "conf-353.chk"
 Charge =  1 Multiplicity = 1

                          Input orientation:
 ---------------------------------------------------------------------
 Center     Atomic      Atomic             Coordinates (Angstroms)
 Number     Number       Type             X           Y           Z
 ---------------------------------------------------------------------
      1          7           0       -4.180300    1.762240    4.066826
      2          1           0       -5.147407    1.521266    4.294096
      3          1           0       -3.765651    2.338148    4.820724
      4          1           0       -3.598969    0.882391    3.947418
      5          6           0       -4.010799    2.437356    2.725464
      6          1           0       -5.004716    2.640248    2.320519
      7          6           0       -3.290359    1.353374    1.881496
      8          6           0       -3.206387    3.773610    2.882910
      9          1           0       -2.676392    3.953601    1.944846
     10          1           0       -3.930978    4.584657    3.010583
     11          8           0       -2.823345    0.376288    2.487340
     12          6           0       -2.220702    3.778954    4.033569
     13          6           0       -2.615945    4.271822    5.290860
     14          1           0       -3.604691    4.713056    5.415764
     15          6           0       -0.918665    3.282140    3.871447
     16          1           0       -0.605399    2.902665    2.901759
     17          6           0       -1.722554    4.264110    6.366915
     18          1           0       -2.033449    4.660334    7.329347
     19          6           0       -0.021425    3.292228    4.941444
     20          1           0        0.998867    2.940446    4.787366
     21          6           0       -0.427716    3.776542    6.189358
     22          1           0        0.272315    3.785689    7.019880
     23          7           0       -3.217694    1.513035    0.556950
     24          6           0       -2.391274    0.593829   -0.239969
     25          1           0       -2.642408   -0.440105    0.014826
     26          6           0       -0.894007    0.834688    0.081320
     27          6           0       -2.766218    0.954827   -1.694526
     28          1           0       -1.955228    0.744848   -2.396215
     29          1           0       -3.639232    0.370617   -2.005297
     30          8           0       -0.517057    1.794556    0.749449
     31          6           0       -3.114475    2.449204   -1.610320
     32          1           0       -2.200711    3.051552   -1.585243
     33          1           0       -3.729558    2.794447   -2.444645
     34          6           0       -3.848559    2.568150   -0.268129
     35          1           0       -4.920345    2.357084   -0.378504
     36          1           0       -3.734407    3.556963    0.180191
     37          7           0       -0.067923   -0.094700   -0.449014
     38          1           0       -0.423296   -0.807764   -1.076385
     39          6           0        1.384038   -0.032216   -0.331551
     40          1           0        1.654632    1.004683   -0.120087
     41          6           0        1.952537   -0.446827   -1.682779
     42          6           0        1.892489   -0.957948    0.809023
     43          1           0        1.772311   -2.000551    0.487445
     44          1           0        1.199965   -0.815095    1.645082
     45          8           0        1.331393   -1.078983   -2.511005
     46          6           0        3.338266   -0.725795    1.281891
     47          1           0        3.545075   -1.476556    2.056280
     48          1           0        4.037512   -0.930881    0.464100
     49          6           0        3.630962    0.672885    1.856612
     50          1           0        3.587787    1.429754    1.059708
     51          1           0        4.667804    0.682392    2.220048
     52          6           0        2.696250    1.093452    3.003051
     53          1           0        1.668907    1.186708    2.631473
     54          1           0        2.680610    0.309483    3.772032
     55          7           0        3.027036    2.359508    3.671413
     56          1           0        3.083678    3.107518    2.979980
     57          1           0        3.955568    2.298292    4.089059
     58          8           0        3.231314   -0.063312   -1.837944
     59          1           0        3.533793   -0.405817   -2.701950
 ---------------------------------------------------------------------

 SCF Done:  E(RB3LYP) =  -1300.53494323     A.U. after    2 cycles

 Alpha  occ. eigenvalues --  -19.29192 -19.26318 -19.23558 -19.22226 -14.58393
 Alpha  occ. eigenvalues --  -14.50121 -14.46276 -14.39068 -10.43047 -10.41564
 Alpha  occ. eigenvalues --  -10.40399 -10.39428 -10.35113 -10.35013 -10.33313
 Alpha  occ. eigenvalues --  -10.33228 -10.30874 -10.30739 -10.30527 -10.29802
 Alpha  occ. eigenvalues --  -10.29016 -10.28445 -10.28387 -10.27901 -10.27711
 Alpha  occ. eigenvalues --  -10.27700 -10.26173 -10.25511  -1.20143  -1.18814
 Alpha  occ. eigenvalues --   -1.14070  -1.12705  -1.11221  -1.07722  -1.02875
 Alpha  occ. eigenvalues --   -0.96196  -0.95436  -0.93212  -0.90822  -0.89321
 Alpha  occ. eigenvalues --   -0.87110  -0.85397  -0.84169  -0.83313  -0.79206
 Alpha  occ. eigenvalues --   -0.77489  -0.76773  -0.73356  -0.73152  -0.72199
 Alpha  occ. eigenvalues --   -0.71590  -0.71011  -0.69955  -0.68592  -0.68445
 Alpha  occ. eigenvalues --   -0.67776  -0.64674  -0.64396  -0.62653  -0.62375
 Alpha  occ. eigenvalues --   -0.60511  -0.59636  -0.58783  -0.58039  -0.57554
 Alpha  occ. eigenvalues --   -0.57219  -0.56630  -0.55932  -0.55764  -0.55314
 Alpha  occ. eigenvalues --   -0.54737  -0.54029  -0.53148  -0.52639  -0.52420
 Alpha  occ. eigenvalues --   -0.52281  -0.51422  -0.51055  -0.50895  -0.50471
 Alpha  occ. eigenvalues --   -0.49411  -0.49355  -0.48775  -0.48340  -0.47304
 Alpha  occ. eigenvalues --   -0.47102  -0.46386  -0.46031  -0.45896  -0.45566
 Alpha  occ. eigenvalues --   -0.44021  -0.43826  -0.43645  -0.42568  -0.41085
 Alpha  occ. eigenvalues --   -0.40843  -0.40637  -0.40379  -0.38310  -0.37280
 Alpha  occ. eigenvalues --   -0.35781  -0.35419  -0.35117  -0.34844  -0.31060
 Alpha virt. eigenvalues --   -0.12579  -0.11221  -0.10724  -0.09001  -0.08639
 Alpha virt. eigenvalues --   -0.08015  -0.04248  -0.03330  -0.01605  -0.01343
 Alpha virt. eigenvalues --   -0.00761  -0.00494   0.00059   0.00188   0.00754

 Mulliken charges:
               1
     1  N   -0.765077
     2  H    0.406304
     3  H    0.404810
     4  H    0.433400
     5  C   -0.096706
     6  H    0.205975
     7  C    0.642662
     8  C   -0.380109
     9  H    0.214035
    10  H    0.185258
    11  O   -0.541376
    12  C    0.093266
    13  C   -0.229966
    14  H    0.139829
    15  C   -0.203454
    16  H    0.198724
    17  C   -0.119524
    18  H    0.158773
    19  C   -0.152553
    20  H    0.223526
    21  C   -0.131231
    22  H    0.161212
    23  N   -0.433501
    24  C   -0.080014
    25  H    0.198352
    26  C    0.643965
    27  C   -0.308519
    28  H    0.188490
    29  H    0.176288
    30  O   -0.530843
    31  C   -0.307209
    32  H    0.186455
    33  H    0.183968
    34  C   -0.144326
    35  H    0.176651
    36  H    0.178370
    37  N   -0.605858
    38  H    0.354106
    39  C   -0.048110
    40  H    0.202321
    41  C    0.590815
    42  C   -0.279752
    43  H    0.154419
    44  H    0.170694
    45  O   -0.465103
    46  C   -0.271343
    47  H    0.149633
    48  H    0.159160
    49  C   -0.276641
    50  H    0.135730
    51  H    0.141942
    52  C   -0.157743
    53  H    0.156063
    54  H    0.145919
    55  N   -0.716581
    56  H    0.302539
    57  H    0.306992
    58  O   -0.553154
    59  H    0.428047
 Sum of Mulliken charges =   1.00000

 Dipole moment (field-independent basis, Debye):
    X=            -12.6175    Y=              8.9030    Z=              9.9894  Tot=             18.3916
 Quadrupole moment (field-independent basis, Debye-Ang):
   XX=            -64.8085   YY=           -138.2639   ZZ=            -97.5004
   XY=            -36.8163   XZ=            -43.4960   YZ=             27.8826

 Normal termination of Gaussian 16 at Wed May 25 07:50:21 2022.
