 Gaussian 16, Revision C.01,
 Gaussian 16:  ES64L-G16RevC.01  3-Jul-2019

 -------------------------------------------------------------------
 # B3LYP/6-31G* guess=read geom=check nosymm integral(ultrafinegrid)
 -------------------------------------------------------------------

 ------------------------------------------------------
 Candidate Structure: Conf:472 Charge calc in gas phase
 ------------------------------------------------------
 Structure from the checkpoint file:  "conf-472.chk"
 Charge =  1 Multiplicity = 1

                          Input orientation:
 ---------------------------------------------------------------------
 Center     Atomic      Atomic             Coordinates (Angstroms)
 Number     Number       Type             X           Y           Z
 ---------------------------------------------------------------------
      1          7           0       -4.666801   -0.618365   -3.433259
      2          1           0       -5.684657   -0.611074   -3.330359
      3          1           0       -4.406324   -0.912471   -4.387432
      4          1           0       -4.277775    0.352037   -3.255942
      5          6           0       -3.950815   -1.444744   -2.387560
      6          1           0       -4.697744   -2.029258   -1.846698
      7          6           0       -3.315385   -0.366422   -1.469124
      8          6           0       -2.911096   -2.393326   -3.069472
      9          1           0       -2.137449   -2.626107   -2.331143
     10          1           0       -3.417240   -3.335257   -3.304391
     11          8           0       -3.247460    0.787042   -1.917908
     12          6           0       -2.293777   -1.818483   -4.330170
     13          6           0       -2.752074   -2.249713   -5.586892
     14          1           0       -3.494342   -3.044037   -5.649219
     15          6           0       -1.301946   -0.826099   -4.272609
     16          1           0       -0.933101   -0.480988   -3.311745
     17          6           0       -2.225159   -1.704875   -6.762380
     18          1           0       -2.578366   -2.058680   -7.726342
     19          6           0       -0.776028   -0.287008   -5.446333
     20          1           0       -0.002451    0.472917   -5.388026
     21          6           0       -1.237298   -0.723017   -6.692130
     22          1           0       -0.822159   -0.302283   -7.602903
     23          7           0       -2.864254   -0.736334   -0.261813
     24          6           0       -2.318946    0.289580    0.666830
     25          1           0       -2.836334    1.235697    0.499577
     26          6           0       -0.817430    0.599169    0.491631
     27          6           0       -2.616365   -0.314107    2.054120
     28          1           0       -1.916573    0.054381    2.806576
     29          1           0       -3.627809   -0.033205    2.367647
     30          8           0       -0.354254    1.585563    1.042281
     31          6           0       -2.526137   -1.829842    1.816556
     32          1           0       -1.479825   -2.152432    1.793134
     33          1           0       -3.040011   -2.418483    2.580151
     34          6           0       -3.167712   -2.016975    0.432680
     35          1           0       -4.254534   -2.144161    0.517565
     36          1           0       -2.760467   -2.874616   -0.111142
     37          7           0       -0.082247   -0.275948   -0.247668
     38          1           0       -0.503370   -1.122352   -0.599657
     39          6           0        1.367110   -0.129327   -0.391771
     40          1           0        1.584876    0.939022   -0.459996
     41          6           0        1.824004   -0.772237   -1.690258
     42          6           0        2.137843   -0.720163    0.818172
     43          1           0        1.942990   -1.800565    0.868417
     44          1           0        1.692172   -0.266801    1.711013
     45          8           0        2.757916   -0.412925   -2.361817
     46          6           0        3.647159   -0.445940    0.807852
     47          1           0        4.107146   -0.886317   -0.086788
     48          1           0        3.807815    0.638060    0.744537
     49          6           0        4.339937   -0.987385    2.065794
     50          1           0        4.158084   -2.068954    2.147799
     51          1           0        3.902292   -0.514100    2.954007
     52          6           0        5.853759   -0.742229    2.086270
     53          1           0        6.259238   -1.171513    3.009543
     54          1           0        6.322318   -1.295579    1.251276
     55          7           0        6.160639    0.693286    2.092520
     56          1           0        6.097229    1.071665    1.149328
     57          1           0        7.124988    0.839291    2.383777
     58          8           0        1.077233   -1.876295   -2.006977
     59          1           0        1.476520   -2.250585   -2.815857
 ---------------------------------------------------------------------

 SCF Done:  E(RB3LYP) =  -1300.51558082     A.U. after    1 cycles

 Alpha  occ. eigenvalues --  -19.30173 -19.28068 -19.23882 -19.21059 -14.60415
 Alpha  occ. eigenvalues --  -14.51743 -14.46520 -14.36072 -10.44750 -10.42279
 Alpha  occ. eigenvalues --  -10.41935 -10.38845 -10.36580 -10.35619 -10.34996
 Alpha  occ. eigenvalues --  -10.33336 -10.33219 -10.32030 -10.31456 -10.31371
 Alpha  occ. eigenvalues --  -10.31232 -10.31022 -10.30880 -10.30646 -10.27239
 Alpha  occ. eigenvalues --  -10.25888 -10.24955 -10.23748  -1.20540  -1.20492
 Alpha  occ. eigenvalues --   -1.14709  -1.13379  -1.11608  -1.09048  -1.02666
 Alpha  occ. eigenvalues --   -0.98658  -0.94751  -0.92878  -0.92208  -0.89182
 Alpha  occ. eigenvalues --   -0.87861  -0.86842  -0.86721  -0.82819  -0.81142
 Alpha  occ. eigenvalues --   -0.78141  -0.76762  -0.75061  -0.73865  -0.72851
 Alpha  occ. eigenvalues --   -0.72518  -0.71707  -0.70989  -0.70840  -0.68349
 Alpha  occ. eigenvalues --   -0.67882  -0.65570  -0.64744  -0.63900  -0.63189
 Alpha  occ. eigenvalues --   -0.62611  -0.60865  -0.59920  -0.59234  -0.57915
 Alpha  occ. eigenvalues --   -0.57824  -0.57465  -0.56612  -0.56516  -0.55118
 Alpha  occ. eigenvalues --   -0.54880  -0.54454  -0.54026  -0.53812  -0.53633
 Alpha  occ. eigenvalues --   -0.53258  -0.52648  -0.52135  -0.51407  -0.51135
 Alpha  occ. eigenvalues --   -0.50256  -0.49613  -0.48677  -0.48493  -0.47945
 Alpha  occ. eigenvalues --   -0.47846  -0.46635  -0.46543  -0.46298  -0.45692
 Alpha  occ. eigenvalues --   -0.44950  -0.44071  -0.43333  -0.42352  -0.41961
 Alpha  occ. eigenvalues --   -0.40507  -0.40074  -0.39429  -0.38975  -0.37745
 Alpha  occ. eigenvalues --   -0.37620  -0.37306  -0.35040  -0.34186  -0.28361
 Alpha virt. eigenvalues --   -0.14696  -0.13327  -0.13026  -0.10977  -0.09337
 Alpha virt. eigenvalues --   -0.07559  -0.06958  -0.06224  -0.03588  -0.03138
 Alpha virt. eigenvalues --   -0.02334  -0.01692  -0.01129  -0.00237   0.00689

 Mulliken charges:
               1
     1  N   -0.761640
     2  H    0.412606
     3  H    0.408295
     4  H    0.437610
     5  C   -0.090206
     6  H    0.209518
     7  C    0.624176
     8  C   -0.383883
     9  H    0.203056
    10  H    0.192712
    11  O   -0.524109
    12  C    0.094671
    13  C   -0.216963
    14  H    0.150710
    15  C   -0.180561
    16  H    0.161572
    17  C   -0.119432
    18  H    0.170436
    19  C   -0.130159
    20  H    0.176965
    21  C   -0.122240
    22  H    0.173971
    23  N   -0.472374
    24  C   -0.058793
    25  H    0.215044
    26  C    0.632807
    27  C   -0.303053
    28  H    0.208851
    29  H    0.173107
    30  O   -0.498105
    31  C   -0.312442
    32  H    0.177321
    33  H    0.189016
    34  C   -0.156199
    35  H    0.176904
    36  H    0.177058
    37  N   -0.636232
    38  H    0.342528
    39  C   -0.031088
    40  H    0.214249
    41  C    0.584876
    42  C   -0.275205
    43  H    0.135396
    44  H    0.175943
    45  O   -0.435588
    46  C   -0.278450
    47  H    0.147438
    48  H    0.158919
    49  C   -0.237460
    50  H    0.122329
    51  H    0.148848
    52  C   -0.147798
    53  H    0.146955
    54  H    0.117856
    55  N   -0.716790
    56  H    0.298932
    57  H    0.306285
    58  O   -0.601431
    59  H    0.423242
 Sum of Mulliken charges =   1.00000

 Dipole moment (field-independent basis, Debye):
    X=            -16.7658    Y=            -10.1841    Z=            -12.9945  Tot=             23.5301
 Quadrupole moment (field-independent basis, Debye-Ang):
   XX=            -61.1922   YY=           -153.7239   ZZ=            -92.3893
   XY=             22.6622   XZ=             50.2272   YZ=             12.5205

 Normal termination of Gaussian 16 at Wed May 25 07:54:25 2022.
