 Gaussian 16, Revision C.01,
 Gaussian 16:  ES64L-G16RevC.01  3-Jul-2019

 -------------------------------------------------------------------
 # B3LYP/6-31G* guess=read geom=check nosymm integral(ultrafinegrid)
 -------------------------------------------------------------------

 ------------------------------------------------------
 Candidate Structure: Conf:961 Charge calc in gas phase
 ------------------------------------------------------
 Structure from the checkpoint file:  "conf-961.chk"
 Charge =  1 Multiplicity = 1

                          Input orientation:
 ---------------------------------------------------------------------
 Center     Atomic      Atomic             Coordinates (Angstroms)
 Number     Number       Type             X           Y           Z
 ---------------------------------------------------------------------
      1          7           0       -3.380696    4.606465   -0.901830
      2          1           0       -4.271881    5.107900   -0.936814
      3          1           0       -2.709757    5.083676   -1.524191
      4          1           0       -3.049798    4.571288    0.101895
      5          6           0       -3.505525    3.143727   -1.267285
      6          1           0       -4.472027    3.006618   -1.756483
      7          6           0       -3.428788    2.434196    0.112101
      8          6           0       -2.342318    2.730245   -2.212746
      9          1           0       -1.432575    2.611044   -1.615344
     10          1           0       -2.597842    1.748188   -2.623048
     11          8           0       -3.108509    3.129190    1.087502
     12          6           0       -2.105732    3.733383   -3.322908
     13          6           0       -2.955870    3.807813   -4.436809
     14          1           0       -3.774773    3.099079   -4.543606
     15          6           0       -1.040539    4.643669   -3.216811
     16          1           0       -0.347764    4.560579   -2.380806
     17          6           0       -2.743906    4.769069   -5.424132
     18          1           0       -3.399942    4.808093   -6.288751
     19          6           0       -0.833097    5.611002   -4.206022
     20          1           0        0.001868    6.300079   -4.119914
     21          6           0       -1.685191    5.675329   -5.308025
     22          1           0       -1.521223    6.420519   -6.080512
     23          7           0       -3.629929    1.111753    0.183806
     24          6           0       -3.502966    0.426767    1.500749
     25          1           0       -4.190982    0.894261    2.210607
     26          6           0       -2.111421    0.529349    2.148416
     27          6           0       -3.916740   -1.025597    1.181076
     28          1           0       -3.034457   -1.611783    0.899707
     29          1           0       -4.375057   -1.505837    2.047562
     30          8           0       -2.003659    0.459026    3.361219
     31          6           0       -4.869599   -0.885213   -0.015717
     32          1           0       -4.980279   -1.809876   -0.587699
     33          1           0       -5.864428   -0.571510    0.319068
     34          6           0       -4.223657    0.229902   -0.849313
     35          1           0       -4.944357    0.775461   -1.465346
     36          1           0       -3.439476   -0.170614   -1.503329
     37          7           0       -1.052695    0.617433    1.289898
     38          1           0       -1.234308    0.836834    0.320517
     39          6           0        0.278278    0.956473    1.770987
     40          1           0        0.165414    1.326442    2.796683
     41          6           0        0.811212    2.101544    0.918020
     42          6           0        1.249576   -0.247895    1.805344
     43          1           0        0.808432   -0.977155    2.492586
     44          1           0        2.190117    0.088226    2.256946
     45          8           0        0.258359    2.562619   -0.067222
     46          6           0        1.522886   -0.885205    0.436086
     47          1           0        0.577986   -1.251266    0.009137
     48          1           0        1.897646   -0.116678   -0.255531
     49          6           0        2.544805   -2.032700    0.480967
     50          1           0        3.489762   -1.681658    0.913902
     51          1           0        2.774143   -2.334217   -0.551066
     52          6           0        2.085536   -3.271210    1.258740
     53          1           0        1.920710   -3.011914    2.311571
     54          1           0        1.105640   -3.602682    0.861207
     55          7           0        3.129494   -4.296379    1.223658
     56          1           0        3.221122   -4.669633    0.279735
     57          1           0        2.872706   -5.082537    1.817392
     58          8           0        1.988524    2.550774    1.369981
     59          1           0        2.286729    3.263599    0.773365
 ---------------------------------------------------------------------

 SCF Done:  E(RB3LYP) =  -1300.52690894     A.U. after    1 cycles

 Alpha  occ. eigenvalues --  -19.30453 -19.27383 -19.25494 -19.20984 -14.59632
 Alpha  occ. eigenvalues --  -14.51270 -14.45696 -14.36785 -10.44179 -10.43155
 Alpha  occ. eigenvalues --  -10.41434 -10.38633 -10.36135 -10.34766 -10.34062
 Alpha  occ. eigenvalues --  -10.33328 -10.32684 -10.31282 -10.31218 -10.31092
 Alpha  occ. eigenvalues --  -10.30775 -10.30745 -10.30570 -10.30461 -10.27215
 Alpha  occ. eigenvalues --  -10.26884 -10.26403 -10.24728  -1.21683  -1.19917
 Alpha  occ. eigenvalues --   -1.14070  -1.13211  -1.12534  -1.08554  -1.02351
 Alpha  occ. eigenvalues --   -0.98092  -0.94186  -0.93696  -0.91741  -0.89380
 Alpha  occ. eigenvalues --   -0.87559  -0.86561  -0.86310  -0.83500  -0.80278
 Alpha  occ. eigenvalues --   -0.77894  -0.76697  -0.74237  -0.73396  -0.73133
 Alpha  occ. eigenvalues --   -0.72190  -0.71819  -0.71235  -0.70524  -0.68952
 Alpha  occ. eigenvalues --   -0.67673  -0.64615  -0.64218  -0.63838  -0.63201
 Alpha  occ. eigenvalues --   -0.62404  -0.61045  -0.60046  -0.59030  -0.57750
 Alpha  occ. eigenvalues --   -0.57536  -0.57311  -0.56536  -0.56341  -0.55081
 Alpha  occ. eigenvalues --   -0.54759  -0.54458  -0.53933  -0.53770  -0.53270
 Alpha  occ. eigenvalues --   -0.52785  -0.52573  -0.52172  -0.51212  -0.50536
 Alpha  occ. eigenvalues --   -0.50356  -0.49946  -0.49350  -0.48654  -0.48018
 Alpha  occ. eigenvalues --   -0.47569  -0.47420  -0.46277  -0.45856  -0.45611
 Alpha  occ. eigenvalues --   -0.45214  -0.44763  -0.43571  -0.42838  -0.41871
 Alpha  occ. eigenvalues --   -0.41118  -0.40250  -0.39665  -0.39365  -0.38453
 Alpha  occ. eigenvalues --   -0.37178  -0.36771  -0.35251  -0.34560  -0.28998
 Alpha virt. eigenvalues --   -0.13933  -0.12829  -0.12015  -0.10436  -0.09911
 Alpha virt. eigenvalues --   -0.07503  -0.06306  -0.03993  -0.02831  -0.02531
 Alpha virt. eigenvalues --   -0.01988  -0.01348  -0.01264  -0.00047   0.00781

 Mulliken charges:
               1
     1  N   -0.754718
     2  H    0.413460
     3  H    0.406731
     4  H    0.433256
     5  C   -0.100301
     6  H    0.206102
     7  C    0.624936
     8  C   -0.423948
     9  H    0.242498
    10  H    0.192481
    11  O   -0.526535
    12  C    0.126739
    13  C   -0.181525
    14  H    0.140133
    15  C   -0.230922
    16  H    0.166548
    17  C   -0.123338
    18  H    0.167597
    19  C   -0.120501
    20  H    0.167169
    21  C   -0.123400
    22  H    0.170212
    23  N   -0.477017
    24  C   -0.027852
    25  H    0.205216
    26  C    0.620166
    27  C   -0.313502
    28  H    0.174425
    29  H    0.201601
    30  O   -0.495148
    31  C   -0.300176
    32  H    0.185054
    33  H    0.176246
    34  C   -0.149255
    35  H    0.169138
    36  H    0.180921
    37  N   -0.603528
    38  H    0.335775
    39  C   -0.060218
    40  H    0.220427
    41  C    0.596127
    42  C   -0.264158
    43  H    0.175061
    44  H    0.172198
    45  O   -0.503020
    46  C   -0.279605
    47  H    0.125000
    48  H    0.133347
    49  C   -0.249156
    50  H    0.158498
    51  H    0.132376
    52  C   -0.133476
    53  H    0.146088
    54  H    0.104554
    55  N   -0.713523
    56  H    0.296443
    57  H    0.304452
    58  O   -0.540450
    59  H    0.424296
 Sum of Mulliken charges =   1.00000

 Dipole moment (field-independent basis, Debye):
    X=            -14.5951    Y=             13.9212    Z=             -9.5258  Tot=             22.3060
 Quadrupole moment (field-independent basis, Debye-Ang):
   XX=            -96.3941   YY=            -69.1634   ZZ=           -148.8332
   XY=            -36.6126   XZ=             26.5096   YZ=            -37.6830

 Normal termination of Gaussian 16 at Wed May 25 07:54:28 2022.
