 Gaussian 16, Revision C.01,
 Gaussian 16:  ES64L-G16RevC.01  3-Jul-2019

 -------------------------------------------------------------------
 # B3LYP/6-31G* guess=read geom=check nosymm integral(ultrafinegrid)
 -------------------------------------------------------------------

 -----------------------------------------------------
 Candidate Structure: Conf:34 Charge calc in gas phase
 -----------------------------------------------------
 Structure from the checkpoint file:  "conf-34.chk"
 Charge =  1 Multiplicity = 1

                          Input orientation:
 ---------------------------------------------------------------------
 Center     Atomic      Atomic             Coordinates (Angstroms)
 Number     Number       Type             X           Y           Z
 ---------------------------------------------------------------------
      1          7           0       -4.685913    2.698457    3.426469
      2          1           0       -5.664778    2.405333    3.488411
      3          1           0       -4.535431    3.505570    4.051511
      4          1           0       -4.071706    1.876491    3.672210
      5          6           0       -4.246961    3.019379    2.015117
      6          1           0       -5.124054    3.340823    1.451304
      7          6           0       -3.631800    1.686791    1.529547
      8          6           0       -3.166463    4.134265    2.070978
      9          1           0       -2.254779    3.705628    2.500924
     10          1           0       -2.912633    4.399589    1.040927
     11          8           0       -3.239839    0.907595    2.413239
     12          6           0       -3.630911    5.342016    2.857895
     13          6           0       -4.526664    6.267230    2.299860
     14          1           0       -4.852363    6.151061    1.268084
     15          6           0       -3.206961    5.526922    4.184393
     16          1           0       -2.472967    4.848061    4.616185
     17          6           0       -4.984494    7.350537    3.048019
     18          1           0       -5.666463    8.066415    2.598668
     19          6           0       -3.670656    6.611699    4.936560
     20          1           0       -3.321979    6.749405    5.955788
     21          6           0       -4.561052    7.522354    4.369634
     22          1           0       -4.916414    8.369439    4.948486
     23          7           0       -3.502941    1.465569    0.220267
     24          6           0       -2.580608    0.414435   -0.235413
     25          1           0       -2.827927   -0.536193    0.244202
     26          6           0       -1.136845    0.839958    0.144616
     27          6           0       -2.801959    0.397487   -1.762034
     28          1           0       -1.929613    0.019018   -2.301035
     29          1           0       -3.653756   -0.247876   -2.003202
     30          8           0       -0.878858    1.993459    0.476891
     31          6           0       -3.117688    1.867241   -2.085156
     32          1           0       -2.193803    2.451560   -2.125433
     33          1           0       -3.646115    1.993807   -3.032979
     34          6           0       -3.967108    2.328378   -0.889869
     35          1           0       -5.036145    2.154191   -1.064071
     36          1           0       -3.816887    3.387278   -0.666111
     37          7           0       -0.227505   -0.156368    0.050128
     38          1           0       -0.497554   -1.037068   -0.375087
     39          6           0        1.212627    0.063184    0.127713
     40          1           0        1.391731    1.139150    0.039033
     41          6           0        1.832561   -0.650979   -1.069730
     42          6           0        1.836169   -0.445101    1.449140
     43          1           0        2.919722   -0.312909    1.369115
     44          1           0        1.644590   -1.524433    1.534932
     45          8           0        1.238121   -1.441575   -1.773640
     46          6           0        1.308900    0.290447    2.686473
     47          1           0        1.568756    1.351326    2.603425
     48          1           0        0.213795    0.225626    2.711625
     49          6           0        1.867154   -0.262806    4.008107
     50          1           0        1.568919   -1.313314    4.133024
     51          1           0        1.397261    0.284820    4.838431
     52          6           0        3.392235   -0.171516    4.158567
     53          1           0        3.670871   -0.599357    5.137688
     54          1           0        3.877938   -0.800496    3.402588
     55          7           0        3.861654    1.204068    3.952111
     56          1           0        4.879796    1.228312    3.965097
     57          1           0        3.559193    1.789204    4.730686
     58          8           0        3.125252   -0.327485   -1.235522
     59          1           0        3.459227   -0.847725   -1.991752
 ---------------------------------------------------------------------

 SCF Done:  E(RB3LYP) =  -1300.53305362     A.U. after    1 cycles

 Alpha  occ. eigenvalues --  -19.28251 -19.26086 -19.22810 -19.21419 -14.59381
 Alpha  occ. eigenvalues --  -14.49859 -14.45471 -14.37237 -10.42938 -10.40738
 Alpha  occ. eigenvalues --  -10.40554 -10.38655 -10.34856 -10.34512 -10.33447
 Alpha  occ. eigenvalues --  -10.32249 -10.32172 -10.30943 -10.30681 -10.30329
 Alpha  occ. eigenvalues --  -10.30259 -10.30255 -10.30091 -10.29981 -10.26697
 Alpha  occ. eigenvalues --  -10.26291 -10.24560 -10.24514  -1.19313  -1.18748
 Alpha  occ. eigenvalues --   -1.13806  -1.12992  -1.10394  -1.07452  -1.02097
 Alpha  occ. eigenvalues --   -0.97585  -0.93912  -0.93480  -0.91127  -0.88407
 Alpha  occ. eigenvalues --   -0.86864  -0.85928  -0.85656  -0.82630  -0.79645
 Alpha  occ. eigenvalues --   -0.77013  -0.76059  -0.73682  -0.73072  -0.72456
 Alpha  occ. eigenvalues --   -0.71702  -0.71031  -0.70154  -0.69903  -0.67505
 Alpha  occ. eigenvalues --   -0.66980  -0.64496  -0.63307  -0.62898  -0.62566
 Alpha  occ. eigenvalues --   -0.61804  -0.59004  -0.57992  -0.57731  -0.57425
 Alpha  occ. eigenvalues --   -0.56825  -0.56283  -0.55987  -0.55429  -0.55082
 Alpha  occ. eigenvalues --   -0.54148  -0.53982  -0.53348  -0.52883  -0.52718
 Alpha  occ. eigenvalues --   -0.52569  -0.51296  -0.51161  -0.50605  -0.49923
 Alpha  occ. eigenvalues --   -0.49652  -0.49015  -0.48601  -0.47466  -0.47265
 Alpha  occ. eigenvalues --   -0.46903  -0.46316  -0.45700  -0.45524  -0.45358
 Alpha  occ. eigenvalues --   -0.44568  -0.43912  -0.43159  -0.40841  -0.40692
 Alpha  occ. eigenvalues --   -0.40244  -0.39526  -0.38833  -0.37906  -0.36707
 Alpha  occ. eigenvalues --   -0.36314  -0.36238  -0.35098  -0.34830  -0.29459
 Alpha virt. eigenvalues --   -0.13339  -0.12333  -0.11174  -0.09713  -0.07758
 Alpha virt. eigenvalues --   -0.07428  -0.04805  -0.03057  -0.01720  -0.01272
 Alpha virt. eigenvalues --   -0.01254  -0.00290   0.00016   0.00708   0.01316

 Mulliken charges:
               1
     1  N   -0.749428
     2  H    0.412308
     3  H    0.404021
     4  H    0.426684
     5  C   -0.119702
     6  H    0.203829
     7  C    0.655159
     8  C   -0.384078
     9  H    0.215360
    10  H    0.214906
    11  O   -0.545824
    12  C    0.132544
    13  C   -0.180395
    14  H    0.141144
    15  C   -0.227928
    16  H    0.152981
    17  C   -0.122262
    18  H    0.166505
    19  C   -0.119678
    20  H    0.166709
    21  C   -0.124015
    22  H    0.168896
    23  N   -0.432267
    24  C   -0.090206
    25  H    0.196794
    26  C    0.646413
    27  C   -0.302884
    28  H    0.191978
    29  H    0.175631
    30  O   -0.538975
    31  C   -0.312015
    32  H    0.189663
    33  H    0.181342
    34  C   -0.135199
    35  H    0.176841
    36  H    0.167935
    37  N   -0.595246
    38  H    0.350646
    39  C   -0.062882
    40  H    0.207094
    41  C    0.586445
    42  C   -0.268393
    43  H    0.183010
    44  H    0.138619
    45  O   -0.470762
    46  C   -0.247563
    47  H    0.162829
    48  H    0.134438
    49  C   -0.266409
    50  H    0.135025
    51  H    0.125229
    52  C   -0.141203
    53  H    0.126398
    54  H    0.143305
    55  N   -0.718106
    56  H    0.306273
    57  H    0.293996
    58  O   -0.552351
    59  H    0.426819
 Sum of Mulliken charges =   1.00000

 Dipole moment (field-independent basis, Debye):
    X=            -16.9606    Y=             13.0681    Z=             10.0710  Tot=             23.6614
 Quadrupole moment (field-independent basis, Debye-Ang):
   XX=            -48.8105   YY=            -98.9258   ZZ=           -100.4635
   XY=            -72.8866   XZ=            -39.7972   YZ=             44.4617

 Normal termination of Gaussian 16 at Wed May 25 07:50:14 2022.
