 Gaussian 16, Revision C.01,
 Gaussian 16:  ES64L-G16RevC.01  3-Jul-2019

 -------------------------------------------------------------------
 # B3LYP/6-31G* guess=read geom=check nosymm integral(ultrafinegrid)
 -------------------------------------------------------------------

 ------------------------------------------------------
 Candidate Structure: Conf:667 Charge calc in gas phase
 ------------------------------------------------------
 Structure from the checkpoint file:  "conf-667.chk"
 Charge =  1 Multiplicity = 1

                          Input orientation:
 ---------------------------------------------------------------------
 Center     Atomic      Atomic             Coordinates (Angstroms)
 Number     Number       Type             X           Y           Z
 ---------------------------------------------------------------------
      1          7           0       -2.570194    4.108521   -0.656798
      2          1           0       -1.649391    3.636551   -0.731656
      3          1           0       -2.510767    5.011127   -0.166973
      4          1           0       -2.957531    4.245602   -1.602875
      5          6           0       -3.485796    3.145144    0.062765
      6          1           0       -2.928281    2.802407    0.932527
      7          6           0       -3.741469    2.063428   -1.005628
      8          6           0       -4.781340    3.864476    0.486965
      9          1           0       -5.342301    4.126523   -0.416103
     10          1           0       -5.387481    3.135323    1.037046
     11          8           0       -4.223147    2.456308   -2.069240
     12          6           0       -4.502847    5.088330    1.337467
     13          6           0       -4.197480    4.961554    2.701113
     14          1           0       -4.212583    3.979018    3.168732
     15          6           0       -4.501176    6.369163    0.762103
     16          1           0       -4.778085    6.492132   -0.283800
     17          6           0       -3.899836    6.085817    3.470181
     18          1           0       -3.678444    5.973014    4.527459
     19          6           0       -4.199535    7.496551    1.532066
     20          1           0       -4.216668    8.481707    1.075264
     21          6           0       -3.896526    7.355552    2.886138
     22          1           0       -3.669407    8.230606    3.487564
     23          7           0       -3.444161    0.771986   -0.748653
     24          6           0       -2.547767    0.265747    0.301369
     25          1           0       -2.883211    0.588531    1.294331
     26          6           0       -1.111427    0.832657    0.097838
     27          6           0       -2.702392   -1.261477    0.138559
     28          1           0       -1.887619   -1.843342    0.576418
     29          1           0       -3.623661   -1.572903    0.642401
     30          8           0       -0.931069    1.926259   -0.457764
     31          6           0       -2.827910   -1.435770   -1.381929
     32          1           0       -1.838085   -1.372902   -1.848316
     33          1           0       -3.273403   -2.392895   -1.662580
     34          6           0       -3.697563   -0.244526   -1.803124
     35          1           0       -4.765268   -0.487960   -1.809588
     36          1           0       -3.442049    0.168115   -2.781326
     37          7           0       -0.087970    0.126645    0.601996
     38          1           0       -0.246716   -0.801145    0.968960
     39          6           0        1.303061    0.564543    0.451843
     40          1           0        1.379739    1.597725    0.799908
     41          6           0        1.738372    0.579931   -1.015383
     42          6           0        2.220784   -0.342548    1.298817
     43          1           0        2.213150   -1.355420    0.870557
     44          1           0        1.782695   -0.398997    2.302360
     45          8           0        2.540344    1.356396   -1.472987
     46          6           0        3.656957    0.182655    1.420770
     47          1           0        4.081371    0.359040    0.426162
     48          1           0        3.622894    1.153222    1.927950
     49          6           0        4.588917   -0.760849    2.198869
     50          1           0        5.573934   -0.279378    2.269451
     51          1           0        4.747595   -1.687910    1.631205
     52          6           0        4.110532   -1.134755    3.608770
     53          1           0        3.229426   -1.786355    3.541825
     54          1           0        4.898813   -1.736128    4.092850
     55          7           0        3.714415    0.057736    4.370774
     56          1           0        4.529809    0.653767    4.515288
     57          1           0        3.408639   -0.218363    5.302850
     58          8           0        1.171736   -0.422081   -1.732666
     59          1           0        1.552114   -0.363758   -2.630432
 ---------------------------------------------------------------------

 SCF Done:  E(RB3LYP) =  -1300.53838360     A.U. after    1 cycles

 Alpha  occ. eigenvalues --  -19.29491 -19.25863 -19.24608 -19.23500 -14.58216
 Alpha  occ. eigenvalues --  -14.49603 -14.49436 -14.38502 -10.42588 -10.41996
 Alpha  occ. eigenvalues --  -10.41693 -10.39170 -10.37396 -10.34631 -10.33271
 Alpha  occ. eigenvalues --  -10.32584 -10.32062 -10.31419 -10.30421 -10.30201
 Alpha  occ. eigenvalues --  -10.29999 -10.29615 -10.29564 -10.29302 -10.28803
 Alpha  occ. eigenvalues --  -10.27853 -10.26067 -10.25563  -1.20217  -1.17891
 Alpha  occ. eigenvalues --   -1.16742  -1.12741  -1.11238  -1.07261  -1.05657
 Alpha  occ. eigenvalues --   -0.96837  -0.95137  -0.92919  -0.91530  -0.90003
 Alpha  occ. eigenvalues --   -0.87388  -0.85508  -0.85145  -0.83794  -0.79457
 Alpha  occ. eigenvalues --   -0.77768  -0.76826  -0.74348  -0.72915  -0.72153
 Alpha  occ. eigenvalues --   -0.72076  -0.71229  -0.70795  -0.70441  -0.69205
 Alpha  occ. eigenvalues --   -0.68030  -0.65439  -0.64229  -0.63223  -0.61823
 Alpha  occ. eigenvalues --   -0.61362  -0.61033  -0.59304  -0.58930  -0.57411
 Alpha  occ. eigenvalues --   -0.56964  -0.56680  -0.56214  -0.56011  -0.55873
 Alpha  occ. eigenvalues --   -0.55063  -0.54859  -0.53881  -0.53539  -0.52961
 Alpha  occ. eigenvalues --   -0.52705  -0.52455  -0.51971  -0.51151  -0.50724
 Alpha  occ. eigenvalues --   -0.50375  -0.49594  -0.49071  -0.48742  -0.47549
 Alpha  occ. eigenvalues --   -0.47357  -0.46918  -0.46667  -0.45956  -0.45779
 Alpha  occ. eigenvalues --   -0.44954  -0.44827  -0.44777  -0.41807  -0.41656
 Alpha  occ. eigenvalues --   -0.40701  -0.40505  -0.40072  -0.39568  -0.38800
 Alpha  occ. eigenvalues --   -0.37028  -0.36234  -0.35937  -0.35509  -0.30829
 Alpha virt. eigenvalues --   -0.13131  -0.11658  -0.11308  -0.10447  -0.08769
 Alpha virt. eigenvalues --   -0.06630  -0.05020  -0.03881  -0.01980  -0.01941
 Alpha virt. eigenvalues --   -0.01006  -0.00195   0.00253   0.00368   0.01402

 Mulliken charges:
               1
     1  N   -0.742716
     2  H    0.446908
     3  H    0.403089
     4  H    0.412216
     5  C   -0.090512
     6  H    0.187183
     7  C    0.626647
     8  C   -0.370862
     9  H    0.201953
    10  H    0.193690
    11  O   -0.522354
    12  C    0.130752
    13  C   -0.179460
    14  H    0.136307
    15  C   -0.223909
    16  H    0.146367
    17  C   -0.122981
    18  H    0.161823
    19  C   -0.120410
    20  H    0.164232
    21  C   -0.124553
    22  H    0.165588
    23  N   -0.440410
    24  C   -0.105273
    25  H    0.190712
    26  C    0.667052
    27  C   -0.309152
    28  H    0.162632
    29  H    0.184546
    30  O   -0.578085
    31  C   -0.317934
    32  H    0.179261
    33  H    0.186532
    34  C   -0.120162
    35  H    0.188574
    36  H    0.199466
    37  N   -0.609356
    38  H    0.353481
    39  C   -0.004929
    40  H    0.195189
    41  C    0.599009
    42  C   -0.324691
    43  H    0.151783
    44  H    0.178165
    45  O   -0.441758
    46  C   -0.254904
    47  H    0.162529
    48  H    0.158086
    49  C   -0.277787
    50  H    0.147932
    51  H    0.142381
    52  C   -0.139918
    53  H    0.132478
    54  H    0.136148
    55  N   -0.726844
    56  H    0.302427
    57  H    0.305325
    58  O   -0.576944
    59  H    0.425440
 Sum of Mulliken charges =   1.00000

 Dipole moment (field-independent basis, Debye):
    X=             -8.8324    Y=              8.9491    Z=              4.5548  Tot=             13.3732
 Quadrupole moment (field-independent basis, Debye-Ang):
   XX=           -118.5638   YY=            -85.0147   ZZ=           -136.8399
   XY=            -40.1502   XZ=              3.5759   YZ=             12.1939

 Normal termination of Gaussian 16 at Wed May 25 07:54:27 2022.
