 Gaussian 16, Revision C.01,
 Gaussian 16:  ES64L-G16RevC.01  3-Jul-2019

 ----------------------------------------------------------------------
 # B3LYP/6-31G* empiricaldispersion=gd3 guess=read geom=check nosymm in
 tegral(ultrafinegrid)
 ----------------------------------------------------------------------

 ------------------------------------------------------
 Candidate Structure: Conf:156 Charge calc in gas phase
 ------------------------------------------------------
 Structure from the checkpoint file:  "conf-156.chk"
 Charge =  1 Multiplicity = 1

                          Input orientation:
 ---------------------------------------------------------------------
 Center     Atomic      Atomic             Coordinates (Angstroms)
 Number     Number       Type             X           Y           Z
 ---------------------------------------------------------------------
      1          7           0       -0.301449   -1.523831    3.911051
      2          1           0        0.131741   -2.060289    3.164021
      3          1           0        0.389554   -0.901194    4.317936
      4          6           0       -1.513130   -0.843930    3.494397
      5          1           0       -1.759653   -0.109004    4.272661
      6          6           0       -1.472457   -0.046915    2.163689
      7          6           0       -2.648890   -1.898803    3.467278
      8          1           0       -2.655102   -2.441452    4.412362
      9          1           0       -2.461200   -2.610642    2.655120
     10          8           0       -2.526978    0.336974    1.614009
     11          6           0       -4.030149   -1.201447    3.257010
     12          1           0       -3.864931   -0.465520    2.413644
     13          1           0       -4.363519   -0.669909    4.154786
     14          6           0       -5.051656   -2.093801    2.854643
     15          8           0       -5.825843   -2.726296    2.316704
     16          8           0       -5.070859   -3.137269    5.085876
     17          7           0       -0.265468    0.219648    1.669927
     18          1           0        0.591026   -0.054892    2.148370
     19          6           0       -0.024384    1.024027    0.480595
     20          1           0       -0.666306    1.910463    0.516151
     21          6           0        1.461140    1.428425    0.571331
     22          6           0       -0.346920    0.227080   -0.817237
     23          1           0        0.299169   -0.657859   -0.845282
     24          1           0       -1.381536   -0.119022   -0.715516
     25          8           0        2.219266    0.831258    1.343229
     26          6           0       -0.176534    1.055722   -2.068282
     27          6           0       -1.035225    2.137052   -2.327402
     28          1           0       -1.875190    2.326180   -1.661768
     29          6           0        0.884258    0.831690   -2.951994
     30          1           0        1.568178    0.005821   -2.772413
     31          6           0       -0.833640    2.977002   -3.416776
     32          1           0       -1.492362    3.815857   -3.615032
     33          6           0        1.095058    1.659301   -4.054358
     34          1           0        1.924395    1.465330   -4.731421
     35          8           0        0.386730    3.598848   -5.332822
     36          1           0        1.161578    3.346120   -5.858657
     37          6           0        0.240191    2.743184   -4.286028
     38          7           0        1.843232    2.437705   -0.228404
     39          1           0        1.200213    2.822939   -0.913091
     40          6           0        3.238668    2.839512   -0.366444
     41          1           0        3.678637    2.942316    0.629606
     42          6           0        3.225131    4.190053   -1.067540
     43          6           0        4.050226    1.797872   -1.179090
     44          1           0        3.857218    0.828484   -0.706165
     45          1           0        3.630911    1.754295   -2.192384
     46          8           0        2.335734    4.561966   -1.803332
     47          6           0        5.560094    2.049747   -1.224774
     48          1           0        5.946672    2.125710   -0.198126
     49          1           0        5.764328    3.015387   -1.701115
     50          6           0        6.309700    0.939701   -1.970737
     51          1           0        6.094072   -0.029556   -1.497425
     52          1           0        5.930049    0.872260   -3.002134
     53          6           0        7.836450    1.147932   -2.008971
     54          1           0        8.223510    1.170819   -0.981501
     55          1           0        8.301016    0.279933   -2.492967
     56          7           0        8.323517    2.348532   -2.690027
     57          1           0        7.988211    3.188811   -2.223548
     58          1           0        7.967819    2.382290   -3.644520
     59          8           0        4.332789    4.908018   -0.807953
     60          1           0       -5.802764   -2.966592    5.700591
     61          1           0       -4.936070   -4.097569    5.130525
     62          1           0        4.267582    5.734917   -1.324271
 ---------------------------------------------------------------------

 SCF Done:  E(RB3LYP) =  -1526.20243320     A.U. after    3 cycles

 Alpha  occ. eigenvalues --  -19.44904 -19.31113 -19.28160 -19.24758 -19.24455
 Alpha  occ. eigenvalues --  -19.22514 -19.21178 -14.47489 -14.44853 -14.44601
 Alpha  occ. eigenvalues --  -14.36071 -10.54846 -10.40913 -10.40496 -10.39612
 Alpha  occ. eigenvalues --  -10.38174 -10.36562 -10.35583 -10.33509 -10.32357
 Alpha  occ. eigenvalues --  -10.32059 -10.28505 -10.27021 -10.26895 -10.26802
 Alpha  occ. eigenvalues --  -10.26459 -10.26352 -10.25931 -10.25634 -10.24814
 Alpha  occ. eigenvalues --  -10.23912  -1.35324  -1.19108  -1.16578  -1.15728
 Alpha  occ. eigenvalues --   -1.13026  -1.12960  -1.10187  -1.04438  -1.02128
 Alpha  occ. eigenvalues --   -1.01674  -0.99049  -0.93264  -0.92871  -0.88820
 Alpha  occ. eigenvalues --   -0.87352  -0.86649  -0.82767  -0.82368  -0.81512
 Alpha  occ. eigenvalues --   -0.77303  -0.75996  -0.74701  -0.73936  -0.71405
 Alpha  occ. eigenvalues --   -0.70416  -0.69585  -0.69057  -0.68621  -0.68339
 Alpha  occ. eigenvalues --   -0.67706  -0.66618  -0.66536  -0.66193  -0.65353
 Alpha  occ. eigenvalues --   -0.63954  -0.62672  -0.61881  -0.61457  -0.60006
 Alpha  occ. eigenvalues --   -0.58656  -0.57219  -0.56685  -0.56466  -0.55503
 Alpha  occ. eigenvalues --   -0.55128  -0.54791  -0.54503  -0.54212  -0.54053
 Alpha  occ. eigenvalues --   -0.53467  -0.53224  -0.52435  -0.52047  -0.51947
 Alpha  occ. eigenvalues --   -0.51285  -0.50522  -0.49804  -0.49412  -0.49175
 Alpha  occ. eigenvalues --   -0.48440  -0.48396  -0.47613  -0.47433  -0.46757
 Alpha  occ. eigenvalues --   -0.46392  -0.46280  -0.45020  -0.44506  -0.44258
 Alpha  occ. eigenvalues --   -0.43546  -0.41840  -0.41234  -0.41011  -0.40708
 Alpha  occ. eigenvalues --   -0.40391  -0.40090  -0.39000  -0.38589  -0.37484
 Alpha  occ. eigenvalues --   -0.36313  -0.35317  -0.35066  -0.34240  -0.32738
 Alpha  occ. eigenvalues --   -0.29100  -0.28020
 Alpha virt. eigenvalues --   -0.22526  -0.20784  -0.10334  -0.08943  -0.08012
 Alpha virt. eigenvalues --   -0.07752  -0.07040  -0.06195  -0.04590  -0.03802
 Alpha virt. eigenvalues --   -0.01969  -0.00229   0.00336   0.00462   0.01030

 Mulliken charges:
               1
     1  N   -0.724350
     2  H    0.324834
     3  H    0.342552
     4  C   -0.080474
     5  H    0.191679
     6  C    0.631880
     7  C   -0.276148
     8  H    0.224809
     9  H    0.181570
    10  O   -0.558539
    11  C   -0.420379
    12  H    0.334361
    13  H    0.264548
    14  C    0.625999
    15  O   -0.197370
    16  O   -0.787823
    17  N   -0.602185
    18  H    0.351254
    19  C   -0.050402
    20  H    0.189715
    21  C    0.626374
    22  C   -0.349791
    23  H    0.154862
    24  H    0.175988
    25  O   -0.551837
    26  C    0.130965
    27  C   -0.209533
    28  H    0.138762
    29  C   -0.185435
    30  H    0.136762
    31  C   -0.145890
    32  H    0.158796
    33  C   -0.191562
    34  H    0.133756
    35  O   -0.628599
    36  H    0.415247
    37  C    0.365728
    38  N   -0.622103
    39  H    0.375270
    40  C   -0.021835
    41  H    0.195244
    42  C    0.579508
    43  C   -0.281662
    44  H    0.171030
    45  H    0.148772
    46  O   -0.460323
    47  C   -0.264451
    48  H    0.143742
    49  H    0.135492
    50  C   -0.262427
    51  H    0.130762
    52  H    0.121643
    53  C   -0.145603
    54  H    0.145393
    55  H    0.149734
    56  N   -0.701357
    57  H    0.298159
    58  H    0.292405
    59  O   -0.555002
    60  H    0.431741
    61  H    0.431669
    62  H    0.424078
 Sum of Mulliken charges =   1.00000

 Dipole moment (field-independent basis, Debye):
    X=            -12.6908    Y=             -5.1925    Z=             11.4724  Tot=             17.8783
 Quadrupole moment (field-independent basis, Debye-Ang):
   XX=           -103.2845   YY=           -137.2372   ZZ=            -99.5600
   XY=             53.9831   XZ=            -81.3021   YZ=            -40.9065

 Normal termination of Gaussian 16 at Thu Jun  2 00:24:34 2022.
