 Gaussian 16, Revision C.01,
 Gaussian 16:  ES64L-G16RevC.01  3-Jul-2019

 ----------------------------------------------------------------------
 # B3LYP/6-31G* empiricaldispersion=gd3 guess=read geom=check nosymm in
 tegral(ultrafinegrid)
 ----------------------------------------------------------------------

 ------------------------------------------------------
 Candidate Structure: Conf:294 Charge calc in gas phase
 ------------------------------------------------------
 Structure from the checkpoint file:  "conf-294.chk"
 Charge =  1 Multiplicity = 1

                          Input orientation:
 ---------------------------------------------------------------------
 Center     Atomic      Atomic             Coordinates (Angstroms)
 Number     Number       Type             X           Y           Z
 ---------------------------------------------------------------------
      1          7           0       -0.229739   -2.497305    2.366912
      2          1           0        0.006264   -3.362781    2.839627
      3          1           0       -0.824064   -2.675193    1.561054
      4          6           0       -0.752826   -1.444457    3.220158
      5          1           0       -0.155988   -1.436048    4.144086
      6          6           0       -0.579705   -0.044549    2.568286
      7          6           0       -2.254924   -1.552880    3.569896
      8          1           0       -2.845310   -1.550367    2.646826
      9          1           0       -2.572489   -0.685650    4.152467
     10          8           0       -1.278429    0.893735    2.944658
     11          6           0       -2.622031   -2.886081    4.276081
     12          1           0       -2.152288   -3.754935    3.794746
     13          1           0       -3.703820   -3.072077    4.310988
     14          6           0       -2.158321   -2.857487    5.643908
     15          8           0       -1.700846   -2.504037    6.619477
     16          8           0       -2.621728   -5.027831    6.050962
     17          7           0        0.341508    0.012684    1.589192
     18          1           0        0.880982   -0.817990    1.368326
     19          6           0        0.423837    1.131371    0.671629
     20          1           0        0.017211    2.005407    1.186192
     21          6           0        1.893521    1.308737    0.274575
     22          6           0       -0.397305    0.851074   -0.634896
     23          1           0       -0.539570    1.803089   -1.158817
     24          1           0        0.214478    0.213746   -1.283448
     25          8           0        2.622951    0.325948    0.167883
     26          6           0       -1.715243    0.169248   -0.353893
     27          6           0       -1.836606   -1.220962   -0.491913
     28          1           0       -1.003345   -1.789130   -0.899684
     29          6           0       -2.816146    0.876249    0.142242
     30          1           0       -2.748953    1.952593    0.272825
     31          6           0       -3.003845   -1.893300   -0.128141
     32          1           0       -3.107280   -2.965816   -0.264529
     33          6           0       -3.992174    0.223645    0.508591
     34          1           0       -4.830933    0.793326    0.903043
     35          8           0       -5.190407   -1.877286    0.778661
     36          1           0       -5.931668   -1.266142    0.915384
     37          6           0       -4.085683   -1.166920    0.384303
     38          7           0        2.263748    2.573027   -0.038487
     39          1           0        1.683050    3.358785    0.231343
     40          6           0        3.616006    2.903906   -0.465146
     41          1           0        4.292916    2.138696   -0.071947
     42          6           0        3.970255    4.252124    0.144810
     43          6           0        3.766652    2.963976   -2.004672
     44          1           0        3.142718    3.782974   -2.388540
     45          1           0        4.808172    3.223895   -2.227414
     46          8           0        3.167946    5.010210    0.648261
     47          6           0        3.388183    1.652428   -2.700124
     48          1           0        2.330780    1.431167   -2.503807
     49          1           0        3.956276    0.824773   -2.257142
     50          6           0        3.619437    1.697262   -4.214679
     51          1           0        3.065859    2.542347   -4.651589
     52          1           0        4.683221    1.884347   -4.423230
     53          6           0        3.188328    0.398178   -4.916651
     54          1           0        3.733592   -0.448613   -4.478640
     55          1           0        2.124352    0.213897   -4.711961
     56          7           0        3.378457    0.349734   -6.367026
     57          1           0        4.364075    0.484326   -6.590128
     58          1           0        2.884475    1.126059   -6.806233
     59          8           0        5.281243    4.523254    0.016081
     60          1           0       -3.502258   -5.435828    5.998803
     61          1           0       -2.240049   -5.343881    6.887651
     62          1           0        5.430541    5.415082    0.384534
 ---------------------------------------------------------------------

 SCF Done:  E(RB3LYP) =  -1526.19249777     A.U. after    3 cycles

 Alpha  occ. eigenvalues --  -19.46778 -19.34670 -19.27220 -19.27166 -19.21744
 Alpha  occ. eigenvalues --  -19.20540 -19.19313 -14.44700 -14.44497 -14.43904
 Alpha  occ. eigenvalues --  -14.35559 -10.57233 -10.42333 -10.39668 -10.38103
 Alpha  occ. eigenvalues --  -10.36631 -10.35521 -10.34640 -10.34238 -10.31907
 Alpha  occ. eigenvalues --  -10.31044 -10.28265 -10.28075 -10.28039 -10.27990
 Alpha  occ. eigenvalues --  -10.27984 -10.27957 -10.25648 -10.25324 -10.24064
 Alpha  occ. eigenvalues --  -10.23285  -1.37379  -1.19899  -1.18230  -1.15072
 Alpha  occ. eigenvalues --   -1.12747  -1.11323  -1.09336  -1.03160  -1.01480
 Alpha  occ. eigenvalues --   -1.00450  -0.99561  -0.94422  -0.92373  -0.87995
 Alpha  occ. eigenvalues --   -0.86886  -0.86302  -0.83898  -0.82919  -0.81239
 Alpha  occ. eigenvalues --   -0.78092  -0.75441  -0.75118  -0.73925  -0.72033
 Alpha  occ. eigenvalues --   -0.71195  -0.70981  -0.70270  -0.69439  -0.68135
 Alpha  occ. eigenvalues --   -0.67652  -0.67412  -0.66663  -0.65906  -0.64490
 Alpha  occ. eigenvalues --   -0.63920  -0.63451  -0.62867  -0.60784  -0.59684
 Alpha  occ. eigenvalues --   -0.58208  -0.57854  -0.56783  -0.56691  -0.56427
 Alpha  occ. eigenvalues --   -0.55167  -0.54809  -0.54727  -0.54144  -0.53597
 Alpha  occ. eigenvalues --   -0.53150  -0.52928  -0.52668  -0.51721  -0.51415
 Alpha  occ. eigenvalues --   -0.51217  -0.50525  -0.49939  -0.49631  -0.49044
 Alpha  occ. eigenvalues --   -0.48497  -0.48219  -0.48086  -0.47074  -0.46716
 Alpha  occ. eigenvalues --   -0.45962  -0.45693  -0.44522  -0.44096  -0.43893
 Alpha  occ. eigenvalues --   -0.42745  -0.42483  -0.41623  -0.41363  -0.40174
 Alpha  occ. eigenvalues --   -0.39586  -0.39098  -0.38143  -0.37756  -0.35592
 Alpha  occ. eigenvalues --   -0.35139  -0.34309  -0.33738  -0.33213  -0.32823
 Alpha  occ. eigenvalues --   -0.30930  -0.27583
 Alpha virt. eigenvalues --   -0.24140  -0.23050  -0.11201  -0.09605  -0.08903
 Alpha virt. eigenvalues --   -0.08131  -0.06513  -0.06309  -0.05070  -0.03637
 Alpha virt. eigenvalues --   -0.02813  -0.02008  -0.00983  -0.00388   0.00387

 Mulliken charges:
               1
     1  N   -0.741442
     2  H    0.314944
     3  H    0.330973
     4  C   -0.084918
     5  H    0.173373
     6  C    0.646235
     7  C   -0.329214
     8  H    0.231748
     9  H    0.221743
    10  O   -0.538487
    11  C   -0.382709
    12  H    0.258139
    13  H    0.271419
    14  C    0.644822
    15  O   -0.187901
    16  O   -0.775339
    17  N   -0.593768
    18  H    0.370542
    19  C   -0.052372
    20  H    0.183657
    21  C    0.629182
    22  C   -0.376298
    23  H    0.168417
    24  H    0.176717
    25  O   -0.532718
    26  C    0.171620
    27  C   -0.203528
    28  H    0.147387
    29  C   -0.153765
    30  H    0.151710
    31  C   -0.196695
    32  H    0.146596
    33  C   -0.194777
    34  H    0.139579
    35  O   -0.657237
    36  H    0.416943
    37  C    0.341625
    38  N   -0.609884
    39  H    0.351326
    40  C   -0.047035
    41  H    0.204031
    42  C    0.584799
    43  C   -0.263318
    44  H    0.143131
    45  H    0.167839
    46  O   -0.467093
    47  C   -0.264894
    48  H    0.133407
    49  H    0.157933
    50  C   -0.265995
    51  H    0.125188
    52  H    0.131222
    53  C   -0.139544
    54  H    0.143974
    55  H    0.133236
    56  N   -0.701997
    57  H    0.296158
    58  H    0.293770
    59  O   -0.557398
    60  H    0.443732
    61  H    0.446276
    62  H    0.424934
 Sum of Mulliken charges =   1.00000

 Dipole moment (field-independent basis, Debye):
    X=             -9.8081    Y=            -11.2786    Z=             19.8418  Tot=             24.8416
 Quadrupole moment (field-independent basis, Debye-Ang):
   XX=           -113.6178   YY=           -100.7202   ZZ=            -60.1354
   XY=             60.3515   XZ=            -64.2962   YZ=           -104.0165

 Normal termination of Gaussian 16 at Thu Jun  2 00:24:34 2022.
