 Gaussian 16, Revision C.01,
 Gaussian 16:  ES64L-G16RevC.01  3-Jul-2019

 ----------------------------------------------------------------------
 # B3LYP/6-31G* empiricaldispersion=gd3 guess=read geom=check nosymm in
 tegral(ultrafinegrid)
 ----------------------------------------------------------------------

 ------------------------------------------------------
 Candidate Structure: Conf:684 Charge calc in gas phase
 ------------------------------------------------------
 Structure from the checkpoint file:  "conf-684.chk"
 Charge =  1 Multiplicity = 1

                          Input orientation:
 ---------------------------------------------------------------------
 Center     Atomic      Atomic             Coordinates (Angstroms)
 Number     Number       Type             X           Y           Z
 ---------------------------------------------------------------------
      1          7           0       -0.701233    0.166918    2.973973
      2          1           0       -1.046546    0.126910    3.928170
      3          1           0        0.271724    0.469842    2.967838
      4          6           0       -0.857308   -1.071336    2.223114
      5          1           0       -1.906045   -1.393365    2.325464
      6          6           0       -0.641321   -0.795531    0.714316
      7          6           0        0.089603   -2.224419    2.614119
      8          1           0        1.122021   -1.859937    2.585083
      9          1           0        0.016339   -3.042197    1.893397
     10          8           0       -0.056898   -1.604352   -0.000692
     11          6           0       -0.143495   -2.732723    4.062616
     12          1           0       -0.213139   -1.919565    4.797364
     13          1           0        0.639120   -3.418144    4.414603
     14          6           0       -1.391458   -3.465845    4.123112
     15          8           0       -2.360900   -3.960126    3.803675
     16          8           0       -1.340556   -3.720678    6.351057
     17          7           0       -1.140978    0.383327    0.287083
     18          1           0       -1.603854    0.966196    0.972166
     19          6           0       -0.969696    0.845012   -1.093652
     20          1           0       -1.410630    1.847762   -1.124979
     21          6           0        0.542162    0.974559   -1.411707
     22          6           0       -1.680403   -0.050778   -2.133629
     23          1           0       -1.636687    0.472004   -3.093764
     24          1           0       -1.099623   -0.967757   -2.246977
     25          8           0        1.010451    0.681267   -2.496113
     26          6           0       -3.102133   -0.357451   -1.728557
     27          6           0       -3.403796   -1.533595   -1.025350
     28          1           0       -2.608101   -2.249875   -0.833884
     29          6           0       -4.145489    0.539508   -1.981571
     30          1           0       -3.945530    1.454195   -2.535803
     31          6           0       -4.694812   -1.805349   -0.582180
     32          1           0       -4.933952   -2.724722   -0.056107
     33          6           0       -5.445669    0.283450   -1.544854
     34          1           0       -6.243767    0.991589   -1.759299
     35          8           0       -6.969812   -1.207873   -0.375007
     36          1           0       -7.604290   -0.536570   -0.671026
     37          6           0       -5.724040   -0.892112   -0.839155
     38          7           0        1.284032    1.483295   -0.369019
     39          1           0        0.812568    1.549024    0.523531
     40          6           0        2.713846    1.253148   -0.275143
     41          1           0        3.053101    0.881290   -1.244877
     42          6           0        2.953592    0.176088    0.779551
     43          6           0        3.472082    2.550189    0.087359
     44          1           0        3.181110    3.291301   -0.666028
     45          1           0        3.097344    2.919111    1.052539
     46          8           0        2.265364    0.017477    1.778959
     47          6           0        4.998279    2.417776    0.129111
     48          1           0        5.345044    1.981206   -0.817183
     49          1           0        5.297785    1.713422    0.917163
     50          6           0        5.695305    3.762651    0.365421
     51          1           0        5.426400    4.460273   -0.441627
     52          1           0        5.320150    4.208788    1.298518
     53          6           0        7.230555    3.650749    0.447465
     54          1           0        7.644596    4.634819    0.698928
     55          1           0        7.499725    2.983356    1.277838
     56          7           0        7.925022    3.170981   -0.747518
     57          1           0        7.703699    3.763072   -1.546844
     58          1           0        7.622774    2.229769   -0.990307
     59          8           0        4.035295   -0.565953    0.518192
     60          1           0       -2.229324   -3.850598    6.725359
     61          1           0       -0.787794   -4.404075    6.767465
     62          1           0        4.157883   -1.196478    1.253471
 ---------------------------------------------------------------------

 SCF Done:  E(RB3LYP) =  -1526.18778183     A.U. after    1 cycles

 Alpha  occ. eigenvalues --  -19.47343 -19.35635 -19.30339 -19.25217 -19.24395
 Alpha  occ. eigenvalues --  -19.21925 -19.19495 -14.45948 -14.45149 -14.43748
 Alpha  occ. eigenvalues --  -14.36251 -10.57865 -10.43000 -10.42678 -10.39150
 Alpha  occ. eigenvalues --  -10.36691 -10.36123 -10.35096 -10.32287 -10.32217
 Alpha  occ. eigenvalues --  -10.31633 -10.27092 -10.25979 -10.25857 -10.25755
 Alpha  occ. eigenvalues --  -10.25691 -10.25677 -10.25602 -10.25553 -10.25369
 Alpha  occ. eigenvalues --  -10.24243  -1.37955  -1.21394  -1.20815  -1.14070
 Alpha  occ. eigenvalues --   -1.12422  -1.12285  -1.11374  -1.03818  -1.02631
 Alpha  occ. eigenvalues --   -1.00744  -0.99991  -0.93109  -0.92046  -0.88280
 Alpha  occ. eigenvalues --   -0.87526  -0.85970  -0.82846  -0.81482  -0.80792
 Alpha  occ. eigenvalues --   -0.78279  -0.76532  -0.75686  -0.73701  -0.72822
 Alpha  occ. eigenvalues --   -0.71861  -0.71394  -0.70577  -0.69210  -0.68681
 Alpha  occ. eigenvalues --   -0.67980  -0.67281  -0.66338  -0.65594  -0.64850
 Alpha  occ. eigenvalues --   -0.64384  -0.63328  -0.61517  -0.61043  -0.60778
 Alpha  occ. eigenvalues --   -0.59618  -0.59379  -0.58561  -0.57025  -0.56687
 Alpha  occ. eigenvalues --   -0.55920  -0.55689  -0.54575  -0.54334  -0.53925
 Alpha  occ. eigenvalues --   -0.52914  -0.52766  -0.52530  -0.52080  -0.50604
 Alpha  occ. eigenvalues --   -0.50583  -0.50142  -0.50033  -0.49758  -0.49106
 Alpha  occ. eigenvalues --   -0.48974  -0.48118  -0.47490  -0.47206  -0.46734
 Alpha  occ. eigenvalues --   -0.46610  -0.45915  -0.44997  -0.43642  -0.43194
 Alpha  occ. eigenvalues --   -0.43155  -0.42050  -0.41667  -0.41322  -0.40360
 Alpha  occ. eigenvalues --   -0.39777  -0.39310  -0.38981  -0.38764  -0.38316
 Alpha  occ. eigenvalues --   -0.36692  -0.34979  -0.33622  -0.32607  -0.31902
 Alpha  occ. eigenvalues --   -0.28370  -0.28230
 Alpha virt. eigenvalues --   -0.24768  -0.23700  -0.11931  -0.10059  -0.09061
 Alpha virt. eigenvalues --   -0.07393  -0.07073  -0.06041  -0.05337  -0.04482
 Alpha virt. eigenvalues --   -0.03548  -0.02835  -0.01908  -0.01217   0.00655

 Mulliken charges:
               1
     1  N   -0.746185
     2  H    0.308907
     3  H    0.349891
     4  C   -0.101325
     5  H    0.170637
     6  C    0.666468
     7  C   -0.314428
     8  H    0.230421
     9  H    0.217204
    10  O   -0.537285
    11  C   -0.380759
    12  H    0.261404
    13  H    0.267959
    14  C    0.633234
    15  O   -0.181968
    16  O   -0.768373
    17  N   -0.616186
    18  H    0.358214
    19  C   -0.056170
    20  H    0.179227
    21  C    0.627690
    22  C   -0.364954
    23  H    0.176960
    24  H    0.194570
    25  O   -0.491287
    26  C    0.169111
    27  C   -0.203159
    28  H    0.132861
    29  C   -0.196863
    30  H    0.135398
    31  C   -0.167609
    32  H    0.130341
    33  C   -0.191637
    34  H    0.132073
    35  O   -0.641456
    36  H    0.413769
    37  C    0.351709
    38  N   -0.596102
    39  H    0.327306
    40  C   -0.057016
    41  H    0.215204
    42  C    0.611909
    43  C   -0.267942
    44  H    0.174186
    45  H    0.137994
    46  O   -0.517385
    47  C   -0.265144
    48  H    0.138776
    49  H    0.132414
    50  C   -0.262679
    51  H    0.134468
    52  H    0.128872
    53  C   -0.145182
    54  H    0.152701
    55  H    0.137877
    56  N   -0.701863
    57  H    0.297808
    58  H    0.297381
    59  O   -0.530213
    60  H    0.448156
    61  H    0.446150
    62  H    0.413920
 Sum of Mulliken charges =   1.00000

 Dipole moment (field-independent basis, Debye):
    X=             -4.7855    Y=            -10.1330    Z=             22.8091  Tot=             25.4133
 Quadrupole moment (field-independent basis, Debye-Ang):
   XX=           -155.5783   YY=           -116.9973   ZZ=            -68.8078
   XY=              2.4290   XZ=            -12.5835   YZ=            -82.7552

 Normal termination of Gaussian 16 at Thu Jun  2 00:24:16 2022.
