 Gaussian 16, Revision C.01,
 Gaussian 16:  ES64L-G16RevC.01  3-Jul-2019

 ----------------------------------------------------------------------
 # B3LYP/6-31G* empiricaldispersion=gd3 guess=read geom=check nosymm in
 tegral(ultrafinegrid)
 ----------------------------------------------------------------------

 ------------------------------------------------------
 Candidate Structure: Conf:746 Charge calc in gas phase
 ------------------------------------------------------
 Structure from the checkpoint file:  "conf-746.chk"
 Charge =  1 Multiplicity = 1

                          Input orientation:
 ---------------------------------------------------------------------
 Center     Atomic      Atomic             Coordinates (Angstroms)
 Number     Number       Type             X           Y           Z
 ---------------------------------------------------------------------
      1          7           0       -0.972563   -0.743708    3.832327
      2          1           0       -0.373558   -1.560539    3.722482
      3          1           0       -0.407305    0.059294    3.559458
      4          6           0       -2.188114   -0.871419    3.033552
      5          1           0       -2.841764   -0.017967    3.254090
      6          6           0       -1.756524   -0.750130    1.571671
      7          6           0       -2.922827   -2.158947    3.435284
      8          1           0       -3.131427   -2.043318    4.502494
      9          1           0       -2.248747   -3.020353    3.358499
     10          8           0       -1.269075   -1.761230    0.907673
     11          6           0       -4.235785   -2.450072    2.692778
     12          1           0       -4.876293   -1.566050    2.618940
     13          1           0       -4.802665   -3.190917    3.272015
     14          6           0       -4.122898   -3.037861    1.301441
     15          8           0       -4.909983   -2.903752    0.405262
     16          8           0       -2.985001   -3.819599    1.161467
     17          7           0       -1.733449    0.444912    1.019947
     18          1           0       -2.104417    1.178931    1.614692
     19          6           0       -0.828892    0.937495   -0.041766
     20          1           0       -1.189444    1.942507   -0.279923
     21          6           0        0.580272    1.028471    0.606866
     22          6           0       -0.834127    0.103719   -1.357754
     23          1           0       -0.619492   -0.938576   -1.124000
     24          1           0       -1.848742    0.151477   -1.770600
     25          8           0        0.913669    0.250840    1.498840
     26          6           0        0.197426    0.630770   -2.330260
     27          6           0        0.004750    1.833950   -3.028491
     28          1           0       -0.955795    2.343883   -2.971693
     29          6           0        1.436553   -0.009836   -2.457531
     30          1           0        1.611542   -0.946752   -1.932733
     31          6           0        1.024853    2.398057   -3.789783
     32          1           0        0.878031    3.331300   -4.323880
     33          6           0        2.461558    0.533243   -3.228099
     34          1           0        3.406665    0.008639   -3.326300
     35          8           0        3.237838    2.371740   -4.602259
     36          1           0        4.150301    1.977784   -4.430322
     37          6           0        2.279365    1.763911   -3.886722
     38          7           0        1.371214    1.992011    0.100000
     39          1           0        1.045526    2.479757   -0.726286
     40          6           0        2.820238    1.955332    0.288405
     41          1           0        3.169028    0.940166    0.069351
     42          6           0        3.266854    2.239933    1.715813
     43          6           0        3.495821    2.952402   -0.684991
     44          1           0        2.830434    3.087182   -1.546279
     45          1           0        3.598692    3.936126   -0.211212
     46          8           0        4.354160    1.912502    2.129983
     47          6           0        4.842399    2.450478   -1.213686
     48          1           0        4.666412    1.453725   -1.638530
     49          1           0        5.551209    2.319832   -0.387534
     50          6           0        5.411002    3.384574   -2.294132
     51          1           0        4.591862    3.756375   -2.921264
     52          1           0        5.877426    4.259530   -1.824437
     53          6           0        6.432708    2.716340   -3.219465
     54          1           0        6.781926    3.451565   -3.951035
     55          1           0        7.312232    2.381175   -2.651021
     56          7           0        5.816526    1.593900   -3.980083
     57          1           0        5.852096    0.740079   -3.425173
     58          1           0        6.369693    1.399371   -4.813748
     59          8           0        2.369153    2.951193    2.431598
     60          1           0       -1.625823   -2.628265    1.226884
     61          1           0       -3.043169   -4.242910    0.281221
     62          1           0        2.786336    3.119146    3.298517
 ---------------------------------------------------------------------

 SCF Done:  E(RB3LYP) =  -1526.26951907     A.U. after    2 cycles

 Alpha  occ. eigenvalues --  -19.36421 -19.33852 -19.28562 -19.27312 -19.24317
 Alpha  occ. eigenvalues --  -19.23235 -19.22505 -14.55318 -14.47676 -14.46344
 Alpha  occ. eigenvalues --  -14.42849 -10.48666 -10.45427 -10.41238 -10.40878
 Alpha  occ. eigenvalues --  -10.39066 -10.38305 -10.33749 -10.33640 -10.33614
 Alpha  occ. eigenvalues --  -10.33474 -10.31439 -10.29806 -10.28814 -10.28672
 Alpha  occ. eigenvalues --  -10.28599 -10.28517 -10.27608 -10.27315 -10.26946
 Alpha  occ. eigenvalues --  -10.26207  -1.26985  -1.23653  -1.19379  -1.16301
 Alpha  occ. eigenvalues --   -1.15134  -1.12125  -1.11999  -1.10338  -1.04638
 Alpha  occ. eigenvalues --   -1.04218  -0.98311  -0.95260  -0.93501  -0.92196
 Alpha  occ. eigenvalues --   -0.89501  -0.86302  -0.84988  -0.83967  -0.83807
 Alpha  occ. eigenvalues --   -0.81427  -0.78895  -0.78178  -0.76505  -0.73890
 Alpha  occ. eigenvalues --   -0.73328  -0.71360  -0.70754  -0.69809  -0.69205
 Alpha  occ. eigenvalues --   -0.68243  -0.67493  -0.66159  -0.65373  -0.64250
 Alpha  occ. eigenvalues --   -0.62868  -0.62538  -0.61926  -0.61565  -0.60251
 Alpha  occ. eigenvalues --   -0.59916  -0.59373  -0.58984  -0.58264  -0.58092
 Alpha  occ. eigenvalues --   -0.57286  -0.56787  -0.56302  -0.55762  -0.55350
 Alpha  occ. eigenvalues --   -0.55146  -0.54189  -0.53721  -0.53310  -0.52948
 Alpha  occ. eigenvalues --   -0.52306  -0.51879  -0.51239  -0.51064  -0.50453
 Alpha  occ. eigenvalues --   -0.49976  -0.49296  -0.49184  -0.49063  -0.48711
 Alpha  occ. eigenvalues --   -0.48289  -0.48122  -0.46719  -0.46159  -0.45802
 Alpha  occ. eigenvalues --   -0.45313  -0.44990  -0.44613  -0.42924  -0.42009
 Alpha  occ. eigenvalues --   -0.41913  -0.41580  -0.40681  -0.40481  -0.40283
 Alpha  occ. eigenvalues --   -0.39191  -0.38336  -0.37571  -0.35424  -0.35198
 Alpha  occ. eigenvalues --   -0.34482  -0.30108
 Alpha virt. eigenvalues --   -0.18494  -0.12413  -0.10476  -0.09802  -0.09108
 Alpha virt. eigenvalues --   -0.08474  -0.07619  -0.06382  -0.03327  -0.02584
 Alpha virt. eigenvalues --   -0.02235  -0.01936  -0.01220  -0.00503  -0.00017

 Mulliken charges:
               1
     1  N   -0.669512
     2  H    0.333655
     3  H    0.345621
     4  C   -0.075928
     5  H    0.178334
     6  C    0.624962
     7  C   -0.322954
     8  H    0.216050
     9  H    0.178356
    10  O   -0.566950
    11  C   -0.362470
    12  H    0.200268
    13  H    0.229954
    14  C    0.566806
    15  O   -0.400692
    16  O   -0.609165
    17  N   -0.541876
    18  H    0.379771
    19  C   -0.106176
    20  H    0.188560
    21  C    0.639389
    22  C   -0.360468
    23  H    0.192421
    24  H    0.178889
    25  O   -0.535651
    26  C    0.134609
    27  C   -0.220363
    28  H    0.135407
    29  C   -0.186009
    30  H    0.136957
    31  C   -0.168595
    32  H    0.160973
    33  C   -0.193252
    34  H    0.134005
    35  O   -0.677780
    36  H    0.471480
    37  C    0.368825
    38  N   -0.600519
    39  H    0.357983
    40  C   -0.002550
    41  H    0.190692
    42  C    0.600008
    43  C   -0.328720
    44  H    0.163598
    45  H    0.172613
    46  O   -0.451925
    47  C   -0.274240
    48  H    0.126508
    49  H    0.176135
    50  C   -0.272874
    51  H    0.163619
    52  H    0.154149
    53  C   -0.153502
    54  H    0.169348
    55  H    0.152946
    56  N   -0.778163
    57  H    0.326627
    58  H    0.338438
    59  O   -0.566468
    60  H    0.477275
    61  H    0.440180
    62  H    0.421389
 Sum of Mulliken charges =   1.00000

 Dipole moment (field-independent basis, Debye):
    X=             -1.1969    Y=             -0.5313    Z=              2.9782  Tot=              3.2533
 Quadrupole moment (field-independent basis, Debye-Ang):
   XX=           -117.8178   YY=           -141.2700   ZZ=           -152.9368
   XY=             23.6811   XZ=            -50.4574   YZ=            -10.4102

 Normal termination of Gaussian 16 at Thu Jun  2 00:24:27 2022.
