 Gaussian 16, Revision C.01,
 Gaussian 16:  ES64L-G16RevC.01  3-Jul-2019

 ----------------------------------------------------------------------
 # B3LYP/6-31G* empiricaldispersion=gd3 guess=read geom=check nosymm in
 tegral(ultrafinegrid)
 ----------------------------------------------------------------------

 ----------------------------------------------------
 Candidate Structure: Conf:3 Charge calc in gas phase
 ----------------------------------------------------
 Structure from the checkpoint file:  "conf-3.chk"
 Charge =  1 Multiplicity = 1

                          Input orientation:
 ---------------------------------------------------------------------
 Center     Atomic      Atomic             Coordinates (Angstroms)
 Number     Number       Type             X           Y           Z
 ---------------------------------------------------------------------
      1          7           0       -2.206408   -1.028214    4.323653
      2          1           0       -2.962188   -1.648060    4.600147
      3          1           0       -1.675135   -0.765196    5.152624
      4          6           0       -1.343153   -1.624123    3.291591
      5          1           0       -1.828909   -2.526151    2.901530
      6          6           0       -1.355033   -0.601443    2.142523
      7          6           0        0.091595   -2.013309    3.739145
      8          1           0        0.492846   -2.725250    3.008584
      9          1           0       -0.004940   -2.568202    4.677089
     10          8           0       -2.142878    0.410459    2.295136
     11          6           0        1.132185   -0.887085    3.884918
     12          1           0        1.318599   -0.369851    2.940711
     13          1           0        2.090847   -1.354380    4.148533
     14          6           0        0.908203    0.173723    4.939974
     15          8           0        1.375174    1.292114    4.905307
     16          8           0        0.160752   -0.256043    5.988666
     17          7           0       -0.602908   -0.726913    1.092291
     18          1           0        0.111583   -1.457483    1.068584
     19          6           0       -0.370402    0.282918    0.047839
     20          1           0       -0.833421    1.215275    0.378115
     21          6           0        1.168531    0.389143    0.027690
     22          6           0       -0.982885   -0.173005   -1.297770
     23          1           0       -0.780784    0.614382   -2.033041
     24          1           0       -0.447290   -1.068377   -1.634227
     25          8           0        1.833014   -0.598394    0.351574
     26          6           0       -2.463076   -0.440293   -1.159849
     27          6           0       -2.934553   -1.730989   -0.877471
     28          1           0       -2.233786   -2.562759   -0.844511
     29          6           0       -3.392893    0.603452   -1.225488
     30          1           0       -3.057126    1.613568   -1.450541
     31          6           0       -4.286608   -1.976619   -0.661959
     32          1           0       -4.656712   -2.977326   -0.463700
     33          6           0       -4.751111    0.374869   -1.014870
     34          1           0       -5.459511    1.197766   -1.079858
     35          8           0       -6.511052   -1.219897   -0.503202
     36          1           0       -7.061744   -0.433232   -0.642306
     37          6           0       -5.203677   -0.919442   -0.728309
     38          7           0        1.701278    1.581256   -0.300665
     39          1           0        1.073550    2.373535   -0.367701
     40          6           0        3.071579    1.884037    0.126200
     41          1           0        3.721121    1.081394   -0.230189
     42          6           0        3.182993    1.882138    1.658879
     43          6           0        3.549167    3.226852   -0.446542
     44          1           0        2.894927    4.031430   -0.076981
     45          1           0        4.541299    3.417724   -0.022895
     46          8           0        4.235483    1.823589    2.244493
     47          6           0        3.613825    3.240341   -1.977197
     48          1           0        2.613951    3.060025   -2.397563
     49          1           0        4.245720    2.418501   -2.331803
     50          6           0        4.162140    4.560583   -2.529828
     51          1           0        3.514987    5.396145   -2.228461
     52          1           0        5.148023    4.760700   -2.083849
     53          6           0        4.295022    4.560003   -4.057636
     54          1           0        3.312159    4.357807   -4.503995
     55          1           0        4.588854    5.571471   -4.389066
     56          7           0        5.208318    3.497278   -4.496235
     57          1           0        6.163196    3.738487   -4.231823
     58          1           0        5.206938    3.433708   -5.512526
     59          8           0        1.975273    1.986785    2.266550
     60          1           0       -2.543711    0.222086    3.227124
     61          1           0        0.152469    0.461801    6.653458
     62          1           0        2.098208    1.949012    3.242563
 ---------------------------------------------------------------------

 SCF Done:  E(RB3LYP) =  -1526.27801726     A.U. after    1 cycles

 Alpha  occ. eigenvalues --  -19.35584 -19.33874 -19.28191 -19.28073 -19.26889
 Alpha  occ. eigenvalues --  -19.24677 -19.22477 -14.54499 -14.49643 -14.48169
 Alpha  occ. eigenvalues --  -14.37129 -10.48003 -10.46227 -10.41586 -10.40723
 Alpha  occ. eigenvalues --  -10.40364 -10.37826 -10.34931 -10.34577 -10.33758
 Alpha  occ. eigenvalues --  -10.33438 -10.31628 -10.29383 -10.29180 -10.29164
 Alpha  occ. eigenvalues --  -10.28593 -10.28152 -10.27869 -10.26900 -10.25485
 Alpha  occ. eigenvalues --  -10.24910  -1.26708  -1.24500  -1.19015  -1.16850
 Alpha  occ. eigenvalues --   -1.15477  -1.15082  -1.11740  -1.10250  -1.06328
 Alpha  occ. eigenvalues --   -1.04795  -0.95958  -0.94423  -0.93922  -0.92314
 Alpha  occ. eigenvalues --   -0.88865  -0.87401  -0.84802  -0.84583  -0.83142
 Alpha  occ. eigenvalues --   -0.80457  -0.78937  -0.77408  -0.76787  -0.74483
 Alpha  occ. eigenvalues --   -0.72308  -0.72038  -0.70471  -0.69872  -0.69223
 Alpha  occ. eigenvalues --   -0.69037  -0.68663  -0.66027  -0.65055  -0.64759
 Alpha  occ. eigenvalues --   -0.63989  -0.62971  -0.62145  -0.61595  -0.60960
 Alpha  occ. eigenvalues --   -0.60382  -0.60091  -0.59229  -0.58363  -0.57558
 Alpha  occ. eigenvalues --   -0.56906  -0.56335  -0.55939  -0.55090  -0.54914
 Alpha  occ. eigenvalues --   -0.54877  -0.54005  -0.53636  -0.53385  -0.53126
 Alpha  occ. eigenvalues --   -0.52619  -0.52178  -0.51970  -0.50990  -0.50317
 Alpha  occ. eigenvalues --   -0.50031  -0.49795  -0.49336  -0.49123  -0.48265
 Alpha  occ. eigenvalues --   -0.47952  -0.47566  -0.47179  -0.46043  -0.45782
 Alpha  occ. eigenvalues --   -0.44805  -0.44392  -0.43566  -0.43361  -0.43289
 Alpha  occ. eigenvalues --   -0.42479  -0.41527  -0.41166  -0.40511  -0.40308
 Alpha  occ. eigenvalues --   -0.39904  -0.39460  -0.38356  -0.35033  -0.34946
 Alpha  occ. eigenvalues --   -0.31469  -0.29371
 Alpha virt. eigenvalues --   -0.17157  -0.13021  -0.11339  -0.10074  -0.08733
 Alpha virt. eigenvalues --   -0.07954  -0.07649  -0.04927  -0.04878  -0.03904
 Alpha virt. eigenvalues --   -0.01530  -0.01366  -0.00694  -0.00310   0.00255

 Mulliken charges:
               1
     1  N   -0.819213
     2  H    0.365485
     3  H    0.381251
     4  C   -0.071234
     5  H    0.223132
     6  C    0.646942
     7  C   -0.315180
     8  H    0.188652
     9  H    0.205513
    10  O   -0.533786
    11  C   -0.399923
    12  H    0.210463
    13  H    0.235635
    14  C    0.603791
    15  O   -0.450705
    16  O   -0.571705
    17  N   -0.549191
    18  H    0.388853
    19  C   -0.102003
    20  H    0.202753
    21  C    0.663713
    22  C   -0.369302
    23  H    0.183902
    24  H    0.182471
    25  O   -0.539258
    26  C    0.167520
    27  C   -0.205068
    28  H    0.129050
    29  C   -0.184931
    30  H    0.136010
    31  C   -0.164042
    32  H    0.158223
    33  C   -0.188829
    34  H    0.143281
    35  O   -0.628506
    36  H    0.419500
    37  C    0.354621
    38  N   -0.587567
    39  H    0.342990
    40  C   -0.046197
    41  H    0.215918
    42  C    0.593420
    43  C   -0.308156
    44  H    0.139981
    45  H    0.188254
    46  O   -0.444607
    47  C   -0.249188
    48  H    0.121595
    49  H    0.177935
    50  C   -0.259935
    51  H    0.132590
    52  H    0.138272
    53  C   -0.139651
    54  H    0.136995
    55  H    0.129454
    56  N   -0.718319
    57  H    0.299614
    58  H    0.306868
    59  O   -0.623417
    60  H    0.468498
    61  H    0.439515
    62  H    0.447251
 Sum of Mulliken charges =   1.00000

 Dipole moment (field-independent basis, Debye):
    X=             -6.2535    Y=              0.5353    Z=              9.4077  Tot=             11.3091
 Quadrupole moment (field-independent basis, Debye-Ang):
   XX=           -144.7648   YY=           -150.3669   ZZ=           -103.1424
   XY=             11.1785   XZ=            -29.6947   YZ=            -32.5747

 Normal termination of Gaussian 16 at Thu Jun  2 00:24:17 2022.
