 Gaussian 16, Revision C.01,
 Gaussian 16:  ES64L-G16RevC.01  3-Jul-2019

 ----------------------------------------------------------------------
 # B3LYP/6-31G* empiricaldispersion=gd3 guess=read geom=check nosymm in
 tegral(ultrafinegrid)
 ----------------------------------------------------------------------

 ------------------------------------------------------
 Candidate Structure: Conf:217 Charge calc in gas phase
 ------------------------------------------------------
 Structure from the checkpoint file:  "conf-217.chk"
 Charge =  1 Multiplicity = 1

                          Input orientation:
 ---------------------------------------------------------------------
 Center     Atomic      Atomic             Coordinates (Angstroms)
 Number     Number       Type             X           Y           Z
 ---------------------------------------------------------------------
      1          7           0       -1.972790   -0.038026    4.277310
      2          1           0       -0.960773   -0.124576    4.290394
      3          1           0       -2.252546    0.935254    4.346582
      4          6           0       -2.646685   -0.787759    3.233609
      5          1           0       -3.716079   -0.831150    3.470292
      6          6           0       -2.584945   -0.240026    1.787690
      7          6           0       -2.089992   -2.232964    3.231784
      8          1           0       -2.166429   -2.600764    4.258974
      9          1           0       -1.016297   -2.192774    2.998619
     10          8           0       -3.476270   -0.446289    0.980535
     11          6           0       -2.832426   -3.207898    2.278922
     12          1           0       -3.613314   -2.671525    1.724150
     13          1           0       -3.314726   -4.013828    2.836102
     14          6           0       -1.960705   -3.873698    1.252146
     15          8           0       -1.855472   -5.044103    1.021393
     16          8           0       -1.243561   -2.957418    0.464122
     17          7           0       -1.393827    0.393554    1.482800
     18          1           0       -0.820332    0.647280    2.280431
     19          6           0       -0.898356    0.819651    0.185008
     20          1           0       -0.753857    1.908288    0.177721
     21          6           0        0.473373    0.175361    0.042429
     22          6           0       -1.758281    0.450259   -1.060166
     23          1           0       -1.947750   -0.626426   -1.064724
     24          1           0       -2.731131    0.932533   -0.944195
     25          8           0        0.641340   -1.090226    0.276818
     26          6           0       -1.041035    0.897280   -2.316588
     27          6           0       -0.942263    2.262837   -2.635817
     28          1           0       -1.451887    3.000502   -2.017666
     29          6           0       -0.409537   -0.024106   -3.159296
     30          1           0       -0.481267   -1.088543   -2.945618
     31          6           0       -0.231216    2.696915   -3.748811
     32          1           0       -0.169450    3.750001   -4.004429
     33          6           0        0.305978    0.393201   -4.282370
     34          1           0        0.786306   -0.339234   -4.927157
     35          8           0        1.116037    2.249135   -5.628635
     36          1           0        1.434496    1.524169   -6.191746
     37          6           0        0.405281    1.758052   -4.575815
     38          7           0        1.524004    0.871416   -0.296187
     39          1           0        1.381854    1.857252   -0.490697
     40          6           0        2.909119    0.387712   -0.202568
     41          1           0        2.941306   -0.632279   -0.599662
     42          6           0        3.249533    0.306801    1.299096
     43          6           0        3.840535    1.292468   -1.025419
     44          1           0        3.750621    2.323917   -0.656100
     45          1           0        4.870595    0.983063   -0.822600
     46          8           0        2.456130    0.521584    2.189497
     47          6           0        3.539382    1.206264   -2.530447
     48          1           0        2.481972    1.434232   -2.714940
     49          1           0        3.677538    0.164931   -2.851962
     50          6           0        4.412161    2.132230   -3.392069
     51          1           0        5.474458    1.920188   -3.203773
     52          1           0        4.227348    1.887488   -4.446934
     53          6           0        4.141635    3.640583   -3.191120
     54          1           0        4.396720    3.940656   -2.165733
     55          1           0        4.822324    4.203779   -3.840127
     56          7           0        2.779275    4.098268   -3.467659
     57          1           0        2.109743    3.636828   -2.854967
     58          1           0        2.503588    3.840047   -4.415315
     59          8           0        4.524619   -0.056402    1.467906
     60          1           0       -0.202244   -1.559747    0.545651
     61          1           0       -0.776798   -3.516964   -0.189173
     62          1           0        4.707560   -0.113610    2.427443
 ---------------------------------------------------------------------

 SCF Done:  E(RB3LYP) =  -1526.25300725     A.U. after    1 cycles

 Alpha  occ. eigenvalues --  -19.37335 -19.33529 -19.32794 -19.29096 -19.28163
 Alpha  occ. eigenvalues --  -19.25917 -19.23963 -14.56215 -14.49930 -14.43474
 Alpha  occ. eigenvalues --  -14.39432 -10.49437 -10.46442 -10.43868 -10.40951
 Alpha  occ. eigenvalues --  -10.40272 -10.39602 -10.36520 -10.34016 -10.32562
 Alpha  occ. eigenvalues --  -10.32487 -10.31198 -10.31188 -10.31082 -10.30903
 Alpha  occ. eigenvalues --  -10.30809 -10.30537 -10.30009 -10.29899 -10.29262
 Alpha  occ. eigenvalues --  -10.27770  -1.27992  -1.24574  -1.22303  -1.17131
 Alpha  occ. eigenvalues --   -1.16020  -1.16010  -1.13756  -1.13232  -1.06710
 Alpha  occ. eigenvalues --   -1.00679  -0.97487  -0.96627  -0.95376  -0.92064
 Alpha  occ. eigenvalues --   -0.90623  -0.87987  -0.86501  -0.86043  -0.83228
 Alpha  occ. eigenvalues --   -0.82390  -0.80608  -0.79621  -0.76925  -0.75006
 Alpha  occ. eigenvalues --   -0.74208  -0.73805  -0.72200  -0.71432  -0.70887
 Alpha  occ. eigenvalues --   -0.69709  -0.68351  -0.67715  -0.66377  -0.65657
 Alpha  occ. eigenvalues --   -0.65288  -0.63716  -0.62014  -0.61492  -0.61091
 Alpha  occ. eigenvalues --   -0.60679  -0.60478  -0.59863  -0.59331  -0.59220
 Alpha  occ. eigenvalues --   -0.57952  -0.57757  -0.57240  -0.56614  -0.56117
 Alpha  occ. eigenvalues --   -0.55433  -0.55019  -0.54383  -0.53903  -0.53628
 Alpha  occ. eigenvalues --   -0.53469  -0.53036  -0.52770  -0.52325  -0.52098
 Alpha  occ. eigenvalues --   -0.51737  -0.51123  -0.50100  -0.49956  -0.49371
 Alpha  occ. eigenvalues --   -0.48846  -0.48182  -0.47900  -0.47319  -0.46863
 Alpha  occ. eigenvalues --   -0.46532  -0.46320  -0.45533  -0.45173  -0.44908
 Alpha  occ. eigenvalues --   -0.44343  -0.44302  -0.43540  -0.42887  -0.41146
 Alpha  occ. eigenvalues --   -0.39699  -0.39192  -0.38784  -0.36958  -0.33935
 Alpha  occ. eigenvalues --   -0.33343  -0.31558
 Alpha virt. eigenvalues --   -0.18639  -0.13123  -0.12352  -0.11257  -0.10814
 Alpha virt. eigenvalues --   -0.10256  -0.08620  -0.06750  -0.05305  -0.04899
 Alpha virt. eigenvalues --   -0.04190  -0.02432  -0.01718  -0.01279  -0.00785

 Mulliken charges:
               1
     1  N   -0.728070
     2  H    0.312794
     3  H    0.327887
     4  C   -0.058466
     5  H    0.195162
     6  C    0.594795
     7  C   -0.295169
     8  H    0.207613
     9  H    0.138603
    10  O   -0.484751
    11  C   -0.367142
    12  H    0.231003
    13  H    0.209924
    14  C    0.582834
    15  O   -0.402365
    16  O   -0.634841
    17  N   -0.643567
    18  H    0.331983
    19  C   -0.036685
    20  H    0.184071
    21  C    0.655370
    22  C   -0.373029
    23  H    0.186397
    24  H    0.223345
    25  O   -0.584774
    26  C    0.143555
    27  C   -0.216495
    28  H    0.152602
    29  C   -0.192932
    30  H    0.136335
    31  C   -0.177563
    32  H    0.185561
    33  C   -0.185950
    34  H    0.148080
    35  O   -0.633531
    36  H    0.424384
    37  C    0.360709
    38  N   -0.535192
    39  H    0.382152
    40  C   -0.073132
    41  H    0.225014
    42  C    0.616498
    43  C   -0.312116
    44  H    0.160651
    45  H    0.204498
    46  O   -0.465710
    47  C   -0.282837
    48  H    0.138889
    49  H    0.147499
    50  C   -0.265018
    51  H    0.145734
    52  H    0.139041
    53  C   -0.156536
    54  H    0.140079
    55  H    0.168514
    56  N   -0.717841
    57  H    0.276743
    58  H    0.321658
    59  O   -0.543550
    60  H    0.497446
    61  H    0.427625
    62  H    0.442212
 Sum of Mulliken charges =   1.00000

 Dipole moment (field-independent basis, Debye):
    X=              5.9672    Y=              0.6625    Z=             -0.8090  Tot=              6.0582
 Quadrupole moment (field-independent basis, Debye-Ang):
   XX=           -149.4274   YY=           -183.2751   ZZ=           -135.5440
   XY=             -0.0092   XZ=            -12.4312   YZ=              1.4315

 Normal termination of Gaussian 16 at Thu Jun  2 00:24:17 2022.
