 Gaussian 16, Revision C.01,
 Gaussian 16:  ES64L-G16RevC.01  3-Jul-2019

 ----------------------------------------------------------------------
 # B3LYP/6-31G* empiricaldispersion=gd3 guess=read geom=check nosymm in
 tegral(ultrafinegrid)
 ----------------------------------------------------------------------

 ------------------------------------------------------
 Candidate Structure: Conf:234 Charge calc in gas phase
 ------------------------------------------------------
 Structure from the checkpoint file:  "conf-234.chk"
 Charge =  1 Multiplicity = 1

                          Input orientation:
 ---------------------------------------------------------------------
 Center     Atomic      Atomic             Coordinates (Angstroms)
 Number     Number       Type             X           Y           Z
 ---------------------------------------------------------------------
      1          7           0       -2.162432   -1.148537    4.245767
      2          1           0       -2.929210   -1.339897    3.604644
      3          1           0       -2.350336   -1.668287    5.100843
      4          6           0       -0.880557   -1.563222    3.675289
      5          1           0       -0.896768   -2.570583    3.213030
      6          6           0       -0.518753   -0.553220    2.585890
      7          6           0        0.203710   -1.551200    4.765766
      8          1           0       -0.045414   -2.334952    5.488781
      9          1           0        0.162789   -0.593393    5.290929
     10          8           0        0.140923    0.464123    2.805891
     11          6           0        1.631370   -1.784517    4.220391
     12          1           0        1.624372   -2.300780    3.254683
     13          1           0        2.193045   -2.429527    4.907417
     14          6           0        2.444710   -0.512146    4.126042
     15          8           0        2.516011    0.362702    4.944152
     16          8           0        3.230136   -0.461275    2.972880
     17          7           0       -0.927030   -0.824488    1.306934
     18          1           0       -1.143170   -1.779881    1.045743
     19          6           0       -0.400841    0.045923    0.271991
     20          1           0       -0.860128    1.035483    0.379732
     21          6           0        1.088584    0.223535    0.528723
     22          6           0       -0.708075   -0.477408   -1.161413
     23          1           0       -1.800203   -0.466957   -1.253149
     24          1           0       -0.327784    0.271689   -1.865438
     25          8           0        1.751561   -0.853531    0.830937
     26          6           0       -0.152163   -1.842750   -1.486778
     27          6           0        1.119981   -1.981659   -2.064135
     28          1           0        1.708661   -1.109648   -2.335399
     29          6           0       -0.885267   -3.005018   -1.213927
     30          1           0       -1.900772   -2.929818   -0.826712
     31          6           0        1.654600   -3.233160   -2.335184
     32          1           0        2.633942   -3.328105   -2.791783
     33          6           0       -0.358615   -4.270375   -1.475304
     34          1           0       -0.948120   -5.160538   -1.267381
     35          8           0        1.501629   -5.583317   -2.319990
     36          1           0        0.892691   -6.309509   -2.111868
     37          6           0        0.920161   -4.388609   -2.033487
     38          7           0        1.666096    1.385085    0.338548
     39          1           0        1.065132    2.197053    0.217872
     40          6           0        3.103099    1.685515    0.455893
     41          1           0        3.627483    0.757907    0.679628
     42          6           0        3.228749    2.674213    1.615483
     43          6           0        3.642351    2.248784   -0.871247
     44          1           0        3.211347    3.241806   -1.046857
     45          1           0        4.723824    2.388003   -0.750022
     46          8           0        2.615064    3.708472    1.663626
     47          6           0        3.341044    1.287239   -2.027730
     48          1           0        2.264521    1.312319   -2.246384
     49          1           0        3.562267    0.257553   -1.723531
     50          6           0        4.111415    1.586994   -3.316081
     51          1           0        3.962015    2.631285   -3.620047
     52          1           0        5.189239    1.468211   -3.133322
     53          6           0        3.676880    0.669699   -4.467307
     54          1           0        2.622458    0.866372   -4.700949
     55          1           0        4.254553    0.930261   -5.369025
     56          7           0        3.783356   -0.747880   -4.083057
     57          1           0        4.767249   -1.006981   -4.007935
     58          1           0        3.399632   -1.332045   -4.824029
     59          8           0        4.083980    2.231579    2.568270
     60          1           0        2.478926   -0.712965    1.511098
     61          1           0        3.752151    0.370598    3.036106
     62          1           0        4.088820    2.875021    3.306611
 ---------------------------------------------------------------------

 SCF Done:  E(RB3LYP) =  -1526.26217117     A.U. after    1 cycles

 Alpha  occ. eigenvalues --  -19.34584 -19.34426 -19.32117 -19.28142 -19.26857
 Alpha  occ. eigenvalues --  -19.25294 -19.24888 -14.55328 -14.49147 -14.42089
 Alpha  occ. eigenvalues --  -14.40799 -10.48488 -10.46382 -10.43576 -10.41101
 Alpha  occ. eigenvalues --  -10.39443 -10.38483 -10.34557 -10.33829 -10.32527
 Alpha  occ. eigenvalues --  -10.32060 -10.31298 -10.30035 -10.29591 -10.29557
 Alpha  occ. eigenvalues --  -10.29553 -10.29516 -10.28698 -10.28563 -10.28216
 Alpha  occ. eigenvalues --  -10.27818  -1.25829  -1.24695  -1.21714  -1.16886
 Alpha  occ. eigenvalues --   -1.16248  -1.15062  -1.13163  -1.12166  -1.05899
 Alpha  occ. eigenvalues --   -0.99733  -0.97350  -0.95755  -0.95008  -0.91071
 Alpha  occ. eigenvalues --   -0.90104  -0.88150  -0.85199  -0.84513  -0.82217
 Alpha  occ. eigenvalues --   -0.81476  -0.80723  -0.77473  -0.76489  -0.75867
 Alpha  occ. eigenvalues --   -0.74140  -0.73137  -0.72094  -0.71442  -0.69568
 Alpha  occ. eigenvalues --   -0.68526  -0.68393  -0.65965  -0.64678  -0.63855
 Alpha  occ. eigenvalues --   -0.63233  -0.62885  -0.61982  -0.61186  -0.60779
 Alpha  occ. eigenvalues --   -0.60165  -0.59810  -0.58916  -0.58655  -0.58377
 Alpha  occ. eigenvalues --   -0.57660  -0.57575  -0.56783  -0.55995  -0.55724
 Alpha  occ. eigenvalues --   -0.55351  -0.54909  -0.54141  -0.53841  -0.53545
 Alpha  occ. eigenvalues --   -0.52861  -0.52115  -0.51853  -0.51561  -0.51411
 Alpha  occ. eigenvalues --   -0.51024  -0.49836  -0.49494  -0.49428  -0.48898
 Alpha  occ. eigenvalues --   -0.47657  -0.47123  -0.47090  -0.46466  -0.46025
 Alpha  occ. eigenvalues --   -0.45823  -0.45639  -0.45474  -0.44597  -0.43859
 Alpha  occ. eigenvalues --   -0.43555  -0.43309  -0.43046  -0.42495  -0.41402
 Alpha  occ. eigenvalues --   -0.39910  -0.38861  -0.38449  -0.34940  -0.34026
 Alpha  occ. eigenvalues --   -0.33129  -0.31522
 Alpha virt. eigenvalues --   -0.17546  -0.13423  -0.11411  -0.10327  -0.10082
 Alpha virt. eigenvalues --   -0.09225  -0.06206  -0.05291  -0.03947  -0.03223
 Alpha virt. eigenvalues --   -0.02606  -0.01489  -0.01074  -0.00474   0.00036

 Mulliken charges:
               1
     1  N   -0.708651
     2  H    0.313234
     3  H    0.324526
     4  C   -0.073913
     5  H    0.125657
     6  C    0.659325
     7  C   -0.278407
     8  H    0.160965
     9  H    0.218015
    10  O   -0.528734
    11  C   -0.377877
    12  H    0.165279
    13  H    0.213186
    14  C    0.620149
    15  O   -0.421463
    16  O   -0.673370
    17  N   -0.599097
    18  H    0.353161
    19  C   -0.020675
    20  H    0.196037
    21  C    0.655815
    22  C   -0.409342
    23  H    0.197125
    24  H    0.177301
    25  O   -0.579036
    26  C    0.170316
    27  C   -0.201619
    28  H    0.167164
    29  C   -0.220328
    30  H    0.137001
    31  C   -0.165803
    32  H    0.158830
    33  C   -0.189698
    34  H    0.142017
    35  O   -0.626801
    36  H    0.418911
    37  C    0.359355
    38  N   -0.541186
    39  H    0.390098
    40  C   -0.105552
    41  H    0.183515
    42  C    0.632357
    43  C   -0.283945
    44  H    0.180387
    45  H    0.182661
    46  O   -0.419851
    47  C   -0.263040
    48  H    0.132468
    49  H    0.168745
    50  C   -0.269978
    51  H    0.153044
    52  H    0.145577
    53  C   -0.146168
    54  H    0.146125
    55  H    0.146425
    56  N   -0.732015
    57  H    0.306521
    58  H    0.317752
    59  O   -0.584313
    60  H    0.495186
    61  H    0.453781
    62  H    0.452854
 Sum of Mulliken charges =   1.00000

 Dipole moment (field-independent basis, Debye):
    X=              7.0876    Y=             -4.0604    Z=              0.4176  Tot=              8.1790
 Quadrupole moment (field-independent basis, Debye-Ang):
   XX=           -129.7453   YY=           -142.6955   ZZ=           -145.5788
   XY=             22.3925   XZ=             -8.0310   YZ=            -15.4367

 Normal termination of Gaussian 16 at Thu Jun  2 00:24:18 2022.
