 Gaussian 16, Revision C.01,
 Gaussian 16:  ES64L-G16RevC.01  3-Jul-2019

 ----------------------------------------------------------------------
 # B3LYP/6-31G* empiricaldispersion=gd3 guess=read geom=check nosymm in
 tegral(ultrafinegrid)
 ----------------------------------------------------------------------

 ------------------------------------------------------
 Candidate Structure: Conf:883 Charge calc in gas phase
 ------------------------------------------------------
 Structure from the checkpoint file:  "conf-883.chk"
 Charge =  1 Multiplicity = 1

                          Input orientation:
 ---------------------------------------------------------------------
 Center     Atomic      Atomic             Coordinates (Angstroms)
 Number     Number       Type             X           Y           Z
 ---------------------------------------------------------------------
      1          7           0       -2.711513   -4.077677    1.662300
      2          1           0       -3.263340   -3.316491    1.199219
      3          1           0       -2.568533   -4.816885    0.969311
      4          6           0       -1.425776   -3.394394    2.049736
      5          1           0       -0.595563   -4.082061    1.865950
      6          6           0       -1.365289   -2.163300    1.102796
      7          6           0       -1.445114   -2.939864    3.521595
      8          1           0       -2.348762   -2.343252    3.696660
      9          1           0       -0.601749   -2.252250    3.639729
     10          8           0       -2.410540   -1.812004    0.542235
     11          6           0       -1.303145   -4.033460    4.595325
     12          1           0       -0.993547   -3.579043    5.541433
     13          1           0       -0.504824   -4.742771    4.335099
     14          6           0       -2.554752   -4.842509    4.863934
     15          8           0       -3.482334   -4.998756    4.075863
     16          8           0       -2.543645   -5.398052    6.069795
     17          7           0       -0.186971   -1.557868    1.009171
     18          1           0        0.649973   -1.876194    1.500719
     19          6           0        0.045409   -0.328887    0.253576
     20          1           0       -0.785830    0.357924    0.441618
     21          6           0        1.355441    0.237147    0.837156
     22          6           0        0.134119   -0.618961   -1.269883
     23          1           0        0.956686   -1.324592   -1.433318
     24          1           0       -0.797538   -1.130801   -1.539548
     25          8           0        2.106455   -0.503573    1.480206
     26          6           0        0.325432    0.622718   -2.108173
     27          6           0       -0.663684    1.619297   -2.153093
     28          1           0       -1.597464    1.477582   -1.611358
     29          6           0        1.497142    0.827672   -2.844645
     30          1           0        2.275684    0.067930   -2.835678
     31          6           0       -0.479752    2.787716   -2.885197
     32          1           0       -1.240683    3.561024   -2.913303
     33          6           0        1.683101    1.979325   -3.607405
     34          1           0        2.581397    2.102144   -4.204886
     35          8           0        0.828045    4.131131   -4.317873
     36          1           0        1.789181    4.334594   -4.516358
     37          6           0        0.702047    2.985419   -3.621274
     38          7           0        1.592941    1.536381    0.585815
     39          1           0        0.892201    2.076357    0.093395
     40          6           0        2.755207    2.243595    1.098340
     41          1           0        3.323840    1.527600    1.696620
     42          6           0        2.278239    3.373204    2.006934
     43          6           0        3.654606    2.791525   -0.033568
     44          1           0        4.603173    3.114291    0.409763
     45          1           0        3.873394    1.952381   -0.704491
     46          8           0        1.132812    3.751531    2.100055
     47          6           0        3.028369    3.946910   -0.823958
     48          1           0        2.936675    4.830648   -0.177757
     49          1           0        2.011200    3.683254   -1.142293
     50          6           0        3.836716    4.298766   -2.077219
     51          1           0        4.884601    4.488835   -1.809897
     52          1           0        3.836277    3.423582   -2.737422
     53          6           0        3.256521    5.500506   -2.845308
     54          1           0        2.199448    5.632925   -2.589241
     55          1           0        3.778593    6.423455   -2.554608
     56          7           0        3.300548    5.260521   -4.306207
     57          1           0        4.239074    4.985332   -4.594188
     58          1           0        3.089652    6.122587   -4.809324
     59          8           0        3.315341    3.931129    2.664313
     60          1           0       -3.194533   -4.472685    2.509323
     61          1           0       -3.357705   -5.928816    6.181062
     62          1           0        2.957115    4.666887    3.196874
 ---------------------------------------------------------------------

 SCF Done:  E(RB3LYP) =  -1526.31573417     A.U. after    3 cycles

 Alpha  occ. eigenvalues --  -19.33914 -19.29587 -19.27870 -19.26107 -19.22267
 Alpha  occ. eigenvalues --  -19.21877 -19.21297 -14.57690 -14.49047 -14.45667
 Alpha  occ. eigenvalues --  -14.41109 -10.47428 -10.43081 -10.40673 -10.40235
 Alpha  occ. eigenvalues --  -10.38984 -10.35336 -10.34898 -10.34266 -10.32311
 Alpha  occ. eigenvalues --  -10.31169 -10.28608 -10.28451 -10.27040 -10.26510
 Alpha  occ. eigenvalues --  -10.26268 -10.26256 -10.26040 -10.25750 -10.25347
 Alpha  occ. eigenvalues --  -10.25142  -1.25518  -1.18800  -1.18456  -1.16566
 Alpha  occ. eigenvalues --   -1.13847  -1.12362  -1.10022  -1.09957  -1.05729
 Alpha  occ. eigenvalues --   -1.02428  -0.96773  -0.95690  -0.92652  -0.89974
 Alpha  occ. eigenvalues --   -0.88642  -0.86698  -0.83920  -0.81751  -0.81529
 Alpha  occ. eigenvalues --   -0.79827  -0.77098  -0.75118  -0.73793  -0.72821
 Alpha  occ. eigenvalues --   -0.72263  -0.71972  -0.70871  -0.69809  -0.68312
 Alpha  occ. eigenvalues --   -0.67864  -0.66282  -0.65880  -0.65566  -0.64437
 Alpha  occ. eigenvalues --   -0.63655  -0.61732  -0.60926  -0.60597  -0.59621
 Alpha  occ. eigenvalues --   -0.58818  -0.57497  -0.57391  -0.56788  -0.56727
 Alpha  occ. eigenvalues --   -0.55934  -0.55683  -0.55207  -0.54926  -0.54546
 Alpha  occ. eigenvalues --   -0.53897  -0.53383  -0.52802  -0.52258  -0.51603
 Alpha  occ. eigenvalues --   -0.51449  -0.51270  -0.50770  -0.50065  -0.49902
 Alpha  occ. eigenvalues --   -0.49454  -0.48868  -0.48426  -0.47676  -0.46953
 Alpha  occ. eigenvalues --   -0.46521  -0.46480  -0.45823  -0.44882  -0.44185
 Alpha  occ. eigenvalues --   -0.43891  -0.43231  -0.42587  -0.41522  -0.40835
 Alpha  occ. eigenvalues --   -0.40603  -0.40563  -0.40159  -0.39999  -0.39091
 Alpha  occ. eigenvalues --   -0.37998  -0.36201  -0.35740  -0.34872  -0.33362
 Alpha  occ. eigenvalues --   -0.32159  -0.28014
 Alpha virt. eigenvalues --   -0.14024  -0.11863  -0.09164  -0.07709  -0.07423
 Alpha virt. eigenvalues --   -0.07168  -0.05963  -0.04565  -0.04080  -0.03119
 Alpha virt. eigenvalues --   -0.01757  -0.00350  -0.00006   0.00318   0.00969

 Mulliken charges:
               1
     1  N   -0.777501
     2  H    0.421740
     3  H    0.405247
     4  C   -0.114278
     5  H    0.203970
     6  C    0.648833
     7  C   -0.305205
     8  H    0.198117
     9  H    0.208609
    10  O   -0.533474
    11  C   -0.377644
    12  H    0.227552
    13  H    0.210988
    14  C    0.617369
    15  O   -0.497406
    16  O   -0.520172
    17  N   -0.611392
    18  H    0.367106
    19  C   -0.065514
    20  H    0.194000
    21  C    0.625083
    22  C   -0.349539
    23  H    0.157270
    24  H    0.180812
    25  O   -0.547274
    26  C    0.149201
    27  C   -0.218847
    28  H    0.135567
    29  C   -0.191133
    30  H    0.130778
    31  C   -0.164666
    32  H    0.151924
    33  C   -0.197015
    34  H    0.141359
    35  O   -0.681991
    36  H    0.458659
    37  C    0.365479
    38  N   -0.582088
    39  H    0.364122
    40  C   -0.081871
    41  H    0.213149
    42  C    0.593555
    43  C   -0.262158
    44  H    0.170254
    45  H    0.160212
    46  O   -0.460951
    47  C   -0.294440
    48  H    0.151882
    49  H    0.153730
    50  C   -0.276654
    51  H    0.147204
    52  H    0.149332
    53  C   -0.146191
    54  H    0.170098
    55  H    0.148965
    56  N   -0.775081
    57  H    0.323240
    58  H    0.332559
    59  O   -0.560667
    60  H    0.448077
    61  H    0.443789
    62  H    0.423324
 Sum of Mulliken charges =   1.00000

 Dipole moment (field-independent basis, Debye):
    X=             -1.1186    Y=             -9.9826    Z=              8.9236  Tot=             13.4363
 Quadrupole moment (field-independent basis, Debye-Ang):
   XX=           -139.1770   YY=            -62.7115   ZZ=           -120.7751
   XY=             70.8515   XZ=            -42.7060   YZ=            -62.3889

 Normal termination of Gaussian 16 at Thu Jun  2 00:24:37 2022.
