 Gaussian 16, Revision C.01,
 Gaussian 16:  ES64L-G16RevC.01  3-Jul-2019

 ----------------------------------------------------------------------
 # B3LYP/6-31G* empiricaldispersion=gd3 guess=read geom=check nosymm in
 tegral(ultrafinegrid)
 ----------------------------------------------------------------------

 ------------------------------------------------------
 Candidate Structure: Conf:197 Charge calc in gas phase
 ------------------------------------------------------
 Structure from the checkpoint file:  "conf-197.chk"
 Charge =  1 Multiplicity = 1

                          Input orientation:
 ---------------------------------------------------------------------
 Center     Atomic      Atomic             Coordinates (Angstroms)
 Number     Number       Type             X           Y           Z
 ---------------------------------------------------------------------
      1          7           0       -0.455088   -3.569873    3.241182
      2          1           0        0.107245   -3.183933    3.994270
      3          1           0       -0.954951   -4.382736    3.588530
      4          6           0       -1.327076   -2.569811    2.606398
      5          1           0       -1.245281   -1.609349    3.123230
      6          6           0       -0.706032   -2.330811    1.217903
      7          6           0       -2.829728   -2.995704    2.537763
      8          1           0       -2.918895   -4.016750    2.924006
      9          1           0       -3.159222   -3.044332    1.494613
     10          8           0        0.257346   -3.120440    0.881180
     11          6           0       -3.807554   -2.096368    3.321524
     12          1           0       -3.447709   -1.917682    4.343482
     13          1           0       -4.784157   -2.579696    3.410463
     14          6           0       -3.965859   -0.754381    2.646766
     15          8           0       -3.034631   -0.168244    2.103728
     16          8           0       -5.189803   -0.236314    2.660657
     17          7           0       -1.155761   -1.391341    0.428635
     18          1           0       -1.870095   -0.804675    0.873117
     19          6           0       -0.371379   -0.776720   -0.650578
     20          1           0       -1.013992    0.006101   -1.064208
     21          6           0        0.861787   -0.089868    0.044420
     22          6           0       -0.031937   -1.766032   -1.810255
     23          1           0        0.561689   -2.594895   -1.420726
     24          1           0       -0.984892   -2.176824   -2.165122
     25          8           0        1.161838   -0.375793    1.200224
     26          6           0        0.717510   -1.048208   -2.908506
     27          6           0        0.085708   -0.047963   -3.665279
     28          1           0       -0.996753    0.057182   -3.625812
     29          6           0        2.104854   -1.187440   -3.026098
     30          1           0        2.617583   -1.963487   -2.463999
     31          6           0        0.825101    0.865819   -4.411884
     32          1           0        0.344097    1.674994   -4.951665
     33          6           0        2.858799   -0.287533   -3.776193
     34          1           0        3.941471   -0.369160   -3.802614
     35          8           0        2.910636    1.821168   -4.977187
     36          1           0        3.849385    1.755209   -4.730158
     37          6           0        2.223625    0.787010   -4.408572
     38          7           0        1.495238    0.808220   -0.733887
     39          1           0        1.107656    0.991101   -1.650139
     40          6           0        2.779369    1.470695   -0.427532
     41          1           0        2.603748    2.229430    0.347824
     42          6           0        3.194912    2.199092   -1.716983
     43          6           0        3.876574    0.498401    0.029956
     44          1           0        3.446765   -0.167008    0.782116
     45          1           0        4.174194   -0.113834   -0.828956
     46          8           0        4.263296    2.080267   -2.274495
     47          6           0        5.098572    1.209912    0.624110
     48          1           0        4.774016    1.820668    1.479126
     49          1           0        5.528391    1.895201   -0.115426
     50          6           0        6.175950    0.221790    1.084696
     51          1           0        5.748485   -0.465841    1.830963
     52          1           0        6.485517   -0.399238    0.231331
     53          6           0        7.422466    0.903143    1.682148
     54          1           0        8.172099    0.134981    1.908978
     55          1           0        7.873478    1.558983    0.925757
     56          7           0        7.223585    1.699594    2.894318
     57          1           0        6.775667    1.137219    3.616720
     58          1           0        6.604075    2.486347    2.711767
     59          8           0        2.190949    2.958615   -2.201233
     60          1           0        0.395697   -3.676819    1.722990
     61          1           0       -5.155159    0.637163    2.222698
     62          1           0        2.462645    3.263672   -3.091148
 ---------------------------------------------------------------------

 SCF Done:  E(RB3LYP) =  -1526.27200011     A.U. after    1 cycles

 Alpha  occ. eigenvalues --  -19.34622 -19.33406 -19.29497 -19.28178 -19.27250
 Alpha  occ. eigenvalues --  -19.24216 -19.23129 -14.52463 -14.49417 -14.47030
 Alpha  occ. eigenvalues --  -14.36524 -10.46929 -10.46590 -10.42263 -10.40474
 Alpha  occ. eigenvalues --  -10.39417 -10.37176 -10.35175 -10.34631 -10.34393
 Alpha  occ. eigenvalues --  -10.33961 -10.31126 -10.29341 -10.29207 -10.28973
 Alpha  occ. eigenvalues --  -10.28496 -10.28480 -10.26544 -10.26031 -10.25259
 Alpha  occ. eigenvalues --  -10.24327  -1.25765  -1.24845  -1.20667  -1.15395
 Alpha  occ. eigenvalues --   -1.15224  -1.15088  -1.11641  -1.10211  -1.05757
 Alpha  occ. eigenvalues --   -1.03674  -0.95841  -0.94300  -0.93312  -0.91662
 Alpha  occ. eigenvalues --   -0.88400  -0.86993  -0.84739  -0.84187  -0.82986
 Alpha  occ. eigenvalues --   -0.80223  -0.78694  -0.77306  -0.75949  -0.73633
 Alpha  occ. eigenvalues --   -0.72071  -0.71794  -0.70295  -0.68996  -0.68031
 Alpha  occ. eigenvalues --   -0.67408  -0.66919  -0.66270  -0.65114  -0.64615
 Alpha  occ. eigenvalues --   -0.64390  -0.64030  -0.62232  -0.61793  -0.60753
 Alpha  occ. eigenvalues --   -0.59870  -0.59238  -0.58594  -0.58327  -0.57638
 Alpha  occ. eigenvalues --   -0.57344  -0.56459  -0.55954  -0.55324  -0.54738
 Alpha  occ. eigenvalues --   -0.54119  -0.53653  -0.53357  -0.53116  -0.52897
 Alpha  occ. eigenvalues --   -0.52131  -0.51924  -0.51328  -0.51245  -0.50223
 Alpha  occ. eigenvalues --   -0.49729  -0.49597  -0.49512  -0.49234  -0.48101
 Alpha  occ. eigenvalues --   -0.47221  -0.47055  -0.46748  -0.45899  -0.45459
 Alpha  occ. eigenvalues --   -0.44605  -0.43749  -0.43436  -0.43113  -0.43047
 Alpha  occ. eigenvalues --   -0.42317  -0.41784  -0.41616  -0.41088  -0.39739
 Alpha  occ. eigenvalues --   -0.39316  -0.37773  -0.36626  -0.36342  -0.34766
 Alpha  occ. eigenvalues --   -0.31616  -0.28471
 Alpha virt. eigenvalues --   -0.16137  -0.13691  -0.10520  -0.10386  -0.09400
 Alpha virt. eigenvalues --   -0.08535  -0.06764  -0.04760  -0.04342  -0.02342
 Alpha virt. eigenvalues --   -0.01832  -0.01684  -0.01189  -0.00223   0.00976

 Mulliken charges:
               1
     1  N   -0.802975
     2  H    0.367692
     3  H    0.355920
     4  C   -0.052520
     5  H    0.229562
     6  C    0.637259
     7  C   -0.314674
     8  H    0.184904
     9  H    0.191964
    10  O   -0.534388
    11  C   -0.364289
    12  H    0.211662
    13  H    0.214288
    14  C    0.605860
    15  O   -0.497864
    16  O   -0.521946
    17  N   -0.574755
    18  H    0.424022
    19  C   -0.117177
    20  H    0.188291
    21  C    0.651065
    22  C   -0.353479
    23  H    0.192818
    24  H    0.172237
    25  O   -0.530424
    26  C    0.131431
    27  C   -0.216465
    28  H    0.139913
    29  C   -0.175445
    30  H    0.147960
    31  C   -0.152782
    32  H    0.164709
    33  C   -0.183874
    34  H    0.160625
    35  O   -0.649553
    36  H    0.431440
    37  C    0.336725
    38  N   -0.639065
    39  H    0.374696
    40  C    0.012788
    41  H    0.192102
    42  C    0.576331
    43  C   -0.277849
    44  H    0.174648
    45  H    0.147981
    46  O   -0.465298
    47  C   -0.274845
    48  H    0.121008
    49  H    0.163278
    50  C   -0.262572
    51  H    0.120435
    52  H    0.132328
    53  C   -0.146648
    54  H    0.150000
    55  H    0.147648
    56  N   -0.700359
    57  H    0.291100
    58  H    0.296945
    59  O   -0.570756
    60  H    0.467774
    61  H    0.437174
    62  H    0.433420
 Sum of Mulliken charges =   1.00000

 Dipole moment (field-independent basis, Debye):
    X=             -6.9667    Y=             -7.7112    Z=              5.3885  Tot=             11.7062
 Quadrupole moment (field-independent basis, Debye-Ang):
   XX=           -153.3215   YY=           -141.5140   ZZ=           -137.6709
   XY=              8.5361   XZ=            -33.1429   YZ=            -35.2603

 Normal termination of Gaussian 16 at Thu Jun  2 00:24:16 2022.
