 Gaussian 16, Revision C.01,
 Gaussian 16:  ES64L-G16RevC.01  3-Jul-2019

 ----------------------------------------------------------------------
 # B3LYP/6-31G* empiricaldispersion=gd3 guess=read geom=check nosymm in
 tegral(ultrafinegrid)
 ----------------------------------------------------------------------

 ------------------------------------------------------
 Candidate Structure: Conf:549 Charge calc in gas phase
 ------------------------------------------------------
 Structure from the checkpoint file:  "conf-549.chk"
 Charge =  1 Multiplicity = 1

                          Input orientation:
 ---------------------------------------------------------------------
 Center     Atomic      Atomic             Coordinates (Angstroms)
 Number     Number       Type             X           Y           Z
 ---------------------------------------------------------------------
      1          7           0       -4.506709   -1.528683    2.818940
      2          1           0       -4.767088   -0.544232    2.887961
      3          1           0       -5.098837   -1.922855    2.090573
      4          6           0       -3.106062   -1.626078    2.446158
      5          1           0       -2.899741   -2.659385    2.142165
      6          6           0       -2.694000   -0.670761    1.326187
      7          6           0       -2.192493   -1.305285    3.677555
      8          1           0       -1.817308   -2.720074    4.181979
      9          1           0       -2.801362   -1.017657    4.544535
     10          8           0       -3.214492    0.409409    1.126620
     11          6           0       -1.200221   -0.128095    3.399523
     12          1           0       -0.614510    0.020094    4.317505
     13          1           0       -1.643052    0.841823    3.121542
     14          6           0       -0.239226   -0.627626    2.359779
     15          8           0       -1.020209   -2.227343    3.675429
     16          8           0        2.057247   -0.819409    4.553891
     17          7           0       -1.521100   -1.056464    0.681260
     18          1           0       -1.204231   -2.016420    0.754031
     19          6           0       -0.826967   -0.172568   -0.231036
     20          1           0       -1.566306    0.514856   -0.656184
     21          6           0        0.116123    0.698223    0.594403
     22          6           0       -0.130167   -0.944919   -1.387167
     23          1           0        0.671827   -1.565732   -0.970771
     24          1           0       -0.891045   -1.627356   -1.785871
     25          8           0        0.231791    0.457279    1.849598
     26          6           0        0.398890   -0.048167   -2.483709
     27          6           0       -0.482467    0.759504   -3.225468
     28          1           0       -1.552035    0.720138   -3.026071
     29          6           0        1.764479    0.008951   -2.793282
     30          1           0        2.466490   -0.618441   -2.248236
     31          6           0       -0.018026    1.606190   -4.222697
     32          1           0       -0.697319    2.231347   -4.792910
     33          6           0        2.242232    0.839982   -3.805974
     34          1           0        3.298167    0.844448   -4.058370
     35          8           0        1.741290    2.499793   -5.499088
     36          1           0        2.702110    2.773665   -5.406519
     37          6           0        1.355313    1.662947   -4.524413
     38          7           0        0.782770    1.699596    0.063998
     39          1           0        0.671621    1.853968   -0.935409
     40          6           0        1.681235    2.586129    0.818353
     41          1           0        1.997730    2.026665    1.705447
     42          6           0        0.938919    3.823114    1.346144
     43          6           0        2.921937    2.962216   -0.004703
     44          1           0        3.604849    3.481024    0.674976
     45          1           0        3.410322    2.028070   -0.307698
     46          8           0        1.500855    4.849260    1.637828
     47          6           0        2.661925    3.845176   -1.232523
     48          1           0        2.319552    4.832848   -0.903226
     49          1           0        1.865272    3.423834   -1.863431
     50          6           0        3.924080    3.973347   -2.094527
     51          1           0        4.757036    4.335489   -1.478341
     52          1           0        4.204676    2.970647   -2.439517
     53          6           0        3.739263    4.880838   -3.324286
     54          1           0        2.675703    4.964500   -3.575478
     55          1           0        4.100764    5.895257   -3.104853
     56          7           0        4.401587    4.285413   -4.506797
     57          1           0        5.376481    4.070624   -4.298425
     58          1           0        4.416606    4.956369   -5.275216
     59          8           0       -0.383688    3.603123    1.487452
     60          1           0        2.753911   -0.901832    5.221252
     61          1           0        1.823715   -1.726122    4.291563
     62          1           0       -0.775208    4.416520    1.861164
 ---------------------------------------------------------------------

 SCF Done:  E(RB3LYP) =  -1525.99663539     A.U. after    1 cycles

 Alpha  occ. eigenvalues --  -19.39346 -19.31889 -19.27167 -19.26404 -19.26321
 Alpha  occ. eigenvalues --  -19.25972 -19.22196 -14.54166 -14.52662 -14.42539
 Alpha  occ. eigenvalues --  -14.41350 -10.47861 -10.44375 -10.42462 -10.39830
 Alpha  occ. eigenvalues --  -10.38040 -10.37353 -10.36762 -10.35149 -10.34787
 Alpha  occ. eigenvalues --  -10.33604 -10.30882 -10.30692 -10.30211 -10.30126
 Alpha  occ. eigenvalues --  -10.29926 -10.29837 -10.29209 -10.29084 -10.28825
 Alpha  occ. eigenvalues --  -10.27950  -1.32670  -1.22716  -1.18519  -1.14499
 Alpha  occ. eigenvalues --   -1.13877  -1.13371  -1.12539  -1.08502  -1.07820
 Alpha  occ. eigenvalues --   -1.00266  -0.97233  -0.96867  -0.95535  -0.91797
 Alpha  occ. eigenvalues --   -0.91532  -0.87641  -0.86314  -0.85373  -0.85062
 Alpha  occ. eigenvalues --   -0.80726  -0.80482  -0.78813  -0.76076  -0.74821
 Alpha  occ. eigenvalues --   -0.73287  -0.72853  -0.71742  -0.71023  -0.69708
 Alpha  occ. eigenvalues --   -0.68834  -0.68401  -0.66196  -0.65611  -0.64381
 Alpha  occ. eigenvalues --   -0.63407  -0.62859  -0.62556  -0.61045  -0.60356
 Alpha  occ. eigenvalues --   -0.59839  -0.59299  -0.58923  -0.58443  -0.58015
 Alpha  occ. eigenvalues --   -0.57480  -0.57329  -0.56771  -0.55794  -0.55492
 Alpha  occ. eigenvalues --   -0.54944  -0.54157  -0.53986  -0.53710  -0.52771
 Alpha  occ. eigenvalues --   -0.52631  -0.52426  -0.51646  -0.51283  -0.51075
 Alpha  occ. eigenvalues --   -0.50956  -0.50479  -0.49936  -0.48015  -0.47786
 Alpha  occ. eigenvalues --   -0.47487  -0.47333  -0.46442  -0.46084  -0.45394
 Alpha  occ. eigenvalues --   -0.44330  -0.44102  -0.43657  -0.43371  -0.43190
 Alpha  occ. eigenvalues --   -0.43008  -0.42868  -0.42024  -0.39926  -0.39377
 Alpha  occ. eigenvalues --   -0.39117  -0.37557  -0.35978  -0.35017  -0.33624
 Alpha  occ. eigenvalues --   -0.32178  -0.31321
 Alpha virt. eigenvalues --   -0.18754  -0.14641  -0.11945  -0.11307  -0.11104
 Alpha virt. eigenvalues --   -0.10169  -0.06431  -0.04730  -0.04378  -0.03287
 Alpha virt. eigenvalues --   -0.02792  -0.02187  -0.02003  -0.01470  -0.00746

 Mulliken charges:
               1
     1  N   -0.697394
     2  H    0.325479
     3  H    0.324516
     4  C   -0.053193
     5  H    0.169723
     6  C    0.567050
     7  C   -0.026643
     8  H    0.387387
     9  H    0.209527
    10  O   -0.469149
    11  C   -0.367656
    12  H    0.243243
    13  H    0.155281
    14  C    0.171769
    15  O   -0.547852
    16  O   -0.797016
    17  N   -0.626308
    18  H    0.388365
    19  C   -0.046247
    20  H    0.237905
    21  C    0.647318
    22  C   -0.373608
    23  H    0.180611
    24  H    0.200266
    25  O   -0.316186
    26  C    0.110979
    27  C   -0.205295
    28  H    0.147186
    29  C   -0.199409
    30  H    0.144848
    31  C   -0.160223
    32  H    0.168902
    33  C   -0.188169
    34  H    0.157675
    35  O   -0.645147
    36  H    0.432139
    37  C    0.369482
    38  N   -0.581856
    39  H    0.398312
    40  C   -0.109616
    41  H    0.235825
    42  C    0.619686
    43  C   -0.279242
    44  H    0.196590
    45  H    0.160889
    46  O   -0.425304
    47  C   -0.302607
    48  H    0.180293
    49  H    0.134085
    50  C   -0.274318
    51  H    0.156950
    52  H    0.146601
    53  C   -0.138618
    54  H    0.154370
    55  H    0.149976
    56  N   -0.753809
    57  H    0.315333
    58  H    0.321796
    59  O   -0.567550
    60  H    0.402049
    61  H    0.402629
    62  H    0.437381
 Sum of Mulliken charges =   1.00000

 Dipole moment (field-independent basis, Debye):
    X=              2.6312    Y=              3.0829    Z=              1.0042  Tot=              4.1756
 Quadrupole moment (field-independent basis, Debye-Ang):
   XX=           -132.0103   YY=           -141.9767   ZZ=           -142.9604
   XY=             25.5128   XZ=            -22.7119   YZ=            -24.6750

 Normal termination of Gaussian 16 at Thu Jun  2 00:24:17 2022.
