 Gaussian 16, Revision C.01,
 Gaussian 16:  ES64L-G16RevC.01  3-Jul-2019

 ----------------------------------------------------------------------
 # B3LYP/6-31G* empiricaldispersion=gd3 guess=read geom=check nosymm in
 tegral(ultrafinegrid)
 ----------------------------------------------------------------------

 ------------------------------------------------------
 Candidate Structure: Conf:112 Charge calc in gas phase
 ------------------------------------------------------
 Structure from the checkpoint file:  "conf-112.chk"
 Charge =  1 Multiplicity = 1

                          Input orientation:
 ---------------------------------------------------------------------
 Center     Atomic      Atomic             Coordinates (Angstroms)
 Number     Number       Type             X           Y           Z
 ---------------------------------------------------------------------
      1          7           0       -1.723098    0.223391    2.882078
      2          1           0       -2.187709    0.323615    3.780930
      3          1           0       -0.713312    0.207689    3.040603
      4          6           0       -2.140863   -0.990338    2.189680
      5          1           0       -3.237090   -1.047345    2.229604
      6          6           0       -1.725294   -0.902547    0.699223
      7          6           0       -1.537738   -2.256673    2.852537
      8          1           0       -1.843797   -2.308785    3.899320
      9          1           0       -0.446608   -2.180652    2.803645
     10          8           0       -1.464367   -1.915315    0.033655
     11          6           0       -2.017942   -3.553777    2.119098
     12          1           0       -1.790606   -3.370025    1.033554
     13          1           0       -3.086803   -3.744956    2.258076
     14          6           0       -1.286555   -4.699751    2.513305
     15          8           0       -0.561727   -5.563186    2.648386
     16          8           0       -2.397271   -4.722247    4.713485
     17          7           0       -1.635144    0.345869    0.205939
     18          1           0       -1.800678    1.070663    0.898493
     19          6           0       -0.773317    0.660925   -0.950589
     20          1           0       -0.650619    1.749547   -0.925467
     21          6           0        0.616561    0.025798   -0.687502
     22          6           0       -1.332272    0.276627   -2.329182
     23          1           0       -1.325428   -0.811505   -2.420850
     24          1           0       -2.374668    0.613997   -2.370907
     25          8           0        1.160508   -0.763723   -1.439294
     26          6           0       -0.507927    0.927046   -3.425052
     27          6           0       -0.586019    2.309897   -3.648862
     28          1           0       -1.301029    2.906853   -3.084792
     29          6           0        0.406646    0.189714   -4.184119
     30          1           0        0.506079   -0.876148   -4.010337
     31          6           0        0.231880    2.946118   -4.578750
     32          1           0        0.173235    4.016336   -4.747919
     33          6           0        1.225850    0.808053   -5.127368
     34          1           0        1.939710    0.218664   -5.699160
     35          8           0        1.960754    2.866291   -6.189305
     36          1           0        2.490485    2.229147   -6.694560
     37          6           0        1.148952    2.191952   -5.318217
     38          7           0        1.158851    0.417385    0.507547
     39          1           0        0.704473    1.145346    1.041081
     40          6           0        2.495504    0.043157    0.910249
     41          1           0        2.761817   -0.833268    0.307713
     42          6           0        2.456323   -0.396505    2.366555
     43          6           0        3.537182    1.156907    0.629369
     44          1           0        3.393415    1.985525    1.337362
     45          1           0        4.536145    0.750141    0.819385
     46          8           0        1.453579   -0.466047    3.060940
     47          6           0        3.418936    1.671972   -0.811232
     48          1           0        2.439150    2.154901   -0.934207
     49          1           0        3.426425    0.818143   -1.498805
     50          6           0        4.510391    2.670638   -1.212665
     51          1           0        4.630322    3.428414   -0.425226
     52          1           0        5.470440    2.149510   -1.313574
     53          6           0        4.176988    3.383830   -2.529775
     54          1           0        3.277344    4.009781   -2.367871
     55          1           0        4.994422    4.070232   -2.779955
     56          7           0        4.035589    2.428645   -3.634500
     57          1           0        3.865445    2.940472   -4.499192
     58          1           0        3.192885    1.872518   -3.497408
     59          8           0        3.676690   -0.711044    2.822063
     60          1           0       -1.810564   -4.933998    5.457423
     61          1           0       -3.197703   -5.245902    4.880215
     62          1           0        3.591319   -0.963890    3.761134
 ---------------------------------------------------------------------

 SCF Done:  E(RB3LYP) =  -1526.20377412     A.U. after    1 cycles

 Alpha  occ. eigenvalues --  -19.45054 -19.31582 -19.30660 -19.25607 -19.24749
 Alpha  occ. eigenvalues --  -19.24223 -19.20923 -14.47324 -14.45581 -14.45157
 Alpha  occ. eigenvalues --  -14.35412 -10.55005 -10.43314 -10.41057 -10.39917
 Alpha  occ. eigenvalues --  -10.38114 -10.36747 -10.35585 -10.33500 -10.33399
 Alpha  occ. eigenvalues --  -10.31252 -10.27405 -10.26806 -10.25701 -10.25646
 Alpha  occ. eigenvalues --  -10.25589 -10.25255 -10.25135 -10.25037 -10.24859
 Alpha  occ. eigenvalues --  -10.23730  -1.35471  -1.21801  -1.17045  -1.16167
 Alpha  occ. eigenvalues --   -1.13108  -1.12552  -1.12150  -1.04886  -1.02694
 Alpha  occ. eigenvalues --   -1.01908  -0.99246  -0.92557  -0.91987  -0.88850
 Alpha  occ. eigenvalues --   -0.87337  -0.86474  -0.83292  -0.81117  -0.80940
 Alpha  occ. eigenvalues --   -0.77395  -0.76730  -0.74362  -0.74106  -0.71836
 Alpha  occ. eigenvalues --   -0.69974  -0.69245  -0.68975  -0.68809  -0.68469
 Alpha  occ. eigenvalues --   -0.68138  -0.67471  -0.66420  -0.66165  -0.65157
 Alpha  occ. eigenvalues --   -0.63434  -0.61840  -0.61252  -0.61121  -0.60553
 Alpha  occ. eigenvalues --   -0.60023  -0.59125  -0.57445  -0.56809  -0.56129
 Alpha  occ. eigenvalues --   -0.55576  -0.55447  -0.55147  -0.54564  -0.53539
 Alpha  occ. eigenvalues --   -0.53516  -0.53058  -0.52545  -0.52204  -0.52061
 Alpha  occ. eigenvalues --   -0.51196  -0.50920  -0.50121  -0.49784  -0.48671
 Alpha  occ. eigenvalues --   -0.48291  -0.47993  -0.47611  -0.46808  -0.46625
 Alpha  occ. eigenvalues --   -0.46286  -0.45832  -0.45601  -0.44451  -0.43542
 Alpha  occ. eigenvalues --   -0.43243  -0.42952  -0.42372  -0.40195  -0.39959
 Alpha  occ. eigenvalues --   -0.39707  -0.39526  -0.39395  -0.39214  -0.38137
 Alpha  occ. eigenvalues --   -0.37803  -0.36588  -0.35116  -0.33708  -0.31443
 Alpha  occ. eigenvalues --   -0.28311  -0.27857
 Alpha virt. eigenvalues --   -0.22686  -0.20994  -0.11119  -0.10370  -0.09481
 Alpha virt. eigenvalues --   -0.07667  -0.06646  -0.05020  -0.04693  -0.04062
 Alpha virt. eigenvalues --   -0.02645  -0.02164  -0.01054   0.00250   0.00484

 Mulliken charges:
               1
     1  N   -0.760746
     2  H    0.331520
     3  H    0.357262
     4  C   -0.078251
     5  H    0.189313
     6  C    0.643305
     7  C   -0.307422
     8  H    0.200789
     9  H    0.210205
    10  O   -0.536479
    11  C   -0.417369
    12  H    0.335140
    13  H    0.258597
    14  C    0.629622
    15  O   -0.199943
    16  O   -0.788028
    17  N   -0.590895
    18  H    0.365615
    19  C   -0.073427
    20  H    0.174985
    21  C    0.636066
    22  C   -0.343108
    23  H    0.187280
    24  H    0.156273
    25  O   -0.498722
    26  C    0.145466
    27  C   -0.196165
    28  H    0.123757
    29  C   -0.161468
    30  H    0.152171
    31  C   -0.155878
    32  H    0.151450
    33  C   -0.204960
    34  H    0.137701
    35  O   -0.641247
    36  H    0.417283
    37  C    0.344811
    38  N   -0.597258
    39  H    0.322981
    40  C   -0.068249
    41  H    0.221832
    42  C    0.592825
    43  C   -0.268465
    44  H    0.137534
    45  H    0.175836
    46  O   -0.499819
    47  C   -0.277986
    48  H    0.122814
    49  H    0.173957
    50  C   -0.244866
    51  H    0.126467
    52  H    0.151724
    53  C   -0.139427
    54  H    0.108842
    55  H    0.146871
    56  N   -0.743371
    57  H    0.306433
    58  H    0.309470
    59  O   -0.539537
    60  H    0.431453
    61  H    0.431411
    62  H    0.424026
 Sum of Mulliken charges =   1.00000

 Dipole moment (field-independent basis, Debye):
    X=             -6.3396    Y=            -11.9943    Z=             14.8690  Tot=             20.1281
 Quadrupole moment (field-independent basis, Debye-Ang):
   XX=           -150.9659   YY=           -102.9069   ZZ=           -102.7473
   XY=             31.6824   XZ=            -24.7438   YZ=            -58.3459

 Normal termination of Gaussian 16 at Thu Jun  2 00:24:20 2022.
