 Gaussian 16, Revision C.01,
 Gaussian 16:  ES64L-G16RevC.01  3-Jul-2019

 ----------------------------------------------------------------------
 # B3LYP/6-31G* empiricaldispersion=gd3 guess=read geom=check nosymm in
 tegral(ultrafinegrid)
 ----------------------------------------------------------------------

 ------------------------------------------------------
 Candidate Structure: Conf:472 Charge calc in gas phase
 ------------------------------------------------------
 Structure from the checkpoint file:  "conf-472.chk"
 Charge =  1 Multiplicity = 1

                          Input orientation:
 ---------------------------------------------------------------------
 Center     Atomic      Atomic             Coordinates (Angstroms)
 Number     Number       Type             X           Y           Z
 ---------------------------------------------------------------------
      1          7           0       -0.744943   -2.622942    3.137425
      2          1           0       -1.172872   -3.245852    2.388525
      3          1           0        0.228790   -2.904072    3.281584
      4          6           0       -0.941131   -1.198093    2.720831
      5          1           0       -0.276944   -0.580027    3.335289
      6          6           0       -0.517556   -1.080835    1.250074
      7          6           0       -2.425056   -0.943490    3.068084
      8          1           0       -3.062968   -1.323169    2.264545
      9          1           0       -2.626086    0.122469    3.195817
     10          8           0        0.135860   -1.981902    0.741698
     11          6           0       -2.657558   -1.736377    4.366880
     12          1           0       -3.657580   -2.170145    4.454515
     13          1           0       -2.487712   -1.130420    5.266098
     14          6           0       -1.633362   -2.845411    4.375888
     15          8           0       -1.429060   -3.759332    5.102857
     16          8           0       -2.583242   -3.872517    1.710544
     17          7           0       -0.876709    0.065516    0.629568
     18          1           0       -1.566197    0.659469    1.069073
     19          6           0       -0.566990    0.300763   -0.791436
     20          1           0       -1.025919    1.267031   -1.025530
     21          6           0        0.960917    0.456004   -1.008452
     22          6           0       -1.117552   -0.787148   -1.745783
     23          1           0       -1.163623   -0.338126   -2.743925
     24          1           0       -0.379064   -1.586881   -1.812470
     25          8           0        1.476067    0.137824   -2.068252
     26          6           0       -2.456206   -1.365949   -1.347402
     27          6           0       -2.656283   -2.753553   -1.405741
     28          1           0       -1.843158   -3.392839   -1.740072
     29          6           0       -3.535435   -0.575693   -0.930549
     30          1           0       -3.432307    0.506994   -0.897957
     31          6           0       -3.881202   -3.333767   -1.066196
     32          1           0       -4.049686   -4.402077   -1.170243
     33          6           0       -4.761108   -1.136148   -0.565417
     34          1           0       -5.582669   -0.495464   -0.252013
     35          8           0       -6.102123   -3.148245   -0.300731
     36          1           0       -6.800813   -2.495334   -0.135415
     37          6           0       -4.943202   -2.522996   -0.636463
     38          7           0        1.636964    0.990650    0.043237
     39          1           0        1.136048    1.172244    0.899543
     40          6           0        3.090284    1.018330    0.096745
     41          1           0        3.448515    0.330913   -0.677064
     42          6           0        3.617079    0.498309    1.427240
     43          6           0        3.686010    2.416800   -0.182821
     44          1           0        3.348224    3.114210    0.596801
     45          1           0        4.774575    2.336132   -0.087512
     46          8           0        4.786081    0.341952    1.673358
     47          6           0        3.305516    2.949714   -1.566826
     48          1           0        2.213188    3.048258   -1.633303
     49          1           0        3.589730    2.209894   -2.325666
     50          6           0        3.957172    4.300490   -1.880572
     51          1           0        3.698747    5.025341   -1.094146
     52          1           0        5.051811    4.193768   -1.855412
     53          6           0        3.534400    4.875410   -3.247237
     54          1           0        2.446315    5.029186   -3.251607
     55          1           0        3.984855    5.867976   -3.369868
     56          7           0        3.872268    4.085601   -4.431746
     57          1           0        3.425286    3.171547   -4.396578
     58          1           0        4.876610    3.916522   -4.468064
     59          8           0        2.640843    0.263424    2.364382
     60          1           0       -2.805730   -3.597138    0.795015
     61          1           0       -2.759624   -4.826634    1.739085
     62          1           0        3.131856    0.012379    3.170507
 ---------------------------------------------------------------------

 SCF Done:  E(RB3LYP) =  -1526.24791822     A.U. after    3 cycles

 Alpha  occ. eigenvalues --  -19.33592 -19.30832 -19.30408 -19.28773 -19.26784
 Alpha  occ. eigenvalues --  -19.23730 -19.21367 -14.59047 -14.51018 -14.45991
 Alpha  occ. eigenvalues --  -14.36104 -10.49070 -10.44246 -10.41951 -10.41544
 Alpha  occ. eigenvalues --  -10.39011 -10.36927 -10.36601 -10.36579 -10.35908
 Alpha  occ. eigenvalues --  -10.33170 -10.30953 -10.30632 -10.30590 -10.30563
 Alpha  occ. eigenvalues --  -10.30161 -10.29437 -10.27052 -10.25858 -10.25186
 Alpha  occ. eigenvalues --  -10.24049  -1.25169  -1.20599  -1.19324  -1.17008
 Alpha  occ. eigenvalues --   -1.16476  -1.14143  -1.13529  -1.11598  -1.07380
 Alpha  occ. eigenvalues --   -1.02661  -0.97286  -0.96858  -0.92966  -0.91863
 Alpha  occ. eigenvalues --   -0.89012  -0.88248  -0.86428  -0.84838  -0.82770
 Alpha  occ. eigenvalues --   -0.80156  -0.77613  -0.76650  -0.76523  -0.74630
 Alpha  occ. eigenvalues --   -0.74054  -0.73118  -0.71251  -0.70363  -0.69280
 Alpha  occ. eigenvalues --   -0.68652  -0.68168  -0.67365  -0.65703  -0.65036
 Alpha  occ. eigenvalues --   -0.64534  -0.63656  -0.62845  -0.62338  -0.61199
 Alpha  occ. eigenvalues --   -0.60413  -0.59185  -0.58237  -0.58140  -0.57283
 Alpha  occ. eigenvalues --   -0.56975  -0.56835  -0.56422  -0.56203  -0.55365
 Alpha  occ. eigenvalues --   -0.55041  -0.54558  -0.54181  -0.53889  -0.53570
 Alpha  occ. eigenvalues --   -0.53408  -0.52599  -0.52079  -0.51222  -0.50981
 Alpha  occ. eigenvalues --   -0.50574  -0.50447  -0.49727  -0.49230  -0.48102
 Alpha  occ. eigenvalues --   -0.47279  -0.47001  -0.46648  -0.46308  -0.45949
 Alpha  occ. eigenvalues --   -0.45065  -0.44964  -0.44435  -0.43703  -0.42567
 Alpha  occ. eigenvalues --   -0.41817  -0.41254  -0.40996  -0.40342  -0.39624
 Alpha  occ. eigenvalues --   -0.38923  -0.38144  -0.37136  -0.35160  -0.34493
 Alpha  occ. eigenvalues --   -0.33045  -0.28114
 Alpha virt. eigenvalues --   -0.19405  -0.13421  -0.12342  -0.10814  -0.09318
 Alpha virt. eigenvalues --   -0.08869  -0.08657  -0.06908  -0.06294  -0.03852
 Alpha virt. eigenvalues --   -0.03681  -0.03372  -0.03206  -0.02593  -0.01302

 Mulliken charges:
               1
     1  N   -0.687354
     2  H    0.452459
     3  H    0.415354
     4  C   -0.112378
     5  H    0.226284
     6  C    0.651282
     7  C   -0.318617
     8  H    0.213986
     9  H    0.192836
    10  O   -0.503096
    11  C   -0.372306
    12  H    0.244954
    13  H    0.234064
    14  C    0.583697
    15  O   -0.341731
    16  O   -0.828559
    17  N   -0.635307
    18  H    0.347421
    19  C   -0.074987
    20  H    0.187617
    21  C    0.648403
    22  C   -0.357158
    23  H    0.199290
    24  H    0.201480
    25  O   -0.503895
    26  C    0.176060
    27  C   -0.210664
    28  H    0.165232
    29  C   -0.201195
    30  H    0.132605
    31  C   -0.249661
    32  H    0.171155
    33  C   -0.201973
    34  H    0.145176
    35  O   -0.625861
    36  H    0.422355
    37  C    0.378434
    38  N   -0.603469
    39  H    0.332452
    40  C   -0.066272
    41  H    0.220469
    42  C    0.598260
    43  C   -0.261461
    44  H    0.135273
    45  H    0.179553
    46  O   -0.432593
    47  C   -0.259079
    48  H    0.128860
    49  H    0.146823
    50  C   -0.264048
    51  H    0.127405
    52  H    0.134606
    53  C   -0.143577
    54  H    0.135360
    55  H    0.151963
    56  N   -0.703702
    57  H    0.300218
    58  H    0.297066
    59  O   -0.612587
    60  H    0.443581
    61  H    0.433855
    62  H    0.415638
 Sum of Mulliken charges =   1.00000

 Dipole moment (field-independent basis, Debye):
    X=            -11.1234    Y=             -5.5348    Z=             13.1233  Tot=             18.0717
 Quadrupole moment (field-independent basis, Debye-Ang):
   XX=           -133.9857   YY=           -151.4971   ZZ=           -151.4500
   XY=             19.1103   XZ=            -13.4376   YZ=             -7.4290

 Normal termination of Gaussian 16 at Thu Jun  2 00:24:37 2022.
