 Gaussian 16, Revision C.01,
 Gaussian 16:  ES64L-G16RevC.01  3-Jul-2019

 ----------------------------------------------------------------------
 # B3LYP/6-31G* empiricaldispersion=gd3 guess=read geom=check nosymm in
 tegral(ultrafinegrid)
 ----------------------------------------------------------------------

 ------------------------------------------------------
 Candidate Structure: Conf:771 Charge calc in gas phase
 ------------------------------------------------------
 Structure from the checkpoint file:  "conf-771.chk"
 Charge =  1 Multiplicity = 1

                          Input orientation:
 ---------------------------------------------------------------------
 Center     Atomic      Atomic             Coordinates (Angstroms)
 Number     Number       Type             X           Y           Z
 ---------------------------------------------------------------------
      1          7           0       -0.072488   -2.298981    2.527524
      2          1           0        0.456691   -1.477614    2.132440
      3          1           0        0.138081   -2.428251    3.520660
      4          6           0       -1.557995   -2.063726    2.285466
      5          1           0       -1.865352   -1.335247    3.040700
      6          6           0       -1.520023   -1.451465    0.867939
      7          6           0       -2.378230   -3.354944    2.458009
      8          1           0       -3.391716   -3.041056    2.730334
      9          1           0       -1.989243   -3.896432    3.329462
     10          8           0       -1.123951   -2.156209   -0.049846
     11          6           0       -2.514356   -4.311098    1.259643
     12          1           0       -3.006650   -3.823220    0.415997
     13          1           0       -3.176128   -5.131205    1.565721
     14          6           0       -1.281556   -4.976853    0.685951
     15          8           0       -1.253373   -5.608576   -0.332640
     16          8           0       -0.156190   -4.857314    1.487966
     17          7           0       -1.779543   -0.116774    0.785013
     18          1           0       -2.004342    0.337714    1.661212
     19          6           0       -1.008195    0.724994   -0.136033
     20          1           0       -1.354284    1.749916    0.032882
     21          6           0        0.488306    0.668392    0.304440
     22          6           0       -1.268902    0.383271   -1.631968
     23          1           0       -0.920473   -0.631053   -1.828670
     24          1           0       -2.359007    0.376045   -1.752061
     25          8           0        0.891845   -0.109642    1.190299
     26          6           0       -0.626428    1.362616   -2.589377
     27          6           0       -1.012272    2.713741   -2.619567
     28          1           0       -1.838059    3.053963   -1.997481
     29          6           0        0.419915    0.959791   -3.428481
     30          1           0        0.737239   -0.079882   -3.428024
     31          6           0       -0.360365    3.635631   -3.431459
     32          1           0       -0.657640    4.678823   -3.454460
     33          6           0        1.077827    1.869436   -4.255043
     34          1           0        1.889150    1.534180   -4.897407
     35          8           0        1.311118    4.168281   -5.002622
     36          1           0        1.978119    3.758312   -5.575810
     37          6           0        0.697722    3.216648   -4.249317
     38          7           0        1.294471    1.550048   -0.292709
     39          1           0        0.930982    2.103831   -1.061262
     40          6           0        2.743690    1.582509   -0.081937
     41          1           0        2.938750    1.347261    0.964395
     42          6           0        3.278647    2.983032   -0.340151
     43          6           0        3.453738    0.555017   -1.000144
     44          1           0        3.051428   -0.428477   -0.725826
     45          1           0        3.139407    0.757382   -2.031347
     46          8           0        4.212436    3.474917    0.244348
     47          6           0        4.983813    0.546298   -0.900340
     48          1           0        5.386619    1.497294   -1.273150
     49          1           0        5.369032   -0.235691   -1.562983
     50          6           0        5.527475    0.298773    0.512504
     51          1           0        5.310443    1.159545    1.156697
     52          1           0        5.019580   -0.572309    0.957773
     53          6           0        7.041619    0.052240    0.519453
     54          1           0        7.539359    0.897411    0.027433
     55          1           0        7.400182    0.042267    1.563572
     56          7           0        7.374025   -1.163246   -0.235625
     57          1           0        7.124402   -1.985783    0.312368
     58          1           0        8.379683   -1.219330   -0.383747
     59          8           0        2.622714    3.585433   -1.362958
     60          1           0        0.194973   -3.167070    2.022843
     61          1           0        0.543096   -5.375754    1.042435
     62          1           0        3.032754    4.459368   -1.507512
 ---------------------------------------------------------------------

 SCF Done:  E(RB3LYP) =  -1526.28209065     A.U. after    2 cycles

 Alpha  occ. eigenvalues --  -19.32572 -19.29515 -19.26469 -19.26295 -19.25381
 Alpha  occ. eigenvalues --  -19.25316 -19.23508 -14.57816 -14.50112 -14.47927
 Alpha  occ. eigenvalues --  -14.37520 -10.43963 -10.43661 -10.41804 -10.41693
 Alpha  occ. eigenvalues --  -10.40651 -10.36669 -10.34403 -10.34105 -10.33792
 Alpha  occ. eigenvalues --  -10.32553 -10.29926 -10.28796 -10.28643 -10.28557
 Alpha  occ. eigenvalues --  -10.28108 -10.27929 -10.27707 -10.27048 -10.25236
 Alpha  occ. eigenvalues --  -10.24928  -1.22321  -1.20179  -1.18930  -1.16248
 Alpha  occ. eigenvalues --   -1.14665  -1.13659  -1.12575  -1.11312  -1.06676
 Alpha  occ. eigenvalues --   -1.04731  -0.95111  -0.94349  -0.94210  -0.90902
 Alpha  occ. eigenvalues --   -0.88687  -0.86888  -0.84200  -0.84025  -0.82633
 Alpha  occ. eigenvalues --   -0.79074  -0.77844  -0.76552  -0.73752  -0.72716
 Alpha  occ. eigenvalues --   -0.72585  -0.72078  -0.71588  -0.70952  -0.69410
 Alpha  occ. eigenvalues --   -0.69008  -0.68014  -0.66277  -0.64547  -0.64208
 Alpha  occ. eigenvalues --   -0.63498  -0.62804  -0.61235  -0.60587  -0.59692
 Alpha  occ. eigenvalues --   -0.59286  -0.58361  -0.57716  -0.57229  -0.56836
 Alpha  occ. eigenvalues --   -0.56542  -0.55853  -0.55503  -0.55231  -0.54766
 Alpha  occ. eigenvalues --   -0.54387  -0.53633  -0.53425  -0.53014  -0.52591
 Alpha  occ. eigenvalues --   -0.51495  -0.51266  -0.50925  -0.50690  -0.50209
 Alpha  occ. eigenvalues --   -0.49925  -0.49532  -0.49066  -0.48838  -0.48685
 Alpha  occ. eigenvalues --   -0.48003  -0.47181  -0.46488  -0.46024  -0.45062
 Alpha  occ. eigenvalues --   -0.43892  -0.43442  -0.42806  -0.42202  -0.41601
 Alpha  occ. eigenvalues --   -0.41009  -0.40726  -0.40670  -0.39828  -0.39759
 Alpha  occ. eigenvalues --   -0.39015  -0.38515  -0.37862  -0.35941  -0.34543
 Alpha  occ. eigenvalues --   -0.30949  -0.29726
 Alpha virt. eigenvalues --   -0.14156  -0.10881  -0.10466  -0.09700  -0.09224
 Alpha virt. eigenvalues --   -0.08825  -0.08171  -0.05930  -0.04280  -0.02247
 Alpha virt. eigenvalues --   -0.02011  -0.01541  -0.00878  -0.00080   0.00719

 Mulliken charges:
               1
     1  N   -0.781097
     2  H    0.452949
     3  H    0.398672
     4  C   -0.104826
     5  H    0.191656
     6  C    0.617017
     7  C   -0.298947
     8  H    0.197980
     9  H    0.178055
    10  O   -0.490688
    11  C   -0.365847
    12  H    0.220426
    13  H    0.215051
    14  C    0.624379
    15  O   -0.411040
    16  O   -0.628389
    17  N   -0.571930
    18  H    0.344869
    19  C   -0.110061
    20  H    0.188816
    21  C    0.657246
    22  C   -0.347846
    23  H    0.202707
    24  H    0.180573
    25  O   -0.595259
    26  C    0.107704
    27  C   -0.205074
    28  H    0.137672
    29  C   -0.187547
    30  H    0.147100
    31  C   -0.149514
    32  H    0.163225
    33  C   -0.187038
    34  H    0.143423
    35  O   -0.629917
    36  H    0.419200
    37  C    0.359637
    38  N   -0.609783
    39  H    0.393342
    40  C   -0.042935
    41  H    0.200469
    42  C    0.594318
    43  C   -0.282410
    44  H    0.151913
    45  H    0.153822
    46  O   -0.441509
    47  C   -0.266895
    48  H    0.146245
    49  H    0.179522
    50  C   -0.262365
    51  H    0.154003
    52  H    0.110005
    53  C   -0.146012
    54  H    0.150603
    55  H    0.124603
    56  N   -0.716140
    57  H    0.291907
    58  H    0.308618
    59  O   -0.577009
    60  H    0.437001
    61  H    0.434737
    62  H    0.430615
 Sum of Mulliken charges =   1.00000

 Dipole moment (field-independent basis, Debye):
    X=              0.2680    Y=             -3.9970    Z=              6.5829  Tot=              7.7060
 Quadrupole moment (field-independent basis, Debye-Ang):
   XX=           -139.7161   YY=           -143.5229   ZZ=           -134.8012
   XY=              0.8490   XZ=            -21.4692   YZ=            -43.6302

 Normal termination of Gaussian 16 at Thu Jun  2 00:24:27 2022.
