 Gaussian 16, Revision C.01,
 Gaussian 16:  ES64L-G16RevC.01  3-Jul-2019

 ----------------------------------------------------------------------
 # B3LYP/6-31G* empiricaldispersion=gd3 guess=read geom=check nosymm in
 tegral(ultrafinegrid)
 ----------------------------------------------------------------------

 ------------------------------------------------------
 Candidate Structure: Conf:879 Charge calc in gas phase
 ------------------------------------------------------
 Structure from the checkpoint file:  "conf-879.chk"
 Charge =  1 Multiplicity = 1

                          Input orientation:
 ---------------------------------------------------------------------
 Center     Atomic      Atomic             Coordinates (Angstroms)
 Number     Number       Type             X           Y           Z
 ---------------------------------------------------------------------
      1          7           0        0.687531   -1.387737    3.452283
      2          1           0        0.542029   -1.326440    4.459561
      3          1           0        1.136873   -2.285184    3.265171
      4          6           0       -0.603999   -1.301126    2.750138
      5          1           0       -1.024694   -0.316478    2.980766
      6          6           0       -0.298975   -1.384085    1.249652
      7          6           0       -1.631304   -2.396516    3.107028
      8          1           0       -1.858832   -2.310618    4.175226
      9          1           0       -1.168606   -3.374895    2.939339
     10          8           0        0.079487   -2.349067    0.672558
     11          6           0       -2.943129   -2.332816    2.289713
     12          1           0       -3.613237   -3.121804    2.638142
     13          1           0       -2.744203   -2.504863    1.226512
     14          6           0       -3.672929   -1.021283    2.474001
     15          8           0       -4.484605   -0.762126    3.317935
     16          8           0       -3.265746   -0.062031    1.551182
     17          7           0       -0.577189   -0.064871    0.511598
     18          1           0       -0.021780    0.624025    1.055891
     19          6           0       -0.181638    0.093410   -0.973391
     20          1           0       -0.600386    1.069153   -1.243572
     21          6           0        1.362311    0.140280   -0.928556
     22          6           0       -0.758051   -0.985176   -1.889692
     23          1           0       -0.250738   -1.929047   -1.688216
     24          1           0       -1.825482   -1.113067   -1.665673
     25          8           0        2.023664   -0.881651   -0.994954
     26          6           0       -0.560793   -0.556220   -3.328840
     27          6           0       -1.518453    0.235242   -3.980585
     28          1           0       -2.440194    0.502277   -3.466334
     29          6           0        0.607689   -0.898618   -4.020395
     30          1           0        1.365292   -1.501377   -3.527858
     31          6           0       -1.325711    0.669970   -5.286123
     32          1           0       -2.069085    1.270248   -5.800013
     33          6           0        0.813769   -0.469725   -5.329889
     34          1           0        1.722992   -0.750046   -5.857059
     35          8           0       -0.022083    0.769902   -7.243037
     36          1           0        0.806745    0.443876   -7.628062
     37          6           0       -0.153268    0.316674   -5.968817
     38          7           0        1.882924    1.359544   -0.610340
     39          1           0        1.272044    2.163381   -0.552730
     40          6           0        3.141646    1.420755    0.128712
     41          1           0        3.889288    0.843250   -0.419694
     42          6           0        3.010411    0.721806    1.491957
     43          6           0        3.641120    2.866098    0.303565
     44          1           0        4.603686    2.806698    0.822976
     45          1           0        3.841140    3.278840   -0.692537
     46          8           0        3.942364    0.310294    2.128759
     47          6           0        2.698175    3.795312    1.082164
     48          1           0        2.455099    3.348091    2.056112
     49          1           0        1.739882    3.911508    0.549268
     50          6           0        3.310031    5.184119    1.297556
     51          1           0        4.246108    5.096713    1.861955
     52          1           0        3.573083    5.621312    0.322965
     53          6           0        2.379609    6.141574    2.047136
     54          1           0        1.425314    6.227555    1.489662
     55          1           0        2.129876    5.705630    3.023778
     56          7           0        3.057467    7.414600    2.289067
     57          1           0        2.479978    8.019963    2.868939
     58          1           0        3.196692    7.909724    1.409322
     59          8           0        1.713750    0.632241    1.933997
     60          1           0       -1.588007    0.119879    0.659861
     61          1           0       -3.803388    0.734623    1.733778
     62          1           0        1.663040    0.007247    2.715998
 ---------------------------------------------------------------------

 SCF Done:  E(RB3LYP) =  -1526.23663772     A.U. after    2 cycles

 Alpha  occ. eigenvalues --  -19.35118 -19.34260 -19.30905 -19.28403 -19.26041
 Alpha  occ. eigenvalues --  -19.24986 -19.24971 -14.59884 -14.49524 -14.49082
 Alpha  occ. eigenvalues --  -14.37969 -10.49458 -10.46471 -10.43047 -10.42331
 Alpha  occ. eigenvalues --  -10.40387 -10.39833 -10.35171 -10.34949 -10.34606
 Alpha  occ. eigenvalues --  -10.33765 -10.31685 -10.29667 -10.28896 -10.28756
 Alpha  occ. eigenvalues --  -10.28516 -10.28386 -10.28153 -10.27640 -10.27290
 Alpha  occ. eigenvalues --  -10.26369  -1.25863  -1.24771  -1.21159  -1.17326
 Alpha  occ. eigenvalues --   -1.16224  -1.14267  -1.13920  -1.12585  -1.06400
 Alpha  occ. eigenvalues --   -1.05639  -0.95683  -0.95006  -0.94916  -0.92433
 Alpha  occ. eigenvalues --   -0.90476  -0.87513  -0.85760  -0.83768  -0.83665
 Alpha  occ. eigenvalues --   -0.80914  -0.78893  -0.77907  -0.75624  -0.74223
 Alpha  occ. eigenvalues --   -0.73774  -0.73009  -0.71889  -0.71105  -0.70357
 Alpha  occ. eigenvalues --   -0.69783  -0.67895  -0.66957  -0.66359  -0.64206
 Alpha  occ. eigenvalues --   -0.64120  -0.63217  -0.62992  -0.62888  -0.62410
 Alpha  occ. eigenvalues --   -0.61695  -0.60182  -0.59577  -0.58927  -0.57581
 Alpha  occ. eigenvalues --   -0.57501  -0.57219  -0.56745  -0.56594  -0.55835
 Alpha  occ. eigenvalues --   -0.55752  -0.55441  -0.54575  -0.53991  -0.53806
 Alpha  occ. eigenvalues --   -0.53277  -0.52759  -0.52411  -0.51807  -0.51485
 Alpha  occ. eigenvalues --   -0.51221  -0.51075  -0.50552  -0.49840  -0.49676
 Alpha  occ. eigenvalues --   -0.48924  -0.48655  -0.47156  -0.46739  -0.46613
 Alpha  occ. eigenvalues --   -0.45356  -0.44874  -0.44740  -0.43716  -0.43022
 Alpha  occ. eigenvalues --   -0.42432  -0.41989  -0.41876  -0.41811  -0.41625
 Alpha  occ. eigenvalues --   -0.41356  -0.40587  -0.38493  -0.36834  -0.34154
 Alpha  occ. eigenvalues --   -0.30761  -0.30197
 Alpha virt. eigenvalues --   -0.20114  -0.13883  -0.13356  -0.10128  -0.09230
 Alpha virt. eigenvalues --   -0.09192  -0.08431  -0.06826  -0.06005  -0.05290
 Alpha virt. eigenvalues --   -0.03676  -0.03216  -0.01474  -0.00795  -0.00518

 Mulliken charges:
               1
     1  N   -0.756293
     2  H    0.358124
     3  H    0.359736
     4  C   -0.070045
     5  H    0.174948
     6  C    0.595968
     7  C   -0.287282
     8  H    0.195886
     9  H    0.199450
    10  O   -0.332599
    11  C   -0.372979
    12  H    0.229117
    13  H    0.186936
    14  C    0.584353
    15  O   -0.394590
    16  O   -0.621975
    17  N   -0.756146
    18  H    0.423067
    19  C   -0.081434
    20  H    0.189887
    21  C    0.634521
    22  C   -0.374775
    23  H    0.221865
    24  H    0.152070
    25  O   -0.477805
    26  C    0.131702
    27  C   -0.189642
    28  H    0.122819
    29  C   -0.186247
    30  H    0.166968
    31  C   -0.154265
    32  H    0.161181
    33  C   -0.192934
    34  H    0.144023
    35  O   -0.626086
    36  H    0.419409
    37  C    0.359462
    38  N   -0.604687
    39  H    0.338552
    40  C   -0.041938
    41  H    0.224335
    42  C    0.616502
    43  C   -0.300671
    44  H    0.192608
    45  H    0.172607
    46  O   -0.427745
    47  C   -0.288830
    48  H    0.149194
    49  H    0.109476
    50  C   -0.249982
    51  H    0.169483
    52  H    0.138118
    53  C   -0.131887
    54  H    0.104781
    55  H    0.139380
    56  N   -0.711504
    57  H    0.306796
    58  H    0.300155
    59  O   -0.671999
    60  H    0.434631
    61  H    0.436300
    62  H    0.459929
 Sum of Mulliken charges =   1.00000

 Dipole moment (field-independent basis, Debye):
    X=             -4.0577    Y=              2.0472    Z=              3.2853  Tot=              5.6080
 Quadrupole moment (field-independent basis, Debye-Ang):
   XX=           -177.9537   YY=           -144.4662   ZZ=           -136.2976
   XY=              7.0206   XZ=            -18.8752   YZ=            -13.2174

 Normal termination of Gaussian 16 at Thu Jun  2 00:24:26 2022.
