 Gaussian 16, Revision C.01,
 Gaussian 16:  ES64L-G16RevC.01  3-Jul-2019

 ----------------------------------------------------------------------
 # B3LYP/6-31G* empiricaldispersion=gd3 guess=read geom=check nosymm in
 tegral(ultrafinegrid)
 ----------------------------------------------------------------------

 -----------------------------------------------------
 Candidate Structure: Conf:60 Charge calc in gas phase
 -----------------------------------------------------
 Structure from the checkpoint file:  "conf-60.chk"
 Charge =  1 Multiplicity = 1

                          Input orientation:
 ---------------------------------------------------------------------
 Center     Atomic      Atomic             Coordinates (Angstroms)
 Number     Number       Type             X           Y           Z
 ---------------------------------------------------------------------
      1          7           0      -10.974778   -1.781263   -3.554011
      2          1           0      -11.795056   -1.419951   -4.049935
      3          1           0      -10.566329   -2.588453   -4.109654
      4          1           0      -11.270598   -2.094192   -2.623533
      5          6           0       -9.819635   -0.807265   -3.519349
      6          1           0      -10.181182    0.197779   -3.743785
      7          6           0       -8.856959   -1.358108   -4.588618
      8          6           0       -9.128881   -0.824911   -2.121437
      9          1           0       -8.872240   -1.866219   -1.873861
     10          1           0       -9.843216   -0.451580   -1.376953
     11          8           0       -9.042137   -2.510094   -4.997196
     12          8           0       -8.010659    0.010632   -2.132774
     13          1           0       -7.238341   -0.546753   -2.393827
     14          7           0       -7.850686   -0.550064   -4.949900
     15          1           0       -7.738972    0.290949   -4.390290
     16          6           0       -6.621240   -1.110478   -5.508417
     17          1           0       -6.905446   -1.814171   -6.295719
     18          6           0       -5.877023   -1.874951   -4.386037
     19          6           0       -5.746424    0.014132   -6.077559
     20          1           0       -4.841604   -0.394415   -6.534437
     21          1           0       -5.435913    0.705363   -5.285690
     22          1           0       -6.296068    0.570479   -6.841725
     23          8           0       -6.201328   -1.754100   -3.188921
     24          7           0       -4.852459   -2.628503   -4.786924
     25          1           0       -4.563677   -2.668733   -5.762274
     26          6           0       -3.876466   -3.234020   -3.875752
     27          1           0       -4.409646   -3.637370   -3.010104
     28          6           0       -2.886501   -2.131035   -3.441568
     29          6           0       -3.136693   -4.348756   -4.649050
     30          1           0       -2.272370   -4.646840   -4.040868
     31          8           0       -1.799303   -1.989604   -4.010547
     32          6           0       -4.018614   -5.557666   -4.921716
     33          1           0       -4.335981   -6.025492   -3.983680
     34          1           0       -4.910164   -5.273320   -5.491174
     35          1           0       -3.458646   -6.290061   -5.508794
     36          8           0       -2.707816   -3.820135   -5.901414
     37          1           0       -2.017218   -3.165002   -5.676094
     38          7           0       -3.328616   -1.322987   -2.457432
     39          1           0       -4.212101   -1.541884   -2.014185
     40          6           0       -2.521894   -0.232332   -1.891737
     41          1           0       -1.902066    0.154010   -2.707703
     42          6           0       -1.632816   -0.885713   -0.805317
     43          6           0       -3.414685    0.885496   -1.334791
     44          1           0       -3.974303    0.459433   -0.491202
     45          8           0       -1.979641   -0.923774    0.372736
     46          6           0       -2.545103    2.029287   -0.793740
     47          1           0       -1.926050    2.462519   -1.589647
     48          1           0       -1.889504    1.676837    0.006408
     49          1           0       -3.174761    2.828435   -0.388236
     50          6           0       -4.401661    1.400176   -2.394253
     51          1           0       -3.864503    1.810347   -3.259734
     52          1           0       -5.067720    0.608006   -2.754306
     53          1           0       -5.024479    2.199149   -1.977788
     54          7           0       -0.527581   -1.480257   -1.305933
     55          1           0       -0.333804   -1.445335   -2.302422
     56          6           0        0.354536   -2.341436   -0.530721
     57          1           0        0.212101   -2.090411    0.524810
     58          6           0        1.773480   -2.018624   -1.025945
     59          6           0        0.049317   -3.848450   -0.765551
     60          1           0        0.247339   -4.030565   -1.832067
     61          8           0        1.996872   -1.987315   -2.236306
     62          6           0       -1.428289   -4.181230   -0.484105
     63          1           0       -2.062377   -3.458280   -1.008791
     64          1           0       -1.636308   -4.042136    0.585104
     65          6           0        1.003122   -4.718775    0.066874
     66          1           0        0.841161   -4.551902    1.140202
     67          1           0        2.051472   -4.496008   -0.153084
     68          1           0        0.846316   -5.783007   -0.132271
     69          6           0       -1.839753   -5.592463   -0.921683
     70          1           0       -2.917836   -5.744895   -0.788563
     71          1           0       -1.604243   -5.760331   -1.981211
     72          1           0       -1.329101   -6.371810   -0.347040
     73          7           0        2.708357   -1.791719   -0.082080
     74          1           0        2.491103   -1.839345    0.906071
     75          6           0        4.089732   -1.469655   -0.414891
     76          1           0        4.410778   -2.117410   -1.236588
     77          6           0        4.932753   -1.765496    0.833310
     78          6           0        4.230196    0.001499   -0.887232
     79          1           0        3.450019    0.170733   -1.635285
     80          1           0        4.019611    0.681559   -0.052810
     81          8           0        4.396116   -1.923306    1.951136
     82          6           0        5.576961    0.432920   -1.536566
     83          8           0        5.640854    1.591820   -1.948001
     84          8           0        6.525837   -0.447121   -1.580054
     85          7           0        6.252680   -1.791609    0.604991
     86          1           0        6.499166   -1.469943   -0.371429
     87          6           0        7.213896   -1.733427    1.688933
     88          1           0        6.745072   -1.154087    2.496043
     89          6           0        8.487499   -0.914428    1.380632
     90          6           0        7.566872   -3.139507    2.267776
     91          1           0        8.644930   -3.303184    2.213747
     92          1           0        7.075383   -3.893369    1.643267
     93          8           0        9.467596   -1.075057    2.133333
     94          6           0        7.140206   -3.269578    3.691818
     95          6           0        7.831258   -3.503961    4.852952
     96          1           0        8.887239   -3.708325    4.962404
     97          7           0        5.835603   -3.047358    4.090040
     98          1           0        5.106827   -2.729130    3.433675
     99          6           0        5.789738   -3.142797    5.441822
    100          1           0        4.880589   -3.013726    6.012823
    101          7           0        6.986784   -3.423289    5.948076
    102          7           0        8.418877    0.017631    0.419969
    103          1           0        7.654907    0.001619   -0.276651
    104          6           0        9.507710    0.966233    0.116335
    105          1           0       10.457308    0.419449    0.159693
    106          6           0        9.526523    2.058124    1.213323
    107          6           0        9.269428    1.584370   -1.264747
    108          1           0        8.254336    1.997971   -1.280749
    109          1           0        9.950408    2.437051   -1.375256
    110          8           0        9.087694    3.186767    1.056007
    111          6           0        9.450522    0.613912   -2.447653
    112          1           0        8.888865   -0.301519   -2.230485
    113          6           0        8.818923    1.231682   -3.702138
    114          1           0        9.303714    2.184390   -3.957466
    115          1           0        8.924715    0.561805   -4.564378
    116          1           0        7.753498    1.416180   -3.529555
    117          6           0       10.924910    0.252939   -2.675861
    118          1           0       11.513888    1.148662   -2.915341
    119          1           0       11.030202   -0.447038   -3.513305
    120          1           0       11.381328   -0.219802   -1.796426
    121          7           0       10.072383    1.630213    2.404974
    122          1           0       10.160792    0.616015    2.501487
    123          6           0        9.851217    2.430249    3.599016
    124          1           0        9.882284    3.473875    3.267249
    125          6           0       11.025017    2.226161    4.547136
    126          6           0        8.483674    2.165257    4.252589
    127          1           0        7.738049    2.449263    3.504438
    128          1           0        8.356566    2.861298    5.092546
    129          8           0       10.986504    1.656855    5.630302
    130          6           0        8.262633    0.706826    4.721068
    131          1           0        7.413078    0.255128    4.197406
    132          1           0        9.121111    0.077082    4.471521
    133          6           0        8.008989    0.630238    6.231926
    134          1           0        8.725740    1.252246    6.772950
    135          1           0        7.012862    1.010199    6.479968
    136          7           0        8.091117   -0.732409    6.760078
    137          1           0        7.326524   -1.373304    6.558099
    138          7           0       10.375387   -0.662907    7.215930
    139          1           0       11.184769   -1.093580    7.636772
    140          1           0       10.527378    0.193126    6.680698
    141          7           0        9.121347   -2.577798    7.682081
    142          1           0        9.970075   -3.123513    7.740964
    143          1           0        8.271531   -3.099638    7.420782
    144          6           0        9.208339   -1.321386    7.192792
    145          8           0       12.155909    2.753737    4.067241
    146          1           0       12.865923    2.571823    4.712034
 ---------------------------------------------------------------------

 SCF Done:  E(RB3LYP) =  -3503.59279400     A.U. after    1 cycles

 Alpha  occ. eigenvalues --  -19.28357 -19.27186 -19.26613 -19.24930 -19.22064
 Alpha  occ. eigenvalues --  -19.21813 -19.20625 -19.17148 -19.16283 -19.15985
 Alpha  occ. eigenvalues --  -19.14829 -19.14666 -19.10020 -19.08338 -14.61801
 Alpha  occ. eigenvalues --  -14.50694 -14.47889 -14.45553 -14.45507 -14.44722
 Alpha  occ. eigenvalues --  -14.44613 -14.43580 -14.40363 -14.39446 -14.38917
 Alpha  occ. eigenvalues --  -14.38832 -14.38789 -14.38381 -10.44784 -10.41924
 Alpha  occ. eigenvalues --  -10.41430 -10.41363 -10.39600 -10.39050 -10.37493
 Alpha  occ. eigenvalues --  -10.36467 -10.33586 -10.33103 -10.33045 -10.32640
 Alpha  occ. eigenvalues --  -10.32104 -10.31982 -10.31511 -10.30388 -10.30102
 Alpha  occ. eigenvalues --  -10.30065 -10.29601 -10.28839 -10.28208 -10.27468
 Alpha  occ. eigenvalues --  -10.27343 -10.27213 -10.26150 -10.25891 -10.25566
 Alpha  occ. eigenvalues --  -10.25556 -10.25106 -10.24993 -10.24806 -10.24580
 Alpha  occ. eigenvalues --  -10.24306 -10.23839 -10.22971 -10.22901 -10.22788
 Alpha  occ. eigenvalues --  -10.21922 -10.19832 -10.18433 -10.18202 -10.17725
 Alpha  occ. eigenvalues --  -10.15727  -1.20867  -1.18047  -1.16412  -1.15781
 Alpha  occ. eigenvalues --   -1.14855  -1.12574  -1.10533  -1.09417  -1.08855
 Alpha  occ. eigenvalues --   -1.08337  -1.08184  -1.07642  -1.07540  -1.07016
 Alpha  occ. eigenvalues --   -1.06599  -1.06486  -1.04082  -1.02421  -1.00835
 Alpha  occ. eigenvalues --   -0.99888  -0.98462  -0.97070  -0.97016  -0.96249
 Alpha  occ. eigenvalues --   -0.95775  -0.94964  -0.93514  -0.93114  -0.92821
 Alpha  occ. eigenvalues --   -0.89688  -0.87476  -0.85900  -0.85698  -0.85603
 Alpha  occ. eigenvalues --   -0.84268  -0.82061  -0.81167  -0.81015  -0.80823
 Alpha  occ. eigenvalues --   -0.80443  -0.79105  -0.77696  -0.77287  -0.76582
 Alpha  occ. eigenvalues --   -0.76331  -0.75531  -0.75324  -0.74721  -0.74042
 Alpha  occ. eigenvalues --   -0.73754  -0.73228  -0.72419  -0.71282  -0.71105
 Alpha  occ. eigenvalues --   -0.69317  -0.69162  -0.68628  -0.68263  -0.67954
 Alpha  occ. eigenvalues --   -0.67592  -0.67281  -0.66746  -0.66591  -0.66470
 Alpha  occ. eigenvalues --   -0.66245  -0.64564  -0.64539  -0.64360  -0.63891
 Alpha  occ. eigenvalues --   -0.63522  -0.63122  -0.62695  -0.62499  -0.61745
 Alpha  occ. eigenvalues --   -0.61655  -0.61198  -0.61081  -0.60743  -0.59994
 Alpha  occ. eigenvalues --   -0.59650  -0.59473  -0.59275  -0.59210  -0.58798
 Alpha  occ. eigenvalues --   -0.58492  -0.57750  -0.57275  -0.57135  -0.56413
 Alpha  occ. eigenvalues --   -0.56024  -0.55624  -0.55477  -0.55058  -0.54948
 Alpha  occ. eigenvalues --   -0.54501  -0.54021  -0.53758  -0.53241  -0.52999
 Alpha  occ. eigenvalues --   -0.52874  -0.52427  -0.52273  -0.51935  -0.51606
 Alpha  occ. eigenvalues --   -0.51550  -0.51406  -0.51368  -0.50907  -0.50706
 Alpha  occ. eigenvalues --   -0.50626  -0.50541  -0.50474  -0.49805  -0.49715
 Alpha  occ. eigenvalues --   -0.49303  -0.49096  -0.48949  -0.48700  -0.48278
 Alpha  occ. eigenvalues --   -0.47976  -0.47581  -0.47479  -0.47121  -0.47047
 Alpha  occ. eigenvalues --   -0.46793  -0.46646  -0.46434  -0.46375  -0.46150
 Alpha  occ. eigenvalues --   -0.46075  -0.45983  -0.45706  -0.45640  -0.45295
 Alpha  occ. eigenvalues --   -0.44990  -0.44834  -0.44632  -0.44391  -0.44347
 Alpha  occ. eigenvalues --   -0.44018  -0.43803  -0.43484  -0.43050  -0.42894
 Alpha  occ. eigenvalues --   -0.42786  -0.42722  -0.42247  -0.41916  -0.41881
 Alpha  occ. eigenvalues --   -0.41830  -0.41508  -0.41225  -0.41133  -0.40953
 Alpha  occ. eigenvalues --   -0.40902  -0.40786  -0.40649  -0.40524  -0.40389
 Alpha  occ. eigenvalues --   -0.40061  -0.39960  -0.39359  -0.39332  -0.39268
 Alpha  occ. eigenvalues --   -0.38887  -0.38736  -0.38606  -0.38285  -0.38144
 Alpha  occ. eigenvalues --   -0.37640  -0.37409  -0.37249  -0.36985  -0.36906
 Alpha  occ. eigenvalues --   -0.36067  -0.35560  -0.35320  -0.35231  -0.34968
 Alpha  occ. eigenvalues --   -0.34830  -0.34544  -0.33872  -0.33312  -0.32374
 Alpha  occ. eigenvalues --   -0.32185  -0.32001  -0.31577  -0.30774  -0.30572
 Alpha  occ. eigenvalues --   -0.30311  -0.30102  -0.29478  -0.29099  -0.28853
 Alpha  occ. eigenvalues --   -0.28146  -0.27961  -0.26985  -0.25024  -0.24546
 Alpha  occ. eigenvalues --   -0.22299
 Alpha virt. eigenvalues --   -0.13982  -0.12576  -0.10604  -0.07501  -0.07104
 Alpha virt. eigenvalues --   -0.06912  -0.06175  -0.04944  -0.03699  -0.03203
 Alpha virt. eigenvalues --   -0.02751  -0.02593  -0.02282  -0.02263  -0.01771

 Mulliken charges:
               1
     1  N   -0.758299
     2  H    0.424020
     3  H    0.434810
     4  H    0.418778
     5  C   -0.135160
     6  H    0.227864
     7  C    0.642602
     8  C   -0.043013
     9  H    0.172183
    10  H    0.180961
    11  O   -0.526704
    12  O   -0.632738
    13  H    0.466955
    14  N   -0.570672
    15  H    0.362079
    16  C   -0.092517
    17  H    0.213145
    18  C    0.676043
    19  C   -0.480274
    20  H    0.191500
    21  H    0.185166
    22  H    0.192808
    23  O   -0.596177
    24  N   -0.586654
    25  H    0.365215
    26  C   -0.084347
    27  H    0.182342
    28  C    0.638231
    29  C    0.101894
    30  H    0.168832
    31  O   -0.541602
    32  C   -0.452907
    33  H    0.152881
    34  H    0.146588
    35  H    0.185207
    36  O   -0.646919
    37  H    0.429194
    38  N   -0.608950
    39  H    0.355281
    40  C   -0.047450
    41  H    0.175965
    42  C    0.627292
    43  C   -0.094542
    44  H    0.150633
    45  O   -0.542217
    46  C   -0.462347
    47  H    0.148860
    48  H    0.184835
    49  H    0.150069
    50  C   -0.466136
    51  H    0.149136
    52  H    0.116456
    53  H    0.158240
    54  N   -0.610246
    55  H    0.370455
    56  C   -0.051493
    57  H    0.162858
    58  C    0.630697
    59  C   -0.070757
    60  H    0.143206
    61  O   -0.547641
    62  C   -0.256607
    63  H    0.122159
    64  H    0.146730
    65  C   -0.470658
    66  H    0.140326
    67  H    0.165924
    68  H    0.153281
    69  C   -0.461171
    70  H    0.132449
    71  H    0.142594
    72  H    0.159070
    73  N   -0.619850
    74  H    0.344366
    75  C   -0.046055
    76  H    0.196989
    77  C    0.603784
    78  C   -0.369155
    79  H    0.190768
    80  H    0.149463
    81  O   -0.597140
    82  C    0.610366
    83  O   -0.534856
    84  O   -0.640635
    85  N   -0.637451
    86  H    0.402484
    87  C   -0.040315
    88  H    0.182636
    89  C    0.598624
    90  C   -0.341894
    91  H    0.191839
    92  H    0.177837
    93  O   -0.585270
    94  C    0.312467
    95  C   -0.078191
    96  H    0.131479
    97  N   -0.602345
    98  H    0.399538
    99  C    0.193456
   100  H    0.171936
   101  N   -0.516559
   102  N   -0.647043
   103  H    0.419858
   104  C   -0.061158
   105  H    0.167420
   106  C    0.615891
   107  C   -0.303623
   108  H    0.198030
   109  H    0.142411
   110  O   -0.504854
   111  C   -0.068880
   112  H    0.148162
   113  C   -0.460538
   114  H    0.120678
   115  H    0.122914
   116  H    0.196349
   117  C   -0.447764
   118  H    0.133846
   119  H    0.139643
   120  H    0.125542
   121  N   -0.633611
   122  H    0.380052
   123  C   -0.046041
   124  H    0.212653
   125  C    0.588082
   126  C   -0.281096
   127  H    0.187620
   128  H    0.146275
   129  O   -0.509592
   130  C   -0.274919
   131  H    0.159423
   132  H    0.165896
   133  C   -0.187110
   134  H    0.184334
   135  H    0.178227
   136  N   -0.592257
   137  H    0.377743
   138  N   -0.803542
   139  H    0.359206
   140  H    0.443061
   141  N   -0.769677
   142  H    0.349188
   143  H    0.398957
   144  C    0.781713
   145  O   -0.525876
   146  H    0.418475
 Sum of Mulliken charges =   1.00000

 Dipole moment (field-independent basis, Debye):
    X=            -30.5499    Y=            -11.4046    Z=              4.1021  Tot=             32.8662
 Quadrupole moment (field-independent basis, Debye-Ang):
   XX=            193.2379   YY=           -401.5860   ZZ=           -255.8642
   XY=             17.1789   XZ=            355.7438   YZ=              5.9902

 Normal termination of Gaussian 16 at Sun Jun 12 09:21:51 2022.
