 Gaussian 16, Revision C.01,
 Gaussian 16:  ES64L-G16RevC.01  3-Jul-2019

 ----------------------------------------------------------------------
 # B3LYP/6-31G* empiricaldispersion=gd3 guess=read geom=check nosymm in
 tegral(ultrafinegrid)
 ----------------------------------------------------------------------

 ------------------------------------------------------
 Candidate Structure: Conf:291 Charge calc in gas phase
 ------------------------------------------------------
 Structure from the checkpoint file:  "conf-291.chk"
 Charge =  1 Multiplicity = 1

                          Input orientation:
 ---------------------------------------------------------------------
 Center     Atomic      Atomic             Coordinates (Angstroms)
 Number     Number       Type             X           Y           Z
 ---------------------------------------------------------------------
      1          7           0        0.274883   -2.311953   -4.055074
      2          1           0        0.929809   -1.074156   -3.123481
      3          1           0       -0.485391   -2.637449   -3.456347
      4          1           0        0.841343   -3.124774   -4.295558
      5          6           0       -0.301016   -1.776631   -5.296025
      6          1           0        0.518675   -1.360421   -5.890890
      7          6           0       -1.275822   -0.660684   -4.921994
      8          6           0       -1.027465   -2.858179   -6.116072
      9          1           0       -1.374750   -2.437174   -7.072413
     10          1           0       -1.917578   -3.202457   -5.562201
     11          8           0       -1.614299   -0.494207   -3.752583
     12          8           0       -0.090110   -3.906618   -6.316970
     13          1           0       -0.547667   -4.656669   -6.725647
     14          7           0       -1.840317    0.032980   -5.944408
     15          1           0       -1.423314   -0.041187   -6.863249
     16          6           0       -2.707922    1.192107   -5.693581
     17          1           0       -2.254552    1.775046   -4.882472
     18          6           0       -4.114921    0.840439   -5.154344
     19          6           0       -2.818310    2.051998   -6.951878
     20          1           0       -3.499021    2.881496   -6.752043
     21          1           0       -3.223846    1.471428   -7.789445
     22          1           0       -1.840052    2.453287   -7.236459
     23          8           0       -4.899656    1.742355   -4.895425
     24          7           0       -4.377247   -0.477998   -4.940344
     25          1           0       -3.663090   -1.160276   -5.147095
     26          6           0       -5.472873   -0.967631   -4.125637
     27          1           0       -6.297584   -0.251603   -4.195288
     28          6           0       -5.088304   -1.114234   -2.625255
     29          6           0       -5.904281   -2.355448   -4.638511
     30          1           0       -6.721468   -2.701074   -3.997049
     31          8           0       -5.759878   -1.826512   -1.876307
     32          6           0       -6.339288   -2.352518   -6.094383
     33          1           0       -7.182633   -1.669554   -6.240899
     34          1           0       -5.520487   -2.029472   -6.744715
     35          1           0       -6.643369   -3.359927   -6.392340
     36          8           0       -4.781505   -3.255565   -4.519076
     37          1           0       -4.741445   -3.513860   -3.583509
     38          7           0       -3.978947   -0.447945   -2.247519
     39          1           0       -3.391638   -0.006944   -2.944851
     40          6           0       -3.366975   -0.539827   -0.941772
     41          1           0       -4.145886   -0.811578   -0.220942
     42          6           0       -2.768406    0.842383   -0.653221
     43          6           0       -2.212636   -1.605520   -0.885309
     44          1           0       -1.370235   -1.192398   -1.451298
     45          8           0       -2.394414    1.576967   -1.570797
     46          6           0       -1.747846   -1.880700    0.553933
     47          1           0       -2.589646   -2.175412    1.195543
     48          1           0       -1.248173   -1.018101    1.005687
     49          1           0       -1.027171   -2.705870    0.565091
     50          6           0       -2.648119   -2.909789   -1.567751
     51          1           0       -3.554306   -3.317174   -1.105807
     52          1           0       -2.853401   -2.742290   -2.628732
     53          1           0       -1.853833   -3.662320   -1.486912
     54          7           0       -2.591285    1.174342    0.652422
     55          1           0       -2.836689    0.503388    1.365533
     56          6           0       -1.772403    2.328304    1.029838
     57          1           0       -2.023031    3.112918    0.311340
     58          6           0       -0.279478    1.992923    0.819579
     59          6           0       -2.114622    2.847450    2.442447
     60          1           0       -3.150364    3.207563    2.361277
     61          8           0        0.483057    1.700978    1.755641
     62          6           0       -1.233119    4.052616    2.842343
     63          1           0       -0.235797    3.686979    3.111996
     64          1           0       -1.666846    4.478430    3.756310
     65          6           0       -2.072208    1.767459    3.537274
     66          1           0       -1.079513    1.314679    3.596293
     67          1           0       -2.811301    0.971991    3.377725
     68          1           0       -2.308466    2.216289    4.508373
     69          6           0       -1.102931    5.150232    1.778299
     70          1           0       -0.622519    6.037934    2.203780
     71          1           0       -0.485054    4.831024    0.931794
     72          1           0       -2.084927    5.457664    1.397132
     73          7           0        0.137838    2.039184   -0.458362
     74          1           0       -0.563168    2.187784   -1.182434
     75          6           0        1.539504    1.892760   -0.799938
     76          1           0        1.899183    0.918343   -0.452235
     77          6           0        2.336356    3.021494   -0.114437
     78          6           0        1.743454    2.002025   -2.318205
     79          1           0        1.286715    2.919350   -2.701049
     80          1           0        2.820011    2.083770   -2.516056
     81          8           0        1.879800    4.149391    0.038030
     82          6           0        1.245912    0.828651   -3.158045
     83          8           0        1.251180   -0.324685   -2.500998
     84          8           0        0.949345    0.968495   -4.332343
     85          7           0        3.598728    2.687611    0.262303
     86          1           0        3.953206    1.739523    0.204820
     87          6           0        4.479483    3.659209    0.874925
     88          1           0        4.453098    4.577816    0.277221
     89          6           0        5.892883    3.070752    0.882105
     90          6           0        4.029777    4.033726    2.320687
     91          1           0        3.071243    4.552693    2.225109
     92          1           0        4.750249    4.737523    2.750436
     93          8           0        6.100568    1.860856    0.809411
     94          6           0        3.903662    2.853183    3.223092
     95          6           0        4.739334    2.335006    4.182483
     96          1           0        5.711514    2.702109    4.482613
     97          7           0        2.818907    1.996419    3.182546
     98          1           0        2.005187    2.041961    2.554930
     99          6           0        3.023956    1.020022    4.086569
    100          1           0        2.319046    0.217531    4.252353
    101          7           0        4.180277    1.188621    4.724182
    102          7           0        6.889051    3.984000    0.986150
    103          1           0        6.658932    4.954135    1.152084
    104          6           0        8.280800    3.584503    1.092861
    105          1           0        8.490033    2.903933    0.261124
    106          6           0        8.538488    2.862836    2.427311
    107          6           0        9.166848    4.844233    1.003214
    108          1           0        8.874991    5.392460    0.096580
    109          1           0        8.918679    5.481296    1.863457
    110          8           0        8.023489    3.231411    3.478080
    111          6           0       10.688717    4.607445    0.973165
    112          1           0       10.972624    4.032764    1.864036
    113          6           0       11.132591    3.815566   -0.265375
    114          1           0       10.855441    4.344461   -1.185983
    115          1           0       12.219820    3.684642   -0.269208
    116          1           0       10.688475    2.814584   -0.313522
    117          6           0       11.416341    5.958842    1.033164
    118          1           0       11.169013    6.576800    0.160670
    119          1           0       12.502630    5.817633    1.042775
    120          1           0       11.142028    6.521906    1.932672
    121          7           0        9.438112    1.841592    2.352442
    122          1           0        9.847053    1.621590    1.455206
    123          6           0       10.060568    1.270299    3.533875
    124          1           0        9.954749    2.014047    4.334256
    125          6           0       11.562923    1.048345    3.356708
    126          6           0        9.400023   -0.038925    4.008174
    127          1           0       10.011097   -0.434879    4.827051
    128          1           0        9.433489   -0.774513    3.193566
    129          8           0       12.247152    0.468911    4.166098
    130          6           0        7.958809    0.181181    4.472046
    131          1           0        7.928934    0.986574    5.215194
    132          1           0        7.334382    0.511888    3.633689
    133          6           0        7.368240   -1.088939    5.094544
    134          1           0        7.301431   -1.896630    4.356811
    135          1           0        8.014811   -1.437542    5.906759
    136          7           0        6.030615   -0.810102    5.627363
    137          1           0        5.421468   -0.192861    5.062766
    138          7           0        6.261090   -1.690496    7.785744
    139          1           0        6.118183   -1.575765    8.777938
    140          1           0        6.908409   -2.401476    7.483002
    141          7           0        4.632887   -0.101779    7.306689
    142          1           0        4.078945   -0.356390    8.111436
    143          1           0        4.248242    0.545099    6.604742
    144          6           0        5.651213   -0.876206    6.900707
    145          8           0       12.049908    1.568031    2.204619
    146          1           0       13.008363    1.380715    2.193097
 ---------------------------------------------------------------------

 SCF Done:  E(RB3LYP) =  -3503.65983572     A.U. after    3 cycles

 Alpha  occ. eigenvalues --  -19.29097 -19.22818 -19.22243 -19.22052 -19.20461
 Alpha  occ. eigenvalues --  -19.20161 -19.19954 -19.19799 -19.18886 -19.18684
 Alpha  occ. eigenvalues --  -19.18373 -19.18017 -19.15643 -19.15578 -14.50112
 Alpha  occ. eigenvalues --  -14.48160 -14.48123 -14.46112 -14.44930 -14.44807
 Alpha  occ. eigenvalues --  -14.43521 -14.43246 -14.43165 -14.42727 -14.41719
 Alpha  occ. eigenvalues --  -14.40861 -14.40537 -14.39609 -10.45469 -10.41199
 Alpha  occ. eigenvalues --  -10.37325 -10.37162 -10.36778 -10.36148 -10.35904
 Alpha  occ. eigenvalues --  -10.35848 -10.35290 -10.33821 -10.33220 -10.33129
 Alpha  occ. eigenvalues --  -10.32899 -10.32852 -10.31829 -10.31810 -10.30910
 Alpha  occ. eigenvalues --  -10.30724 -10.29890 -10.29780 -10.29737 -10.28995
 Alpha  occ. eigenvalues --  -10.28749 -10.28535 -10.28332 -10.28256 -10.28000
 Alpha  occ. eigenvalues --  -10.27987 -10.27465 -10.27094 -10.26767 -10.26519
 Alpha  occ. eigenvalues --  -10.25670 -10.25099 -10.24738 -10.24056 -10.23751
 Alpha  occ. eigenvalues --  -10.23702 -10.23625 -10.23458 -10.22974 -10.22000
 Alpha  occ. eigenvalues --  -10.21929  -1.19721  -1.13971  -1.13864  -1.12736
 Alpha  occ. eigenvalues --   -1.11841  -1.11591  -1.11246  -1.10696  -1.10553
 Alpha  occ. eigenvalues --   -1.10127  -1.09681  -1.09321  -1.08257  -1.07418
 Alpha  occ. eigenvalues --   -1.06413  -1.05100  -1.03348  -1.01987  -1.01639
 Alpha  occ. eigenvalues --   -1.01366  -1.00142  -0.99891  -0.99546  -0.99220
 Alpha  occ. eigenvalues --   -0.97876  -0.97092  -0.96116  -0.95344  -0.90249
 Alpha  occ. eigenvalues --   -0.89098  -0.87875  -0.87262  -0.85579  -0.85481
 Alpha  occ. eigenvalues --   -0.85378  -0.84064  -0.83143  -0.81782  -0.80763
 Alpha  occ. eigenvalues --   -0.79922  -0.79733  -0.79036  -0.77923  -0.77120
 Alpha  occ. eigenvalues --   -0.75896  -0.75615  -0.75423  -0.74615  -0.74244
 Alpha  occ. eigenvalues --   -0.73723  -0.72654  -0.72010  -0.71570  -0.70613
 Alpha  occ. eigenvalues --   -0.69616  -0.69509  -0.68914  -0.68470  -0.68299
 Alpha  occ. eigenvalues --   -0.67853  -0.67433  -0.67066  -0.66667  -0.66110
 Alpha  occ. eigenvalues --   -0.65601  -0.65460  -0.65047  -0.64373  -0.63824
 Alpha  occ. eigenvalues --   -0.63646  -0.63481  -0.62847  -0.62776  -0.62746
 Alpha  occ. eigenvalues --   -0.62523  -0.62002  -0.61710  -0.61245  -0.60575
 Alpha  occ. eigenvalues --   -0.60181  -0.59043  -0.58802  -0.58161  -0.57560
 Alpha  occ. eigenvalues --   -0.57290  -0.57080  -0.56737  -0.56621  -0.56528
 Alpha  occ. eigenvalues --   -0.55977  -0.55741  -0.55670  -0.54933  -0.54693
 Alpha  occ. eigenvalues --   -0.54543  -0.54402  -0.54085  -0.53840  -0.53522
 Alpha  occ. eigenvalues --   -0.53211  -0.52945  -0.52605  -0.52537  -0.52352
 Alpha  occ. eigenvalues --   -0.52080  -0.51744  -0.51690  -0.51508  -0.51237
 Alpha  occ. eigenvalues --   -0.51096  -0.50807  -0.50602  -0.50299  -0.50166
 Alpha  occ. eigenvalues --   -0.49971  -0.49767  -0.49494  -0.49458  -0.49226
 Alpha  occ. eigenvalues --   -0.49147  -0.48701  -0.48500  -0.48323  -0.48075
 Alpha  occ. eigenvalues --   -0.47860  -0.47668  -0.47376  -0.47292  -0.46933
 Alpha  occ. eigenvalues --   -0.46898  -0.46729  -0.46382  -0.46198  -0.46185
 Alpha  occ. eigenvalues --   -0.45930  -0.45742  -0.45531  -0.45345  -0.45304
 Alpha  occ. eigenvalues --   -0.45119  -0.44916  -0.44835  -0.44752  -0.44549
 Alpha  occ. eigenvalues --   -0.44385  -0.44129  -0.43946  -0.43772  -0.43621
 Alpha  occ. eigenvalues --   -0.43486  -0.43240  -0.43170  -0.43098  -0.42654
 Alpha  occ. eigenvalues --   -0.42324  -0.42246  -0.41922  -0.41675  -0.41140
 Alpha  occ. eigenvalues --   -0.41074  -0.41001  -0.40975  -0.40648  -0.40483
 Alpha  occ. eigenvalues --   -0.39961  -0.39901  -0.39828  -0.39594  -0.39361
 Alpha  occ. eigenvalues --   -0.38845  -0.38696  -0.38491  -0.38347  -0.38005
 Alpha  occ. eigenvalues --   -0.37865  -0.37497  -0.37186  -0.36990  -0.35514
 Alpha  occ. eigenvalues --   -0.35462  -0.34842  -0.34752  -0.34592  -0.34276
 Alpha  occ. eigenvalues --   -0.33888  -0.33795  -0.33606  -0.33378  -0.33293
 Alpha  occ. eigenvalues --   -0.33093  -0.32815  -0.32686  -0.32182  -0.31667
 Alpha  occ. eigenvalues --   -0.31263  -0.30990  -0.30363  -0.29274  -0.28996
 Alpha  occ. eigenvalues --   -0.27897
 Alpha virt. eigenvalues --   -0.09858  -0.08058  -0.06923  -0.06531  -0.06180
 Alpha virt. eigenvalues --   -0.06027  -0.05713  -0.05368  -0.04585  -0.04310
 Alpha virt. eigenvalues --   -0.03352  -0.03151  -0.02475  -0.02287  -0.02054

 Mulliken charges:
               1
     1  N   -0.783293
     2  H    0.481545
     3  H    0.344624
     4  H    0.345663
     5  C   -0.085948
     6  H    0.190574
     7  C    0.649258
     8  C   -0.049139
     9  H    0.132717
    10  H    0.155162
    11  O   -0.535101
    12  O   -0.623455
    13  H    0.411167
    14  N   -0.638213
    15  H    0.343567
    16  C   -0.021442
    17  H    0.211467
    18  C    0.598687
    19  C   -0.490680
    20  H    0.205401
    21  H    0.153870
    22  H    0.162643
    23  O   -0.512201
    24  N   -0.629230
    25  H    0.350783
    26  C   -0.042944
    27  H    0.202880
    28  C    0.599169
    29  C    0.093118
    30  H    0.167434
    31  O   -0.554217
    32  C   -0.442077
    33  H    0.157307
    34  H    0.147049
    35  H    0.162378
    36  O   -0.653597
    37  H    0.413166
    38  N   -0.619407
    39  H    0.412618
    40  C   -0.057954
    41  H    0.171041
    42  C    0.644622
    43  C   -0.086224
    44  H    0.171775
    45  O   -0.546511
    46  C   -0.475581
    47  H    0.144818
    48  H    0.148491
    49  H    0.150532
    50  C   -0.479257
    51  H    0.170197
    52  H    0.147992
    53  H    0.134306
    54  N   -0.617337
    55  H    0.343991
    56  C   -0.067252
    57  H    0.196563
    58  C    0.660711
    59  C   -0.085833
    60  H    0.146168
    61  O   -0.592940
    62  C   -0.263994
    63  H    0.142540
    64  H    0.136778
    65  C   -0.478714
    66  H    0.167186
    67  H    0.132496
    68  H    0.155534
    69  C   -0.477507
    70  H    0.148399
    71  H    0.179681
    72  H    0.147099
    73  N   -0.599168
    74  H    0.392540
    75  C   -0.021047
    76  H    0.176297
    77  C    0.614478
    78  C   -0.398740
    79  H    0.198406
    80  H    0.188380
    81  O   -0.524399
    82  C    0.611911
    83  O   -0.615504
    84  O   -0.505112
    85  N   -0.627409
    86  H    0.354169
    87  C   -0.033558
    88  H    0.180681
    89  C    0.643360
    90  C   -0.376961
    91  H    0.209662
    92  H    0.168186
    93  O   -0.547087
    94  C    0.318183
    95  C   -0.072026
    96  H    0.186349
    97  N   -0.619592
    98  H    0.431172
    99  C    0.217137
   100  H    0.174949
   101  N   -0.552488
   102  N   -0.616303
   103  H    0.341893
   104  C   -0.033737
   105  H    0.168232
   106  C    0.644296
   107  C   -0.301010
   108  H    0.154760
   109  H    0.157359
   110  O   -0.543320
   111  C   -0.091651
   112  H    0.141352
   113  C   -0.443502
   114  H    0.152852
   115  H    0.154159
   116  H    0.127041
   117  C   -0.445599
   118  H    0.149582
   119  H    0.153223
   120  H    0.150548
   121  N   -0.601227
   122  H    0.354134
   123  C   -0.060752
   124  H    0.211334
   125  C    0.593186
   126  C   -0.267629
   127  H    0.174942
   128  H    0.152432
   129  O   -0.446054
   130  C   -0.291311
   131  H    0.167504
   132  H    0.192395
   133  C   -0.157125
   134  H    0.183435
   135  H    0.153197
   136  N   -0.608792
   137  H    0.408923
   138  N   -0.757269
   139  H    0.376180
   140  H    0.379004
   141  N   -0.776961
   142  H    0.359762
   143  H    0.410511
   144  C    0.778430
   145  O   -0.572623
   146  H    0.428312
 Sum of Mulliken charges =   1.00000

 Dipole moment (field-independent basis, Debye):
    X=             27.8126    Y=             -2.7647    Z=             14.8004  Tot=             31.6265
 Quadrupole moment (field-independent basis, Debye-Ang):
   XX=           -207.1198   YY=           -375.6742   ZZ=           -214.2480
   XY=             32.5146   XZ=            109.4772   YZ=             -0.1325

 Normal termination of Gaussian 16 at Sun Jun 12 09:23:30 2022.
