 Gaussian 16, Revision C.01,
 Gaussian 16:  ES64L-G16RevC.01  3-Jul-2019

 ----------------------------------------------------------------------
 # B3LYP/6-31G* empiricaldispersion=gd3 guess=read geom=check nosymm in
 tegral(ultrafinegrid)
 ----------------------------------------------------------------------

 ------------------------------------------------------
 Candidate Structure: Conf:252 Charge calc in gas phase
 ------------------------------------------------------
 Structure from the checkpoint file:  "conf-252.chk"
 Charge =  1 Multiplicity = 1

                          Input orientation:
 ---------------------------------------------------------------------
 Center     Atomic      Atomic             Coordinates (Angstroms)
 Number     Number       Type             X           Y           Z
 ---------------------------------------------------------------------
      1          7           0       -7.457409   -6.600885    0.649375
      2          1           0       -7.684036   -7.401870    0.054047
      3          1           0       -6.523621   -6.746410    1.040128
      4          1           0       -8.125545   -6.587176    1.420577
      5          6           0       -7.494617   -5.322472   -0.108938
      6          1           0       -8.502123   -5.176626   -0.514141
      7          6           0       -6.506762   -5.386936   -1.273656
      8          6           0       -7.167808   -4.150897    0.798022
      9          1           0       -6.123877   -4.223856    1.129164
     10          1           0       -7.812121   -4.215023    1.679155
     11          8           0       -5.331324   -5.019929   -1.139637
     12          8           0       -7.432493   -2.907161    0.168451
     13          1           0       -6.610880   -2.579692   -0.229025
     14          7           0       -6.963012   -5.920941   -2.423221
     15          1           0       -7.952061   -6.047691   -2.564956
     16          6           0       -6.108552   -6.055034   -3.604536
     17          1           0       -5.145113   -6.431739   -3.253802
     18          6           0       -5.914168   -4.670142   -4.231685
     19          6           0       -6.753939   -7.024448   -4.575000
     20          1           0       -6.133864   -7.146718   -5.465628
     21          1           0       -7.732176   -6.654172   -4.884723
     22          1           0       -6.872337   -7.997784   -4.094655
     23          8           0       -6.682476   -4.215157   -5.069064
     24          7           0       -4.871738   -3.959456   -3.732709
     25          1           0       -4.256584   -4.376160   -3.052404
     26          6           0       -4.768143   -2.535582   -3.895982
     27          1           0       -5.212906   -2.274545   -4.855351
     28          6           0       -3.294675   -2.157999   -3.881445
     29          6           0       -5.523630   -1.748124   -2.798725
     30          1           0       -5.204080   -0.701420   -2.864433
     31          8           0       -2.462921   -2.787114   -3.254791
     32          6           0       -7.026268   -1.854412   -2.941723
     33          1           0       -7.338488   -1.619169   -3.960849
     34          1           0       -7.370597   -2.862068   -2.707275
     35          1           0       -7.512942   -1.160806   -2.255828
     36          8           0       -5.151393   -2.195667   -1.491439
     37          1           0       -5.054637   -3.157190   -1.504361
     38          7           0       -2.958012   -1.065731   -4.630587
     39          1           0       -3.709296   -0.430955   -4.834184
     40          6           0       -1.674671   -0.422128   -4.333928
     41          1           0       -0.888615   -1.143525   -4.563279
     42          6           0       -1.674743   -0.136772   -2.837994
     43          6           0       -1.476658    0.835948   -5.190955
     44          1           0       -2.353577    1.465590   -5.022137
     45          8           0       -2.616391    0.427636   -2.291986
     46          6           0       -0.219504    1.632859   -4.836046
     47          1           0        0.668738    1.012931   -4.983793
     48          1           0       -0.184417    2.033898   -3.811266
     49          1           0       -0.137953    2.486605   -5.517081
     50          6           0       -1.404276    0.457197   -6.670877
     51          1           0       -0.501384   -0.131947   -6.850666
     52          1           0       -2.266362   -0.125799   -6.994238
     53          1           0       -1.347306    1.357253   -7.287014
     54          7           0       -0.600291   -0.605320   -2.166272
     55          1           0        0.160226   -1.045265   -2.662771
     56          6           0       -0.386112   -0.342269   -0.755944
     57          1           0       -1.120656    0.405106   -0.461343
     58          6           0        1.016738    0.251494   -0.654382
     59          6           0       -0.555290   -1.599468    0.115021
     60          1           0       -0.110657   -1.365260    1.092611
     61          8           0        1.978267   -0.307067   -1.189715
     62          6           0        0.166519   -2.817548   -0.473649
     63          1           0        1.101140   -2.495823   -0.938151
     64          1           0       -0.453978   -3.231105   -1.271042
     65          6           0       -2.047706   -1.898157    0.293357
     66          1           0       -2.528864   -2.012709   -0.674952
     67          1           0       -2.546783   -1.086066    0.826481
     68          1           0       -2.203437   -2.818750    0.855597
     69          6           0        0.450004   -3.889770    0.570745
     70          1           0        0.931230   -4.758466    0.118733
     71          1           0        1.117897   -3.509979    1.348496
     72          1           0       -0.463688   -4.229753    1.061887
     73          7           0        1.125981    1.428294   -0.008847
     74          1           0        0.362778    1.819078    0.520292
     75          6           0        2.287901    2.276069   -0.177342
     76          1           0        3.027404    1.694082   -0.726990
     77          6           0        2.791452    2.651365    1.216609
     78          6           0        1.948045    3.545868   -0.961012
     79          1           0        1.249984    4.169646   -0.403291
     80          1           0        2.862198    4.109521   -1.153508
     81          8           0        2.010777    2.977544    2.096994
     82          6           0        1.332090    3.173062   -2.338508
     83          8           0        2.029527    2.448683   -3.068654
     84          8           0        0.216187    3.674830   -2.555373
     85          7           0        4.134373    2.648855    1.385850
     86          1           0        4.753815    2.324209    0.659751
     87          6           0        4.716911    2.848530    2.691003
     88          1           0        4.418162    3.835813    3.052740
     89          6           0        6.235203    2.810422    2.533437
     90          6           0        4.233795    1.826004    3.748895
     91          1           0        3.225283    2.098399    4.053237
     92          1           0        4.875964    1.922964    4.629716
     93          8           0        6.780370    2.162310    1.646086
     94          6           0        4.186258    0.400603    3.285730
     95          6           0        3.227650   -0.555001    3.459060
     96          1           0        2.283754   -0.463573    3.980494
     97          7           0        5.173131   -0.214248    2.555036
     98          1           0        5.989116    0.244670    2.167496
     99          6           0        4.780428   -1.494682    2.327924
    100          1           0        5.392534   -2.186000    1.776735
    101          7           0        3.603606   -1.744482    2.863589
    102          7           0        6.939902    3.449877    3.486595
    103          1           0        6.479971    4.034329    4.166684
    104          6           0        8.392971    3.479300    3.447626
    105          1           0        8.729049    2.473756    3.192339
    106          6           0        8.856089    3.880663    4.840438
    107          6           0        8.901883    4.462475    2.390541
    108          1           0        8.493630    4.148442    1.430539
    109          1           0        8.481119    5.444320    2.616343
    110          8           0        8.377314    4.854567    5.408567
    111          6           0       10.423153    4.594302    2.283717
    112          1           0       10.804678    4.918857    3.256189
    113          6           0       11.084646    3.271058    1.910808
    114          1           0       10.706873    2.922335    0.945051
    115          1           0       12.167962    3.391050    1.825215
    116          1           0       10.901082    2.487685    2.648622
    117          6           0       10.765266    5.674230    1.259079
    118          1           0       10.383365    5.394827    0.274417
    119          1           0       11.845586    5.812415    1.179102
    120          1           0       10.322827    6.632526    1.539245
    121          7           0        9.823404    3.101544    5.386002
    122          1           0       10.200863    2.340368    4.846261
    123          6           0       10.485714    3.485162    6.611990
    124          1           0       10.171622    4.513740    6.823660
    125          6           0       11.990724    3.540285    6.468132
    126          6           0       10.094038    2.615748    7.808731
    127          1           0       10.703051    2.933409    8.656260
    128          1           0       10.341663    1.571396    7.609272
    129          8           0       12.748505    3.689979    7.390348
    130          6           0        8.619455    2.745892    8.158843
    131          1           0        8.379756    3.800776    8.319210
    132          1           0        8.003012    2.402458    7.330518
    133          6           0        8.259470    1.946075    9.397467
    134          1           0        8.476206    0.889890    9.216972
    135          1           0        8.875253    2.266784   10.246513
    136          7           0        6.825696    2.107157    9.701820
    137          1           0        6.446794    3.014987    9.480452
    138          7           0        6.870496    0.478850   11.373268
    139          1           0        6.530220    0.213379   12.283901
    140          1           0        7.870750    0.427278   11.261118
    141          7           0        4.973208    1.831398   11.081193
    142          1           0        4.448906    1.130644   11.585084
    143          1           0        4.429985    2.288658   10.359637
    144          6           0        6.234739    1.475898   10.725792
    145          8           0       12.413670    3.448757    5.186570
    146          1           0       13.376134    3.524752    5.215003
 ---------------------------------------------------------------------

 SCF Done:  E(RB3LYP) =  -3503.39941257     A.U. after    3 cycles

 Alpha  occ. eigenvalues --  -19.28451 -19.25062 -19.23930 -19.22712 -19.20366
 Alpha  occ. eigenvalues --  -19.20260 -19.18306 -19.18137 -19.15201 -19.12497
 Alpha  occ. eigenvalues --  -19.10500 -19.09768 -19.02841 -19.02104 -14.63748
 Alpha  occ. eigenvalues --  -14.53825 -14.53579 -14.53288 -14.49722 -14.45526
 Alpha  occ. eigenvalues --  -14.43012 -14.42089 -14.40726 -14.38035 -14.37942
 Alpha  occ. eigenvalues --  -14.35023 -14.34828 -14.33080 -10.49160 -10.42563
 Alpha  occ. eigenvalues --  -10.40981 -10.40094 -10.37289 -10.37179 -10.36220
 Alpha  occ. eigenvalues --  -10.35570 -10.35126 -10.33493 -10.32999 -10.31761
 Alpha  occ. eigenvalues --  -10.31069 -10.30225 -10.29859 -10.29214 -10.28970
 Alpha  occ. eigenvalues --  -10.28134 -10.27814 -10.27594 -10.27196 -10.26825
 Alpha  occ. eigenvalues --  -10.25725 -10.24158 -10.24144 -10.24083 -10.23759
 Alpha  occ. eigenvalues --  -10.22997 -10.22713 -10.22238 -10.21847 -10.21800
 Alpha  occ. eigenvalues --  -10.21564 -10.21474 -10.20615 -10.18889 -10.18397
 Alpha  occ. eigenvalues --  -10.17521 -10.17132 -10.16929 -10.16924 -10.15075
 Alpha  occ. eigenvalues --  -10.12757  -1.19785  -1.19352  -1.18396  -1.16542
 Alpha  occ. eigenvalues --   -1.12811  -1.11544  -1.10784  -1.10693  -1.10569
 Alpha  occ. eigenvalues --   -1.08270  -1.07800  -1.07296  -1.06944  -1.05506
 Alpha  occ. eigenvalues --   -1.05183  -1.03513  -1.02914  -1.02521  -1.01755
 Alpha  occ. eigenvalues --   -0.99776  -0.98784  -0.96421  -0.95219  -0.94819
 Alpha  occ. eigenvalues --   -0.92985  -0.92564  -0.91824  -0.91391  -0.88809
 Alpha  occ. eigenvalues --   -0.88183  -0.87578  -0.87263  -0.86725  -0.83526
 Alpha  occ. eigenvalues --   -0.83190  -0.81937  -0.81141  -0.80530  -0.80046
 Alpha  occ. eigenvalues --   -0.79821  -0.79254  -0.77421  -0.77247  -0.77190
 Alpha  occ. eigenvalues --   -0.75943  -0.75387  -0.74583  -0.73982  -0.73695
 Alpha  occ. eigenvalues --   -0.73482  -0.72956  -0.72469  -0.72280  -0.71375
 Alpha  occ. eigenvalues --   -0.71318  -0.70393  -0.69489  -0.68946  -0.68254
 Alpha  occ. eigenvalues --   -0.67852  -0.66795  -0.66297  -0.65923  -0.65867
 Alpha  occ. eigenvalues --   -0.65617  -0.64806  -0.64262  -0.63966  -0.63432
 Alpha  occ. eigenvalues --   -0.63246  -0.62959  -0.62845  -0.62229  -0.61688
 Alpha  occ. eigenvalues --   -0.61269  -0.61245  -0.61053  -0.60794  -0.59947
 Alpha  occ. eigenvalues --   -0.59169  -0.59127  -0.58637  -0.58313  -0.57990
 Alpha  occ. eigenvalues --   -0.57607  -0.57108  -0.56684  -0.56592  -0.56026
 Alpha  occ. eigenvalues --   -0.55950  -0.55166  -0.55000  -0.54654  -0.54409
 Alpha  occ. eigenvalues --   -0.54313  -0.53759  -0.53097  -0.52791  -0.52778
 Alpha  occ. eigenvalues --   -0.52426  -0.51967  -0.51451  -0.51415  -0.50526
 Alpha  occ. eigenvalues --   -0.50474  -0.50370  -0.49955  -0.49352  -0.49344
 Alpha  occ. eigenvalues --   -0.49037  -0.48827  -0.48513  -0.48171  -0.48088
 Alpha  occ. eigenvalues --   -0.47975  -0.47770  -0.47462  -0.47325  -0.46924
 Alpha  occ. eigenvalues --   -0.46675  -0.46422  -0.46143  -0.46087  -0.45832
 Alpha  occ. eigenvalues --   -0.45740  -0.45677  -0.45395  -0.45125  -0.44894
 Alpha  occ. eigenvalues --   -0.44607  -0.44460  -0.44291  -0.44124  -0.43772
 Alpha  occ. eigenvalues --   -0.43597  -0.43325  -0.43083  -0.42997  -0.42872
 Alpha  occ. eigenvalues --   -0.42777  -0.42476  -0.42399  -0.42085  -0.42060
 Alpha  occ. eigenvalues --   -0.41910  -0.41854  -0.41233  -0.41121  -0.40602
 Alpha  occ. eigenvalues --   -0.40502  -0.40366  -0.39925  -0.39812  -0.39455
 Alpha  occ. eigenvalues --   -0.39190  -0.38952  -0.38918  -0.38738  -0.38077
 Alpha  occ. eigenvalues --   -0.37972  -0.37949  -0.37713  -0.37445  -0.37366
 Alpha  occ. eigenvalues --   -0.36983  -0.36608  -0.36532  -0.35791  -0.35360
 Alpha  occ. eigenvalues --   -0.35245  -0.34946  -0.34420  -0.34262  -0.33408
 Alpha  occ. eigenvalues --   -0.32920  -0.32666  -0.32531  -0.32412  -0.32212
 Alpha  occ. eigenvalues --   -0.32186  -0.32076  -0.31896  -0.31662  -0.31201
 Alpha  occ. eigenvalues --   -0.30967  -0.29874  -0.29742  -0.28881  -0.28694
 Alpha  occ. eigenvalues --   -0.28549  -0.27644  -0.26680  -0.25447  -0.24648
 Alpha  occ. eigenvalues --   -0.24376  -0.23618  -0.22644  -0.18210  -0.16449
 Alpha  occ. eigenvalues --   -0.16125
 Alpha virt. eigenvalues --   -0.15385  -0.15288  -0.11753  -0.09724  -0.08092
 Alpha virt. eigenvalues --   -0.07814  -0.07145  -0.06576  -0.05924  -0.05292
 Alpha virt. eigenvalues --   -0.04547  -0.04128  -0.03900  -0.03873  -0.02314

 Mulliken charges:
               1
     1  N   -0.700015
     2  H    0.413159
     3  H    0.424969
     4  H    0.409743
     5  C   -0.168730
     6  H    0.225323
     7  C    0.616107
     8  C   -0.032984
     9  H    0.184898
    10  H    0.149665
    11  O   -0.518707
    12  O   -0.619837
    13  H    0.445597
    14  N   -0.587611
    15  H    0.345126
    16  C   -0.063254
    17  H    0.186498
    18  C    0.630816
    19  C   -0.472553
    20  H    0.201305
    21  H    0.182915
    22  H    0.146323
    23  O   -0.514426
    24  N   -0.605573
    25  H    0.358090
    26  C   -0.116235
    27  H    0.193356
    28  C    0.645486
    29  C    0.130280
    30  H    0.191781
    31  O   -0.525036
    32  C   -0.451839
    33  H    0.166923
    34  H    0.110579
    35  H    0.168176
    36  O   -0.660248
    37  H    0.434189
    38  N   -0.594221
    39  H    0.329496
    40  C   -0.037964
    41  H    0.151238
    42  C    0.660825
    43  C   -0.111868
    44  H    0.127689
    45  O   -0.572754
    46  C   -0.451911
    47  H    0.134932
    48  H    0.233626
    49  H    0.134156
    50  C   -0.440358
    51  H    0.141768
    52  H    0.124936
    53  H    0.148754
    54  N   -0.580536
    55  H    0.349717
    56  C   -0.077416
    57  H    0.170613
    58  C    0.648888
    59  C   -0.055818
    60  H    0.120735
    61  O   -0.541093
    62  C   -0.285356
    63  H    0.171740
    64  H    0.147596
    65  C   -0.469424
    66  H    0.189610
    67  H    0.130789
    68  H    0.106414
    69  C   -0.457950
    70  H    0.128878
    71  H    0.166234
    72  H    0.114882
    73  N   -0.595083
    74  H    0.335668
    75  C   -0.076535
    76  H    0.192578
    77  C    0.644800
    78  C   -0.323349
    79  H    0.139381
    80  H    0.130549
    81  O   -0.558932
    82  C    0.580364
    83  O   -0.580274
    84  O   -0.570582
    85  N   -0.628302
    86  H    0.355380
    87  C   -0.010601
    88  H    0.165139
    89  C    0.613313
    90  C   -0.367192
    91  H    0.204018
    92  H    0.114037
    93  O   -0.547895
    94  C    0.337065
    95  C   -0.082458
    96  H    0.122206
    97  N   -0.622762
    98  H    0.353699
    99  C    0.211161
   100  H    0.153649
   101  N   -0.434987
   102  N   -0.624560
   103  H    0.344618
   104  C   -0.025823
   105  H    0.162452
   106  C    0.604490
   107  C   -0.261188
   108  H    0.179889
   109  H    0.155059
   110  O   -0.539544
   111  C   -0.095945
   112  H    0.129721
   113  C   -0.437597
   114  H    0.163076
   115  H    0.147551
   116  H    0.112592
   117  C   -0.444375
   118  H    0.155796
   119  H    0.146764
   120  H    0.150789
   121  N   -0.604735
   122  H    0.351581
   123  C   -0.071274
   124  H    0.227245
   125  C    0.594417
   126  C   -0.273971
   127  H    0.184827
   128  H    0.153218
   129  O   -0.447498
   130  C   -0.308864
   131  H    0.173914
   132  H    0.183588
   133  C   -0.165314
   134  H    0.190756
   135  H    0.183173
   136  N   -0.584917
   137  H    0.370838
   138  N   -0.730023
   139  H    0.383268
   140  H    0.389648
   141  N   -0.728177
   142  H    0.377695
   143  H    0.381330
   144  C    0.744066
   145  O   -0.562760
   146  H    0.429041
 Sum of Mulliken charges =   1.00000

 Dipole moment (field-independent basis, Debye):
    X=              3.1337    Y=            -24.7794    Z=             52.2016  Tot=             57.8692
 Quadrupole moment (field-independent basis, Debye-Ang):
   XX=             85.3676   YY=           -245.2327   ZZ=             33.4560
   XY=            272.1721   XZ=            293.9074   YZ=             76.4856

 Normal termination of Gaussian 16 at Sun Jun 12 09:23:27 2022.
