 Gaussian 16, Revision C.01,
 Gaussian 16:  ES64L-G16RevC.01  3-Jul-2019

 ----------------------------------------------------------------------
 # B3LYP/6-31G* empiricaldispersion=gd3 guess=read geom=check nosymm in
 tegral(ultrafinegrid)
 ----------------------------------------------------------------------

 ------------------------------------------------------
 Candidate Structure: Conf:256 Charge calc in gas phase
 ------------------------------------------------------
 Structure from the checkpoint file:  "conf-256.chk"
 Charge =  1 Multiplicity = 1

                          Input orientation:
 ---------------------------------------------------------------------
 Center     Atomic      Atomic             Coordinates (Angstroms)
 Number     Number       Type             X           Y           Z
 ---------------------------------------------------------------------
      1          7           0       -2.275629    4.677055   -3.899118
      2          1           0       -1.300542    4.983317   -3.526926
      3          1           0       -2.472989    4.955979   -4.872088
      4          1           0       -2.976386    5.067096   -3.249364
      5          6           0       -2.388676    3.194480   -3.812450
      6          1           0       -1.436989    2.806854   -3.446404
      7          6           0       -2.711525    2.669393   -5.212032
      8          6           0       -3.521690    2.839788   -2.792438
      9          1           0       -3.293372    1.856570   -2.363380
     10          1           0       -4.483246    2.774808   -3.311566
     11          8           0       -3.016173    3.445251   -6.121183
     12          8           0       -3.651023    3.853787   -1.820244
     13          1           0       -2.772675    3.922022   -1.370045
     14          7           0       -2.691314    1.329577   -5.325467
     15          1           0       -2.505036    0.769485   -4.494557
     16          6           0       -3.270583    0.652767   -6.494303
     17          1           0       -4.209423    1.166090   -6.738067
     18          6           0       -3.641061   -0.743149   -5.971931
     19          6           0       -2.343205    0.715915   -7.710021
     20          1           0       -2.814909    0.259328   -8.588275
     21          1           0       -1.388932    0.217446   -7.510988
     22          1           0       -2.145379    1.763969   -7.945499
     23          8           0       -4.244523   -0.840589   -4.897092
     24          7           0       -3.184560   -1.822425   -6.639768
     25          1           0       -2.805170   -1.735914   -7.572540
     26          6           0       -3.324051   -3.178040   -6.101776
     27          1           0       -4.293299   -3.229460   -5.589904
     28          6           0       -2.191205   -3.443014   -5.064512
     29          6           0       -3.258935   -4.207663   -7.256339
     30          1           0       -2.208678   -4.336185   -7.533304
     31          8           0       -1.431009   -4.402182   -5.163929
     32          6           0       -3.837464   -5.555709   -6.841899
     33          1           0       -3.285576   -5.959908   -5.989408
     34          1           0       -4.894807   -5.454820   -6.560810
     35          1           0       -3.768126   -6.259375   -7.676352
     36          8           0       -3.881854   -3.688556   -8.431159
     37          1           0       -4.840173   -3.656144   -8.274378
     38          7           0       -2.086435   -2.496198   -4.096120
     39          1           0       -2.807241   -1.780484   -4.035195
     40          6           0       -0.922333   -2.362165   -3.237334
     41          1           0       -0.806523   -3.275520   -2.638971
     42          6           0       -1.167917   -1.158807   -2.320842
     43          6           0        0.399671   -2.159482   -4.053457
     44          1           0        0.413251   -3.000449   -4.752708
     45          8           0       -1.770344   -0.150387   -2.706008
     46          6           0        0.393879   -0.856058   -4.861130
     47          1           0        0.433725    0.026043   -4.212043
     48          1           0       -0.509059   -0.777460   -5.474399
     49          1           0        1.261239   -0.823221   -5.529259
     50          6           0        1.646905   -2.273479   -3.166409
     51          1           0        1.745725   -1.437688   -2.465997
     52          1           0        1.641095   -3.208332   -2.589639
     53          1           0        2.546080   -2.286405   -3.792319
     54          7           0       -0.642862   -1.268772   -1.074337
     55          1           0       -0.027707   -2.051812   -0.894483
     56          6           0       -0.524251   -0.135745   -0.160559
     57          1           0       -1.385578    0.512059   -0.343912
     58          6           0        0.782574    0.600826   -0.484593
     59          6           0       -0.527430   -0.603642    1.313251
     60          1           0        0.303727   -1.322417    1.416852
     61          8           0        1.859489   -0.029329   -0.501815
     62          6           0       -1.839773   -1.337147    1.649751
     63          1           0       -2.057947   -2.065154    0.859189
     64          1           0       -2.662616   -0.608941    1.631315
     65          6           0       -0.260688    0.584702    2.251532
     66          1           0       -1.064707    1.326383    2.164347
     67          1           0        0.684761    1.090958    2.033459
     68          1           0       -0.229030    0.254104    3.293738
     69          6           0       -1.817433   -2.059974    3.000813
     70          1           0       -2.748082   -2.615088    3.158303
     71          1           0       -0.989914   -2.780282    3.048152
     72          1           0       -1.704505   -1.364541    3.838870
     73          7           0        0.669379    1.904291   -0.731770
     74          1           0       -0.243730    2.373250   -0.700527
     75          6           0        1.787688    2.800524   -1.001895
     76          1           0        2.156599    2.615375   -2.019531
     77          6           0        2.903983    2.537174    0.020668
     78          6           0        1.305365    4.267404   -0.888726
     79          1           0        1.115222    4.481719    0.167709
     80          1           0        2.089844    4.928456   -1.262509
     81          8           0        2.653391    2.318012    1.200481
     82          6           0        0.004483    4.477251   -1.678332
     83          8           0       -1.029876    3.934112   -1.171667
     84          8           0        0.064671    5.097390   -2.771049
     85          7           0        4.180459    2.579439   -0.458056
     86          1           0        4.359643    2.607604   -1.455873
     87          6           0        5.215165    1.952206    0.337316
     88          1           0        5.108056    2.301814    1.366177
     89          6           0        6.602766    2.232443   -0.226018
     90          6           0        5.077508    0.382488    0.291737
     91          1           0        6.037697   -0.054272   -0.005273
     92          1           0        4.365134    0.140334   -0.500316
     93          8           0        6.807241    2.307537   -1.431625
     94          6           0        4.645968   -0.265981    1.561227
     95          6           0        5.328505   -0.539081    2.720009
     96          1           0        6.331945   -0.238867    2.985977
     97          7           0        3.405560   -0.843136    1.725822
     98          1           0        2.648135   -0.729387    1.042643
     99          6           0        3.382004   -1.449764    2.935927
    100          1           0        2.521424   -1.982558    3.314848
    101          7           0        4.540900   -1.296577    3.568196
    102          7           0        7.581780    2.194007    0.723285
    103          1           0        7.309535    2.099043    1.695440
    104          6           0        8.934413    1.723658    0.447706
    105          1           0        8.946609    1.371082   -0.587549
    106          6           0        9.180239    0.574007    1.438976
    107          6           0        9.985024    2.836960    0.643078
    108          1           0        9.698459    3.662666   -0.020110
    109          1           0        9.889879    3.204569    1.672768
    110          8           0        8.748148    0.642372    2.591759
    111          6           0       11.447016    2.433868    0.369741
    112          1           0       11.708674    1.592330    1.027695
    113          6           0       11.669047    1.987641   -1.083815
    114          1           0       11.398220    2.789147   -1.781923
    115          1           0       12.720599    1.733468   -1.255077
    116          1           0       11.075679    1.106367   -1.358231
    117          6           0       12.378070    3.604933    0.716586
    118          1           0       12.162422    4.474690    0.083548
    119          1           0       13.427962    3.332166    0.561784
    120          1           0       12.259524    3.913436    1.761605
    121          7           0        9.883150   -0.500516    0.987732
    122          1           0       10.311792   -0.450325    0.073075
    123          6           0       10.358819   -1.525093    1.912390
    124          1           0       10.393027   -1.052953    2.902522
    125          6           0       11.784433   -1.976551    1.607981
    126          6           0        9.432570   -2.759550    2.015268
    127          1           0        9.871987   -3.421554    2.770055
    128          1           0        9.442548   -3.309208    1.064670
    129          8           0       12.309789   -2.915102    2.158668
    130          6           0        8.000401   -2.365676    2.382851
    131          1           0        8.016222   -1.652447    3.211406
    132          1           0        7.540387   -1.834528    1.543547
    133          6           0        7.081289   -3.533379    2.751867
    134          1           0        6.038263   -3.209430    2.744734
    135          1           0        7.166489   -4.355802    2.035608
    136          7           0        7.386269   -4.109705    4.074668
    137          1           0        7.944198   -4.951640    4.098451
    138          7           0        6.193136   -2.583354    5.392983
    139          1           0        6.129464   -2.116588    6.287895
    140          1           0        5.525925   -2.208520    4.658651
    141          7           0        7.682714   -4.071762    6.362831
    142          1           0        7.371642   -3.817699    7.288694
    143          1           0        8.551540   -4.581077    6.295702
    144          6           0        7.075702   -3.566354    5.261984
    145          8           0       12.395060   -1.217286    0.670074
    146          1           0       13.297199   -1.573068    0.553327
 ---------------------------------------------------------------------

 SCF Done:  E(RB3LYP) =  -3503.64411224     A.U. after    1 cycles

 Alpha  occ. eigenvalues --  -19.29862 -19.23637 -19.21623 -19.20570 -19.20338
 Alpha  occ. eigenvalues --  -19.19919 -19.19746 -19.19420 -19.19115 -19.18436
 Alpha  occ. eigenvalues --  -19.18376 -19.17580 -19.16884 -19.16671 -14.50821
 Alpha  occ. eigenvalues --  -14.50811 -14.48570 -14.47022 -14.46353 -14.46350
 Alpha  occ. eigenvalues --  -14.44389 -14.43553 -14.43435 -14.43100 -14.42959
 Alpha  occ. eigenvalues --  -14.42657 -14.41618 -14.41133 -10.46770 -10.42075
 Alpha  occ. eigenvalues --  -10.38465 -10.37043 -10.36485 -10.36436 -10.35923
 Alpha  occ. eigenvalues --  -10.35804 -10.35702 -10.34704 -10.34675 -10.34334
 Alpha  occ. eigenvalues --  -10.34130 -10.32900 -10.31645 -10.31029 -10.30991
 Alpha  occ. eigenvalues --  -10.30733 -10.30679 -10.30307 -10.30123 -10.29990
 Alpha  occ. eigenvalues --  -10.29798 -10.29689 -10.29458 -10.29385 -10.28867
 Alpha  occ. eigenvalues --  -10.27909 -10.27809 -10.26980 -10.26164 -10.25871
 Alpha  occ. eigenvalues --  -10.25521 -10.25197 -10.24699 -10.24531 -10.24427
 Alpha  occ. eigenvalues --  -10.23837 -10.23662 -10.23592 -10.23474 -10.23312
 Alpha  occ. eigenvalues --  -10.22682  -1.20512  -1.14980  -1.13611  -1.12181
 Alpha  occ. eigenvalues --   -1.11607  -1.11529  -1.11350  -1.11209  -1.10690
 Alpha  occ. eigenvalues --   -1.10082  -1.10060  -1.09702  -1.09225  -1.07922
 Alpha  occ. eigenvalues --   -1.07715  -1.04620  -1.02716  -1.02563  -1.02467
 Alpha  occ. eigenvalues --   -1.01106  -1.00825  -1.00470  -0.99701  -0.99648
 Alpha  occ. eigenvalues --   -0.99473  -0.99282  -0.98024  -0.95469  -0.90871
 Alpha  occ. eigenvalues --   -0.88789  -0.88640  -0.87255  -0.86546  -0.86241
 Alpha  occ. eigenvalues --   -0.85333  -0.84903  -0.82977  -0.82951  -0.81140
 Alpha  occ. eigenvalues --   -0.80585  -0.80400  -0.79960  -0.78680  -0.76937
 Alpha  occ. eigenvalues --   -0.76728  -0.75337  -0.75106  -0.74834  -0.74540
 Alpha  occ. eigenvalues --   -0.73398  -0.72750  -0.72718  -0.72355  -0.72138
 Alpha  occ. eigenvalues --   -0.70539  -0.70085  -0.69786  -0.69411  -0.68774
 Alpha  occ. eigenvalues --   -0.68353  -0.68094  -0.67437  -0.66948  -0.66435
 Alpha  occ. eigenvalues --   -0.66067  -0.65974  -0.65501  -0.65463  -0.64781
 Alpha  occ. eigenvalues --   -0.64187  -0.64150  -0.63890  -0.63828  -0.62649
 Alpha  occ. eigenvalues --   -0.62420  -0.62192  -0.61909  -0.61578  -0.60902
 Alpha  occ. eigenvalues --   -0.60546  -0.60077  -0.59941  -0.58967  -0.58246
 Alpha  occ. eigenvalues --   -0.58178  -0.57667  -0.57380  -0.56993  -0.56720
 Alpha  occ. eigenvalues --   -0.56484  -0.56106  -0.56068  -0.55239  -0.55052
 Alpha  occ. eigenvalues --   -0.54928  -0.54540  -0.54455  -0.54187  -0.53928
 Alpha  occ. eigenvalues --   -0.53733  -0.53532  -0.53408  -0.52992  -0.52847
 Alpha  occ. eigenvalues --   -0.52657  -0.52164  -0.51980  -0.51974  -0.51318
 Alpha  occ. eigenvalues --   -0.51190  -0.51057  -0.50687  -0.50536  -0.50348
 Alpha  occ. eigenvalues --   -0.50273  -0.50016  -0.49878  -0.49855  -0.49739
 Alpha  occ. eigenvalues --   -0.49477  -0.49445  -0.49016  -0.48775  -0.48690
 Alpha  occ. eigenvalues --   -0.48457  -0.48140  -0.48062  -0.47843  -0.47548
 Alpha  occ. eigenvalues --   -0.47465  -0.47169  -0.46974  -0.46822  -0.46536
 Alpha  occ. eigenvalues --   -0.46404  -0.46170  -0.46128  -0.45926  -0.45653
 Alpha  occ. eigenvalues --   -0.45558  -0.45434  -0.45375  -0.44984  -0.44886
 Alpha  occ. eigenvalues --   -0.44837  -0.44576  -0.44473  -0.44320  -0.44234
 Alpha  occ. eigenvalues --   -0.44147  -0.43923  -0.43866  -0.43645  -0.43516
 Alpha  occ. eigenvalues --   -0.43347  -0.42965  -0.42649  -0.42527  -0.42271
 Alpha  occ. eigenvalues --   -0.41654  -0.41632  -0.41528  -0.41194  -0.40302
 Alpha  occ. eigenvalues --   -0.40210  -0.40042  -0.39790  -0.39657  -0.39584
 Alpha  occ. eigenvalues --   -0.39428  -0.39308  -0.39230  -0.39016  -0.38412
 Alpha  occ. eigenvalues --   -0.38187  -0.38007  -0.37944  -0.36917  -0.35681
 Alpha  occ. eigenvalues --   -0.35395  -0.35340  -0.34756  -0.34379  -0.34323
 Alpha  occ. eigenvalues --   -0.33945  -0.33608  -0.33196  -0.32994  -0.32895
 Alpha  occ. eigenvalues --   -0.32637  -0.32605  -0.32504  -0.32430  -0.32117
 Alpha  occ. eigenvalues --   -0.32011  -0.30962  -0.30809  -0.30715  -0.30163
 Alpha  occ. eigenvalues --   -0.30004
 Alpha virt. eigenvalues --   -0.10823  -0.08906  -0.08147  -0.07557  -0.06817
 Alpha virt. eigenvalues --   -0.06328  -0.06250  -0.05698  -0.05243  -0.04839
 Alpha virt. eigenvalues --   -0.04721  -0.03797  -0.03221  -0.03165  -0.02778

 Mulliken charges:
               1
     1  N   -0.785495
     2  H    0.435697
     3  H    0.394152
     4  H    0.392167
     5  C   -0.115186
     6  H    0.204863
     7  C    0.614144
     8  C   -0.059952
     9  H    0.182040
    10  H    0.170596
    11  O   -0.537526
    12  O   -0.645966
    13  H    0.440449
    14  N   -0.636739
    15  H    0.403238
    16  C   -0.001291
    17  H    0.196708
    18  C    0.561372
    19  C   -0.488304
    20  H    0.160243
    21  H    0.163097
    22  H    0.200789
    23  O   -0.538133
    24  N   -0.595414
    25  H    0.359958
    26  C   -0.089437
    27  H    0.185160
    28  C    0.634046
    29  C    0.122968
    30  H    0.168895
    31  O   -0.526495
    32  C   -0.477479
    33  H    0.184447
    34  H    0.135185
    35  H    0.171008
    36  O   -0.626675
    37  H    0.393081
    38  N   -0.666463
    39  H    0.396821
    40  C   -0.004067
    41  H    0.157027
    42  C    0.619677
    43  C   -0.093442
    44  H    0.185028
    45  O   -0.549978
    46  C   -0.465004
    47  H    0.146314
    48  H    0.150118
    49  H    0.151343
    50  C   -0.493689
    51  H    0.173965
    52  H    0.133039
    53  H    0.154334
    54  N   -0.596936
    55  H    0.341165
    56  C   -0.064449
    57  H    0.182382
    58  C    0.667774
    59  C   -0.097024
    60  H    0.103559
    61  O   -0.602103
    62  C   -0.253885
    63  H    0.145108
    64  H    0.147908
    65  C   -0.500653
    66  H    0.156012
    67  H    0.204991
    68  H    0.152236
    69  C   -0.451048
    70  H    0.160652
    71  H    0.130092
    72  H    0.155971
    73  N   -0.616394
    74  H    0.397186
    75  C   -0.039106
    76  H    0.163181
    77  C    0.642086
    78  C   -0.355208
    79  H    0.187469
    80  H    0.175375
    81  O   -0.527811
    82  C    0.603735
    83  O   -0.619495
    84  O   -0.581927
    85  N   -0.613989
    86  H    0.346993
    87  C   -0.025672
    88  H    0.192895
    89  C    0.581227
    90  C   -0.399639
    91  H    0.169717
    92  H    0.205359
    93  O   -0.519256
    94  C    0.347086
    95  C   -0.099312
    96  H    0.171816
    97  N   -0.618598
    98  H    0.409567
    99  C    0.220395
   100  H    0.174181
   101  N   -0.521149
   102  N   -0.595404
   103  H    0.350412
   104  C   -0.071419
   105  H    0.178370
   106  C    0.616725
   107  C   -0.250343
   108  H    0.167367
   109  H    0.151827
   110  O   -0.543871
   111  C   -0.095550
   112  H    0.127252
   113  C   -0.447258
   114  H    0.162374
   115  H    0.153927
   116  H    0.121124
   117  C   -0.444287
   118  H    0.153343
   119  H    0.149688
   120  H    0.149448
   121  N   -0.610619
   122  H    0.362807
   123  C   -0.060693
   124  H    0.212549
   125  C    0.597204
   126  C   -0.264881
   127  H    0.155377
   128  H    0.153523
   129  O   -0.449661
   130  C   -0.276288
   131  H    0.178984
   132  H    0.170067
   133  C   -0.180262
   134  H    0.202458
   135  H    0.177567
   136  N   -0.598598
   137  H    0.358209
   138  N   -0.785484
   139  H    0.360777
   140  H    0.436459
   141  N   -0.770860
   142  H    0.376311
   143  H    0.373959
   144  C    0.810676
   145  O   -0.572281
   146  H    0.431279
 Sum of Mulliken charges =   1.00000

 Dipole moment (field-independent basis, Debye):
    X=             29.0761    Y=            -13.2104    Z=             10.2805  Tot=             33.5503
 Quadrupole moment (field-independent basis, Debye-Ang):
   XX=           -114.9007   YY=           -372.2431   ZZ=           -292.8220
   XY=            -76.3600   XZ=            132.7598   YZ=            -62.3757

 Normal termination of Gaussian 16 at Sun Jun 12 09:22:18 2022.
