 Gaussian 16, Revision C.01,
 Gaussian 16:  ES64L-G16RevC.01  3-Jul-2019

 ----------------------------------------------------------------------
 # B3LYP/6-31G* empiricaldispersion=gd3 guess=read geom=check nosymm in
 tegral(ultrafinegrid)
 ----------------------------------------------------------------------

 ------------------------------------------------------
 Candidate Structure: Conf:112 Charge calc in gas phase
 ------------------------------------------------------
 Structure from the checkpoint file:  "conf-112.chk"
 Charge =  1 Multiplicity = 1

                          Input orientation:
 ---------------------------------------------------------------------
 Center     Atomic      Atomic             Coordinates (Angstroms)
 Number     Number       Type             X           Y           Z
 ---------------------------------------------------------------------
      1          7           0       -5.310444   -0.486358   -8.162163
      2          1           0       -4.666166   -1.292173   -8.326322
      3          1           0       -5.910793   -0.734452   -7.340008
      4          1           0       -5.867461   -0.267365   -8.990382
      5          6           0       -4.433158    0.626475   -7.665889
      6          1           0       -4.459536    1.465880   -8.364269
      7          6           0       -3.028978    0.004736   -7.553305
      8          6           0       -4.986553    1.030665   -6.245975
      9          1           0       -5.724512    1.828778   -6.365895
     10          1           0       -4.162649    1.410366   -5.629763
     11          8           0       -2.917228   -1.220597   -7.628832
     12          8           0       -5.644229   -0.068613   -5.661207
     13          1           0       -5.006683   -0.653825   -5.168540
     14          7           0       -2.024707    0.865812   -7.307637
     15          1           0       -2.255455    1.844913   -7.167907
     16          6           0       -0.805464    0.426365   -6.589264
     17          1           0       -0.596144   -0.592931   -6.919832
     18          6           0       -1.247086    0.477258   -5.114485
     19          6           0        0.366984    1.353794   -6.872781
     20          1           0        1.254396    0.996125   -6.342179
     21          1           0        0.150235    2.363667   -6.512220
     22          1           0        0.585050    1.381538   -7.943713
     23          8           0       -1.333980    1.564196   -4.535801
     24          7           0       -1.672072   -0.686356   -4.579088
     25          1           0       -1.677862   -1.521892   -5.150354
     26          6           0       -2.408929   -0.718993   -3.310670
     27          1           0       -2.988907    0.211108   -3.252965
     28          6           0       -1.424162   -0.769316   -2.113318
     29          6           0       -3.354909   -1.920818   -3.278368
     30          1           0       -2.752090   -2.832192   -3.195034
     31          8           0       -1.302083   -1.790206   -1.434654
     32          6           0       -4.356379   -1.850063   -2.135795
     33          1           0       -3.835066   -1.877554   -1.177577
     34          1           0       -4.953612   -0.933180   -2.195566
     35          1           0       -5.036308   -2.708809   -2.170162
     36          8           0       -4.031245   -1.938708   -4.570699
     37          1           0       -4.568643   -2.747342   -4.599513
     38          7           0       -0.727701    0.366780   -1.924119
     39          1           0       -0.919584    1.162681   -2.525025
     40          6           0        0.315012    0.483634   -0.897149
     41          1           0        0.751230   -0.515757   -0.785535
     42          6           0       -0.356467    0.885741    0.436545
     43          6           0        1.418016    1.474334   -1.305223
     44          1           0        0.974066    2.478197   -1.302572
     45          8           0       -0.307512    2.034453    0.871231
     46          6           0        2.547641    1.453085   -0.261902
     47          1           0        2.992772    0.452279   -0.187984
     48          1           0        2.196752    1.757989    0.727245
     49          1           0        3.341293    2.142873   -0.561565
     50          6           0        1.966047    1.160045   -2.706177
     51          1           0        2.356050    0.135178   -2.752991
     52          1           0        1.204743    1.272621   -3.485978
     53          1           0        2.790019    1.839519   -2.949179
     54          7           0       -1.010285   -0.127443    1.055137
     55          1           0       -0.951507   -1.057514    0.653458
     56          6           0       -1.553352    0.006901    2.411855
     57          1           0       -1.792811    1.066570    2.545371
     58          6           0       -0.390938   -0.398745    3.351681
     59          6           0       -2.815763   -0.847703    2.604830
     60          1           0       -2.516812   -1.897801    2.475280
     61          8           0       -0.317643   -1.516461    3.856350
     62          6           0       -3.881266   -0.492593    1.548369
     63          1           0       -3.400897   -0.426397    0.564087
     64          1           0       -4.272599    0.512796    1.761149
     65          6           0       -3.348753   -0.679387    4.035734
     66          1           0       -3.621637    0.366874    4.227115
     67          1           0       -2.598024   -0.985937    4.767121
     68          1           0       -4.241198   -1.291467    4.198561
     69          6           0       -5.039232   -1.493493    1.472133
     70          1           0       -5.746814   -1.218413    0.680357
     71          1           0       -4.669926   -2.504528    1.257566
     72          1           0       -5.602604   -1.541732    2.409411
     73          7           0        0.572918    0.547542    3.460388
     74          1           0        0.488956    1.425368    2.953058
     75          6           0        1.891900    0.255236    4.001919
     76          1           0        1.783574   -0.207361    4.987016
     77          6           0        2.632221    1.592828    4.119637
     78          6           0        2.673530   -0.722867    3.080776
     79          1           0        2.021674   -1.584444    2.906591
     80          1           0        2.837597   -0.247975    2.107172
     81          8           0        2.327978    2.578485    3.435890
     82          6           0        4.034113   -1.292928    3.553635
     83          8           0        4.618698   -2.038839    2.750230
     84          8           0        4.461755   -0.969925    4.726672
     85          7           0        3.667456    1.550139    4.990174
     86          1           0        3.983486    0.572882    5.172980
     87          6           0        4.739546    2.539049    4.934738
     88          1           0        4.312560    3.543105    5.012732
     89          6           0        5.456372    2.382260    3.585414
     90          6           0        5.675976    2.255288    6.116872
     91          1           0        5.928788    1.185976    6.088260
     92          1           0        5.087722    2.403027    7.032035
     93          8           0        6.326601    1.521227    3.401552
     94          6           0        6.937648    3.061035    6.163732
     95          6           0        7.575685    3.929485    5.305380
     96          1           0        7.252763    4.275667    4.332758
     97          7           0        7.803053    2.940237    7.240432
     98          1           0        7.635648    2.393028    8.073202
     99          6           0        8.895288    3.725692    6.984999
    100          1           0        9.717532    3.818426    7.682365
    101          7           0        8.792445    4.331423    5.823536
    102          7           0        5.071698    3.223237    2.605207
    103          1           0        4.182129    3.697491    2.723992
    104          6           0        5.658633    3.157956    1.269502
    105          1           0        5.357629    2.218520    0.788080
    106          6           0        7.194855    3.213573    1.395896
    107          6           0        5.170562    4.368050    0.455023
    108          1           0        4.083655    4.277100    0.317393
    109          1           0        5.351328    5.257499    1.069971
    110          8           0        7.759194    4.164446    1.923979
    111          6           0        5.852989    4.575235   -0.911356
    112          1           0        6.922350    4.740340   -0.721953
    113          6           0        5.718538    3.371708   -1.855688
    114          1           0        4.663147    3.148006   -2.057237
    115          1           0        6.199037    3.585737   -2.817374
    116          1           0        6.192806    2.470489   -1.454548
    117          6           0        5.293850    5.843723   -1.571881
    118          1           0        4.222731    5.731964   -1.787063
    119          1           0        5.805065    6.051099   -2.518922
    120          1           0        5.415896    6.719155   -0.924034
    121          7           0        7.848458    2.172563    0.816239
    122          1           0        7.315354    1.370614    0.508245
    123          6           0        9.286068    2.007381    0.851182
    124          1           0        9.736019    2.997179    0.969003
    125          6           0        9.723219    1.403004   -0.476056
    126          6           0        9.737111    1.086503    2.017751
    127          1           0       10.771032    0.762159    1.842366
    128          1           0        9.097314    0.195159    1.972273
    129          8           0        8.989417    0.834526   -1.255035
    130          6           0        9.612349    1.769064    3.386467
    131          1           0       10.460329    2.443678    3.550788
    132          1           0        8.722495    2.397832    3.410016
    133          6           0        9.524342    0.795199    4.570791
    134          1           0       10.382781    0.117076    4.621814
    135          1           0        9.522052    1.375509    5.499111
    136          7           0        8.286815    0.009099    4.543974
    137          1           0        7.433101    0.570747    4.432318
    138          7           0        9.216502   -1.997359    3.762297
    139          1           0        9.080508   -2.978526    3.568897
    140          1           0        9.982931   -1.543163    3.289912
    141          7           0        6.964277   -1.869863    4.301279
    142          1           0        6.674948   -2.564780    3.617605
    143          1           0        6.100389   -1.370688    4.633732
    144          6           0        8.143279   -1.269875    4.179168
    145          8           0       11.054933    1.528151   -0.659812
    146          1           0       11.267933    1.089627   -1.505481
 ---------------------------------------------------------------------

 SCF Done:  E(RB3LYP) =  -3503.59998291     A.U. after    1 cycles

 Alpha  occ. eigenvalues --  -19.30015 -19.29701 -19.28789 -19.25733 -19.24200
 Alpha  occ. eigenvalues --  -19.20781 -19.20131 -19.17654 -19.16944 -19.16029
 Alpha  occ. eigenvalues --  -19.16003 -19.14374 -19.12042 -19.10239 -14.60405
 Alpha  occ. eigenvalues --  -14.51859 -14.48854 -14.44433 -14.43693 -14.42784
 Alpha  occ. eigenvalues --  -14.41799 -14.41209 -14.41094 -14.40991 -14.39245
 Alpha  occ. eigenvalues --  -14.38269 -14.38191 -14.34475 -10.45510 -10.42010
 Alpha  occ. eigenvalues --  -10.41193 -10.40131 -10.38393 -10.38031 -10.38005
 Alpha  occ. eigenvalues --  -10.36614 -10.36124 -10.34768 -10.34016 -10.33974
 Alpha  occ. eigenvalues --  -10.33453 -10.32233 -10.31485 -10.29646 -10.29444
 Alpha  occ. eigenvalues --  -10.29338 -10.29308 -10.28356 -10.28192 -10.28121
 Alpha  occ. eigenvalues --  -10.27726 -10.27427 -10.26996 -10.25949 -10.25801
 Alpha  occ. eigenvalues --  -10.25506 -10.25157 -10.24947 -10.23985 -10.23658
 Alpha  occ. eigenvalues --  -10.23539 -10.23369 -10.23102 -10.22958 -10.22628
 Alpha  occ. eigenvalues --  -10.22623 -10.22243 -10.22044 -10.21725 -10.20803
 Alpha  occ. eigenvalues --  -10.20675  -1.21221  -1.18158  -1.16620  -1.16489
 Alpha  occ. eigenvalues --   -1.15695  -1.14071  -1.12552  -1.09694  -1.08895
 Alpha  occ. eigenvalues --   -1.08330  -1.08104  -1.07593  -1.07356  -1.06914
 Alpha  occ. eigenvalues --   -1.06083  -1.04818  -1.04706  -1.04234  -1.00912
 Alpha  occ. eigenvalues --   -0.97891  -0.97844  -0.97590  -0.96830  -0.96568
 Alpha  occ. eigenvalues --   -0.95083  -0.94877  -0.94222  -0.93613  -0.90402
 Alpha  occ. eigenvalues --   -0.90256  -0.88544  -0.86891  -0.86335  -0.85379
 Alpha  occ. eigenvalues --   -0.85149  -0.84078  -0.82165  -0.81383  -0.81128
 Alpha  occ. eigenvalues --   -0.80430  -0.79397  -0.78663  -0.77534  -0.76623
 Alpha  occ. eigenvalues --   -0.76215  -0.75676  -0.74388  -0.74342  -0.74282
 Alpha  occ. eigenvalues --   -0.73893  -0.73706  -0.72887  -0.72222  -0.71429
 Alpha  occ. eigenvalues --   -0.70527  -0.70306  -0.69478  -0.69394  -0.68584
 Alpha  occ. eigenvalues --   -0.67967  -0.67578  -0.66642  -0.66311  -0.65880
 Alpha  occ. eigenvalues --   -0.65085  -0.64959  -0.64349  -0.64187  -0.64132
 Alpha  occ. eigenvalues --   -0.63947  -0.63530  -0.63217  -0.62859  -0.62028
 Alpha  occ. eigenvalues --   -0.61808  -0.61631  -0.60856  -0.60572  -0.60283
 Alpha  occ. eigenvalues --   -0.60119  -0.60062  -0.60027  -0.58735  -0.58238
 Alpha  occ. eigenvalues --   -0.57917  -0.57095  -0.56991  -0.56841  -0.56588
 Alpha  occ. eigenvalues --   -0.56410  -0.55871  -0.55569  -0.54991  -0.54887
 Alpha  occ. eigenvalues --   -0.54665  -0.54459  -0.54215  -0.53582  -0.53337
 Alpha  occ. eigenvalues --   -0.53111  -0.52844  -0.52639  -0.52334  -0.52149
 Alpha  occ. eigenvalues --   -0.51772  -0.51667  -0.51485  -0.50960  -0.50776
 Alpha  occ. eigenvalues --   -0.50693  -0.50586  -0.50527  -0.50035  -0.49677
 Alpha  occ. eigenvalues --   -0.49361  -0.49197  -0.48946  -0.48803  -0.48609
 Alpha  occ. eigenvalues --   -0.48458  -0.48384  -0.48228  -0.48053  -0.47995
 Alpha  occ. eigenvalues --   -0.47779  -0.47471  -0.47191  -0.47102  -0.46673
 Alpha  occ. eigenvalues --   -0.46551  -0.45982  -0.45900  -0.45785  -0.45628
 Alpha  occ. eigenvalues --   -0.45398  -0.45181  -0.45019  -0.44679  -0.44635
 Alpha  occ. eigenvalues --   -0.44381  -0.44223  -0.44076  -0.43948  -0.43752
 Alpha  occ. eigenvalues --   -0.43468  -0.43204  -0.43059  -0.42810  -0.42684
 Alpha  occ. eigenvalues --   -0.42609  -0.42347  -0.42272  -0.42187  -0.42030
 Alpha  occ. eigenvalues --   -0.41910  -0.41735  -0.41245  -0.41164  -0.41082
 Alpha  occ. eigenvalues --   -0.40963  -0.40619  -0.40405  -0.40189  -0.40082
 Alpha  occ. eigenvalues --   -0.39960  -0.39598  -0.39292  -0.39159  -0.38840
 Alpha  occ. eigenvalues --   -0.38025  -0.37728  -0.37574  -0.37542  -0.37268
 Alpha  occ. eigenvalues --   -0.37208  -0.37129  -0.36774  -0.36604  -0.36449
 Alpha  occ. eigenvalues --   -0.35145  -0.34038  -0.34009  -0.33655  -0.33004
 Alpha  occ. eigenvalues --   -0.31868  -0.31735  -0.31361  -0.31265  -0.30553
 Alpha  occ. eigenvalues --   -0.30275  -0.29991  -0.29727  -0.29349  -0.28610
 Alpha  occ. eigenvalues --   -0.28464  -0.27249  -0.26842  -0.26328  -0.25831
 Alpha  occ. eigenvalues --   -0.24418
 Alpha virt. eigenvalues --   -0.15106  -0.11431  -0.10251  -0.08100  -0.07018
 Alpha virt. eigenvalues --   -0.05962  -0.05100  -0.04501  -0.04030  -0.03998
 Alpha virt. eigenvalues --   -0.03596  -0.03524  -0.02717  -0.02437  -0.01937

 Mulliken charges:
               1
     1  N   -0.753128
     2  H    0.426789
     3  H    0.426004
     4  H    0.415350
     5  C   -0.131350
     6  H    0.222694
     7  C    0.624599
     8  C   -0.072053
     9  H    0.202714
    10  H    0.198805
    11  O   -0.515979
    12  O   -0.652101
    13  H    0.457093
    14  N   -0.573036
    15  H    0.356073
    16  C   -0.074664
    17  H    0.197897
    18  C    0.636133
    19  C   -0.467929
    20  H    0.194678
    21  H    0.186323
    22  H    0.179475
    23  O   -0.552441
    24  N   -0.589908
    25  H    0.361808
    26  C   -0.081473
    27  H    0.179272
    28  C    0.658371
    29  C    0.099172
    30  H    0.184852
    31  O   -0.540166
    32  C   -0.487876
    33  H    0.224993
    34  H    0.159401
    35  H    0.159127
    36  O   -0.669312
    37  H    0.423046
    38  N   -0.624804
    39  H    0.375283
    40  C   -0.050004
    41  H    0.178780
    42  C    0.627630
    43  C   -0.095114
    44  H    0.155191
    45  O   -0.531050
    46  C   -0.503117
    47  H    0.155306
    48  H    0.201228
    49  H    0.155773
    50  C   -0.472545
    51  H    0.147035
    52  H    0.130939
    53  H    0.162380
    54  N   -0.616700
    55  H    0.361445
    56  C   -0.060321
    57  H    0.174195
    58  C    0.630189
    59  C   -0.080722
    60  H    0.142931
    61  O   -0.536383
    62  C   -0.264419
    63  H    0.125538
    64  H    0.134284
    65  C   -0.471202
    66  H    0.137705
    67  H    0.186822
    68  H    0.147186
    69  C   -0.451043
    70  H    0.130378
    71  H    0.142098
    72  H    0.160077
    73  N   -0.638237
    74  H    0.374472
    75  C   -0.033920
    76  H    0.188455
    77  C    0.596211
    78  C   -0.386628
    79  H    0.195659
    80  H    0.151169
    81  O   -0.561351
    82  C    0.618584
    83  O   -0.584097
    84  O   -0.656109
    85  N   -0.620720
    86  H    0.401989
    87  C   -0.053788
    88  H    0.174697
    89  C    0.653006
    90  C   -0.386707
    91  H    0.174437
    92  H    0.174104
    93  O   -0.574997
    94  C    0.324274
    95  C   -0.110691
    96  H    0.177996
    97  N   -0.609713
    98  H    0.334433
    99  C    0.195210
   100  H    0.159655
   101  N   -0.428951
   102  N   -0.610526
   103  H    0.367961
   104  C   -0.014783
   105  H    0.155501
   106  C    0.651563
   107  C   -0.303469
   108  H    0.148248
   109  H    0.171005
   110  O   -0.537351
   111  C   -0.089225
   112  H    0.153046
   113  C   -0.463169
   114  H    0.142153
   115  H    0.146807
   116  H    0.151078
   117  C   -0.444622
   118  H    0.135153
   119  H    0.144419
   120  H    0.153753
   121  N   -0.580256
   122  H    0.346311
   123  C   -0.058394
   124  H    0.210748
   125  C    0.581041
   126  C   -0.282869
   127  H    0.153620
   128  H    0.137716
   129  O   -0.465234
   130  C   -0.282060
   131  H    0.164934
   132  H    0.219103
   133  C   -0.183459
   134  H    0.148246
   135  H    0.191470
   136  N   -0.607740
   137  H    0.418908
   138  N   -0.756119
   139  H    0.361228
   140  H    0.357750
   141  N   -0.765493
   142  H    0.355543
   143  H    0.416522
   144  C    0.738471
   145  O   -0.562060
   146  H    0.417867
 Sum of Mulliken charges =   1.00000

 Dipole moment (field-independent basis, Debye):
    X=             -8.8038    Y=             -2.0640    Z=            -33.1034  Tot=             34.3162
 Quadrupole moment (field-independent basis, Debye-Ang):
   XX=           -174.0771   YY=           -433.0169   ZZ=           -124.0850
   XY=            -21.2588   XZ=            190.0379   YZ=             -4.0237

 Normal termination of Gaussian 16 at Sun Jun 12 09:22:05 2022.
