 Gaussian 16, Revision C.01,
 Gaussian 16:  ES64L-G16RevC.01  3-Jul-2019

 ----------------------------------------------------------------------
 # B3LYP/6-31G* empiricaldispersion=gd3 guess=read geom=check nosymm in
 tegral(ultrafinegrid)
 ----------------------------------------------------------------------

 ------------------------------------------------------
 Candidate Structure: Conf:242 Charge calc in gas phase
 ------------------------------------------------------
 Structure from the checkpoint file:  "conf-242.chk"
 Charge =  1 Multiplicity = 1

                          Input orientation:
 ---------------------------------------------------------------------
 Center     Atomic      Atomic             Coordinates (Angstroms)
 Number     Number       Type             X           Y           Z
 ---------------------------------------------------------------------
      1          7           0      -11.812134   -1.735286   -8.446257
      2          1           0      -11.807028   -1.001978   -9.160554
      3          1           0      -11.148894   -2.491314   -8.749916
      4          1           0      -12.778047   -2.070946   -8.300431
      5          6           0      -11.253045   -1.284291   -7.124033
      6          1           0      -11.403996   -0.206760   -7.026965
      7          6           0       -9.763823   -1.698823   -7.172057
      8          6           0      -12.019225   -2.068174   -6.030173
      9          1           0      -11.797089   -1.635317   -5.049244
     10          1           0      -11.676493   -3.108300   -6.030396
     11          8           0       -9.441095   -2.552409   -8.008616
     12          8           0      -13.404302   -2.093363   -6.336307
     13          1           0      -13.858856   -1.355271   -5.900256
     14          7           0       -8.977600   -1.144265   -6.260074
     15          1           0       -9.302331   -0.451369   -5.579459
     16          6           0       -7.567428   -1.479053   -6.063045
     17          1           0       -7.469783   -2.568540   -5.997331
     18          6           0       -7.207327   -0.829011   -4.707823
     19          6           0       -6.683955   -0.945145   -7.202264
     20          1           0       -5.632464   -1.189254   -7.023396
     21          1           0       -6.775300    0.143279   -7.274986
     22          1           0       -6.988507   -1.397667   -8.149366
     23          8           0       -7.997031   -0.046395   -4.171638
     24          7           0       -6.009239   -1.177868   -4.210622
     25          1           0       -5.329741   -1.654051   -4.807877
     26          6           0       -5.330881   -0.429117   -3.156300
     27          1           0       -5.754405    0.579857   -3.104858
     28          6           0       -3.848254   -0.385703   -3.591670
     29          6           0       -5.468038   -1.119384   -1.773368
     30          1           0       -4.895871   -0.529471   -1.048463
     31          8           0       -3.461166   -1.068217   -4.543638
     32          6           0       -6.919669   -1.220272   -1.310258
     33          1           0       -7.394087   -0.235280   -1.259530
     34          1           0       -7.504510   -1.834140   -2.005327
     35          1           0       -6.952754   -1.688587   -0.322516
     36          8           0       -4.824682   -2.385765   -1.792071
     37          1           0       -5.322921   -2.956883   -2.399604
     38          7           0       -3.065682    0.426488   -2.861622
     39          1           0       -3.420415    0.830532   -1.997094
     40          6           0       -1.610060    0.355390   -2.869989
     41          1           0       -1.321693   -0.620177   -3.276333
     42          6           0       -1.185105    0.464229   -1.392107
     43          6           0       -0.950158    1.471995   -3.725425
     44          1           0        0.135550    1.320936   -3.642999
     45          8           0       -1.977648    0.868313   -0.536540
     46          6           0       -1.343007    1.329188   -5.200974
     47          1           0       -2.418162    1.493362   -5.333267
     48          1           0       -1.113102    0.330533   -5.585601
     49          1           0       -0.809925    2.068802   -5.808523
     50          6           0       -1.281424    2.871676   -3.190722
     51          1           0       -2.361596    3.055339   -3.233530
     52          1           0       -0.958789    3.003465   -2.152624
     53          1           0       -0.786924    3.637179   -3.797634
     54          7           0        0.092446    0.123498   -1.139773
     55          1           0        0.723474   -0.109850   -1.899726
     56          6           0        0.766718    0.378767    0.128396
     57          1           0        0.143712    1.076869    0.697113
     58          6           0        2.116720    1.008429   -0.251731
     59          6           0        0.970088   -0.922068    0.957622
     60          1           0        1.563086   -1.601535    0.327330
     61          8           0        2.714543    0.624056   -1.256585
     62          6           0       -0.388628   -1.588218    1.248874
     63          1           0       -0.947012   -1.688716    0.311699
     64          1           0       -0.983544   -0.919367    1.886365
     65          6           0        1.760971   -0.637011    2.241768
     66          1           0        1.213989    0.063375    2.888861
     67          1           0        2.742961   -0.207851    2.033755
     68          1           0        1.947571   -1.548518    2.813218
     69          6           0       -0.273051   -2.969826    1.902733
     70          1           0       -1.261651   -3.431064    2.005970
     71          1           0        0.346550   -3.641328    1.295147
     72          1           0        0.173711   -2.919481    2.900885
     73          7           0        2.573118    1.980003    0.575286
     74          1           0        2.082700    2.162964    1.442302
     75          6           0        3.925874    2.512392    0.493847
     76          1           0        4.452862    1.942842   -0.271628
     77          6           0        4.594011    2.302032    1.860831
     78          6           0        3.944539    4.009859    0.112777
     79          1           0        3.662223    4.088509   -0.943015
     80          1           0        3.203460    4.557023    0.703862
     81          8           0        3.935606    2.463730    2.908323
     82          6           0        5.344924    4.624868    0.350197
     83          8           0        5.396737    5.697169    0.987552
     84          8           0        6.332683    3.920069   -0.046199
     85          7           0        5.892598    1.962488    1.811979
     86          1           0        6.321838    2.105742    0.898003
     87          6           0        6.765080    1.800091    2.961462
     88          1           0        6.145783    1.922820    3.853649
     89          6           0        7.877372    2.865423    3.097399
     90          6           0        7.388598    0.391710    2.992221
     91          1           0        8.150084    0.394644    3.780454
     92          1           0        7.918557    0.222848    2.042975
     93          8           0        8.693251    2.725091    4.022063
     94          6           0        6.372850   -0.683303    3.223480
     95          6           0        5.057606   -0.673294    3.629631
     96          1           0        4.434227    0.186465    3.830853
     97          7           0        6.675227   -2.025554    3.072060
     98          1           0        7.566604   -2.402345    2.782274
     99          6           0        5.553135   -2.742860    3.388407
    100          1           0        5.527451   -3.823710    3.348589
    101          7           0        4.557077   -1.956845    3.729220
    102          7           0        7.880658    3.912003    2.255600
    103          1           0        7.277736    3.963484    1.406734
    104          6           0        8.895983    4.960138    2.387583
    105          1           0        9.879161    4.478727    2.444502
    106          6           0        8.666822    5.735709    3.698744
    107          6           0        8.829950    5.901511    1.177605
    108          1           0        9.056781    5.301157    0.286952
    109          1           0        7.795157    6.242137    1.066236
    110          8           0        7.795768    6.614869    3.807005
    111          6           0        9.782040    7.109652    1.249988
    112          1           0        9.433236    7.760325    2.063723
    113          6           0       11.238349    6.714857    1.544700
    114          1           0       11.597020    5.970493    0.821188
    115          1           0       11.897215    7.588083    1.474691
    116          1           0       11.363038    6.301077    2.552392
    117          6           0        9.684626    7.905857   -0.058980
    118          1           0       10.048400    7.309027   -0.905524
    119          1           0       10.288068    8.819829   -0.010299
    120          1           0        8.648434    8.191552   -0.272776
    121          7           0        9.483816    5.385663    4.712439
    122          1           0       10.049198    4.556779    4.578168
    123          6           0        9.488046    5.996619    6.020559
    124          1           0        8.737336    6.790911    6.020834
    125          6           0       10.849418    6.652210    6.263242
    126          6           0        9.203435    4.974911    7.147767
    127          1           0        9.238848    5.514129    8.101600
    128          1           0       10.027415    4.249647    7.165272
    129          8           0       11.848000    6.443616    5.616560
    130          6           0        7.880059    4.201442    7.029973
    131          1           0        7.880488    3.596282    6.116307
    132          1           0        7.844684    3.500131    7.873191
    133          6           0        6.611205    5.080367    7.078898
    134          1           0        5.791624    4.549604    7.573941
    135          1           0        6.784177    5.972193    7.691555
    136          7           0        6.139679    5.551319    5.778125
    137          1           0        6.700611    6.264863    5.306494
    138          7           0        4.690051    3.750991    5.318763
    139          1           0        4.302579    3.150041    4.584713
    140          1           0        4.840399    3.352311    6.230767
    141          7           0        5.203406    5.297618    3.687448
    142          1           0        4.622007    4.803774    3.025694
    143          1           0        5.866604    5.943576    3.263492
    144          6           0        5.364345    4.850145    4.931044
    145          8           0       10.799554    7.474825    7.335072
    146          1           0       11.697221    7.838657    7.457377
 ---------------------------------------------------------------------

 SCF Done:  E(RB3LYP) =  -3503.60130135     A.U. after    1 cycles

 Alpha  occ. eigenvalues --  -19.31550 -19.27017 -19.25163 -19.22549 -19.21141
 Alpha  occ. eigenvalues --  -19.19471 -19.19048 -19.18560 -19.17590 -19.17143
 Alpha  occ. eigenvalues --  -19.16032 -19.15992 -19.10768 -19.10493 -14.60682
 Alpha  occ. eigenvalues --  -14.49915 -14.45248 -14.42785 -14.42691 -14.42673
 Alpha  occ. eigenvalues --  -14.42195 -14.41649 -14.41515 -14.41000 -14.40858
 Alpha  occ. eigenvalues --  -14.40592 -14.39191 -14.34575 -10.44138 -10.41549
 Alpha  occ. eigenvalues --  -10.40330 -10.39322 -10.38950 -10.37422 -10.35951
 Alpha  occ. eigenvalues --  -10.35106 -10.34758 -10.34209 -10.34084 -10.33196
 Alpha  occ. eigenvalues --  -10.33161 -10.31171 -10.30985 -10.29860 -10.29747
 Alpha  occ. eigenvalues --  -10.28931 -10.28916 -10.28700 -10.28457 -10.27497
 Alpha  occ. eigenvalues --  -10.27361 -10.27341 -10.26899 -10.25730 -10.25535
 Alpha  occ. eigenvalues --  -10.24839 -10.24820 -10.24776 -10.24324 -10.23034
 Alpha  occ. eigenvalues --  -10.22772 -10.22090 -10.21993 -10.21186 -10.21185
 Alpha  occ. eigenvalues --  -10.20786 -10.20426 -10.20189 -10.19989 -10.19296
 Alpha  occ. eigenvalues --  -10.18867  -1.20060  -1.18498  -1.15982  -1.14614
 Alpha  occ. eigenvalues --   -1.14133  -1.11032  -1.09819  -1.09350  -1.09072
 Alpha  occ. eigenvalues --   -1.08722  -1.07815  -1.07632  -1.07432  -1.07114
 Alpha  occ. eigenvalues --   -1.06518  -1.04643  -1.03966  -1.01900  -0.99110
 Alpha  occ. eigenvalues --   -0.98834  -0.98618  -0.97653  -0.97460  -0.97002
 Alpha  occ. eigenvalues --   -0.95750  -0.95325  -0.94728  -0.93397  -0.90390
 Alpha  occ. eigenvalues --   -0.88586  -0.86424  -0.86284  -0.84996  -0.84480
 Alpha  occ. eigenvalues --   -0.83910  -0.83284  -0.81416  -0.81411  -0.81092
 Alpha  occ. eigenvalues --   -0.79314  -0.78390  -0.77912  -0.77227  -0.76352
 Alpha  occ. eigenvalues --   -0.75714  -0.75043  -0.75034  -0.74411  -0.73269
 Alpha  occ. eigenvalues --   -0.73090  -0.71562  -0.71358  -0.70197  -0.69972
 Alpha  occ. eigenvalues --   -0.69589  -0.69314  -0.69017  -0.68500  -0.67336
 Alpha  occ. eigenvalues --   -0.66956  -0.66795  -0.66489  -0.65428  -0.65225
 Alpha  occ. eigenvalues --   -0.65124  -0.64963  -0.64817  -0.64029  -0.63605
 Alpha  occ. eigenvalues --   -0.63543  -0.62725  -0.62440  -0.62307  -0.61674
 Alpha  occ. eigenvalues --   -0.61340  -0.61230  -0.60407  -0.60331  -0.59992
 Alpha  occ. eigenvalues --   -0.59235  -0.58399  -0.58047  -0.57952  -0.57465
 Alpha  occ. eigenvalues --   -0.57159  -0.56602  -0.56474  -0.55914  -0.55602
 Alpha  occ. eigenvalues --   -0.55279  -0.55100  -0.54785  -0.54196  -0.53979
 Alpha  occ. eigenvalues --   -0.53738  -0.53496  -0.53233  -0.53014  -0.52678
 Alpha  occ. eigenvalues --   -0.52445  -0.52345  -0.52002  -0.51546  -0.51362
 Alpha  occ. eigenvalues --   -0.51041  -0.50825  -0.50764  -0.50506  -0.50174
 Alpha  occ. eigenvalues --   -0.50057  -0.49952  -0.49912  -0.49751  -0.49245
 Alpha  occ. eigenvalues --   -0.49136  -0.49120  -0.48521  -0.48370  -0.48073
 Alpha  occ. eigenvalues --   -0.47930  -0.47466  -0.47400  -0.47333  -0.47088
 Alpha  occ. eigenvalues --   -0.46788  -0.46531  -0.46340  -0.46083  -0.46047
 Alpha  occ. eigenvalues --   -0.45863  -0.45535  -0.45420  -0.45145  -0.45092
 Alpha  occ. eigenvalues --   -0.44795  -0.44668  -0.44333  -0.44187  -0.44043
 Alpha  occ. eigenvalues --   -0.43792  -0.43592  -0.43506  -0.43386  -0.43088
 Alpha  occ. eigenvalues --   -0.43075  -0.42919  -0.42579  -0.42466  -0.42262
 Alpha  occ. eigenvalues --   -0.42032  -0.41702  -0.41294  -0.41281  -0.41063
 Alpha  occ. eigenvalues --   -0.41004  -0.40789  -0.40542  -0.40360  -0.39914
 Alpha  occ. eigenvalues --   -0.39888  -0.39551  -0.39155  -0.39009  -0.38971
 Alpha  occ. eigenvalues --   -0.38698  -0.38511  -0.38236  -0.37987  -0.37695
 Alpha  occ. eigenvalues --   -0.37172  -0.36675  -0.36616  -0.36172  -0.35919
 Alpha  occ. eigenvalues --   -0.35642  -0.34780  -0.34646  -0.34165  -0.34001
 Alpha  occ. eigenvalues --   -0.33964  -0.33496  -0.33109  -0.32945  -0.32662
 Alpha  occ. eigenvalues --   -0.32270  -0.32122  -0.31985  -0.31500  -0.31401
 Alpha  occ. eigenvalues --   -0.31199  -0.30665  -0.30065  -0.29733  -0.29207
 Alpha  occ. eigenvalues --   -0.29021  -0.28815  -0.26512  -0.25706  -0.25440
 Alpha  occ. eigenvalues --   -0.24380
 Alpha virt. eigenvalues --   -0.13035  -0.11330  -0.08174  -0.06743  -0.05936
 Alpha virt. eigenvalues --   -0.04666  -0.04579  -0.04373  -0.04013  -0.03739
 Alpha virt. eigenvalues --   -0.03570  -0.03089  -0.02411  -0.02136  -0.01417

 Mulliken charges:
               1
     1  N   -0.740698
     2  H    0.419115
     3  H    0.428772
     4  H    0.427124
     5  C   -0.145163
     6  H    0.213011
     7  C    0.655026
     8  C   -0.065522
     9  H    0.204516
    10  H    0.208518
    11  O   -0.533313
    12  O   -0.607317
    13  H    0.431420
    14  N   -0.612731
    15  H    0.370398
    16  C   -0.053371
    17  H    0.196347
    18  C    0.620280
    19  C   -0.464445
    20  H    0.193985
    21  H    0.170744
    22  H    0.189880
    23  O   -0.541654
    24  N   -0.624730
    25  H    0.368328
    26  C   -0.097190
    27  H    0.183545
    28  C    0.646173
    29  C    0.128190
    30  H    0.169248
    31  O   -0.551054
    32  C   -0.455943
    33  H    0.160482
    34  H    0.132627
    35  H    0.173464
    36  O   -0.610366
    37  H    0.389589
    38  N   -0.604528
    39  H    0.360607
    40  C   -0.070026
    41  H    0.181659
    42  C    0.632651
    43  C   -0.079411
    44  H    0.145282
    45  O   -0.557712
    46  C   -0.440756
    47  H    0.142226
    48  H    0.157578
    49  H    0.149141
    50  C   -0.460625
    51  H    0.143094
    52  H    0.162724
    53  H    0.156138
    54  N   -0.605668
    55  H    0.354344
    56  C   -0.063431
    57  H    0.167661
    58  C    0.615199
    59  C   -0.068340
    60  H    0.135093
    61  O   -0.542064
    62  C   -0.249538
    63  H    0.142530
    64  H    0.136526
    65  C   -0.484970
    66  H    0.127820
    67  H    0.161529
    68  H    0.191491
    69  C   -0.451115
    70  H    0.143687
    71  H    0.142099
    72  H    0.155036
    73  N   -0.599199
    74  H    0.345372
    75  C   -0.046872
    76  H    0.199449
    77  C    0.617112
    78  C   -0.338967
    79  H    0.172022
    80  H    0.142898
    81  O   -0.602710
    82  C    0.574203
    83  O   -0.577372
    84  O   -0.626623
    85  N   -0.571033
    86  H    0.372030
    87  C   -0.076605
    88  H    0.175790
    89  C    0.622874
    90  C   -0.355893
    91  H    0.195899
    92  H    0.153495
    93  O   -0.573277
    94  C    0.339775
    95  C   -0.097468
    96  H    0.144803
    97  N   -0.615787
    98  H    0.334300
    99  C    0.211168
   100  H    0.158680
   101  N   -0.437865
   102  N   -0.675730
   103  H    0.436226
   104  C   -0.030432
   105  H    0.158294
   106  C    0.636810
   107  C   -0.308767
   108  H    0.149907
   109  H    0.205276
   110  O   -0.583814
   111  C   -0.086542
   112  H    0.139940
   113  C   -0.459550
   114  H    0.137473
   115  H    0.145239
   116  H    0.147751
   117  C   -0.444628
   118  H    0.139708
   119  H    0.138092
   120  H    0.154775
   121  N   -0.543211
   122  H    0.363951
   123  C   -0.073794
   124  H    0.187507
   125  C    0.595377
   126  C   -0.288650
   127  H    0.171012
   128  H    0.163056
   129  O   -0.446013
   130  C   -0.288503
   131  H    0.198738
   132  H    0.152868
   133  C   -0.180712
   134  H    0.158128
   135  H    0.180029
   136  N   -0.613240
   137  H    0.392869
   138  N   -0.802027
   139  H    0.418947
   140  H    0.355342
   141  N   -0.784538
   142  H    0.377029
   143  H    0.417119
   144  C    0.788997
   145  O   -0.565860
   146  H    0.422141
 Sum of Mulliken charges =   1.00000

 Dipole moment (field-independent basis, Debye):
    X=            -38.2736    Y=             -3.1946    Z=            -18.8229  Tot=             42.7712
 Quadrupole moment (field-independent basis, Debye-Ang):
   XX=            214.6402   YY=           -403.5051   ZZ=           -108.2379
   XY=             66.7324   XZ=            443.7150   YZ=             88.7840

 Normal termination of Gaussian 16 at Sun Jun 12 09:21:52 2022.
