 Gaussian 16, Revision C.01,
 Gaussian 16:  ES64L-G16RevC.01  3-Jul-2019

 ----------------------------------------------------------------------
 # B3LYP/6-31G* empiricaldispersion=gd3 guess=read geom=check nosymm in
 tegral(ultrafinegrid)
 ----------------------------------------------------------------------

 ------------------------------------------------------
 Candidate Structure: Conf:731 Charge calc in gas phase
 ------------------------------------------------------
 Structure from the checkpoint file:  "conf-731.chk"
 Charge =  1 Multiplicity = 1

                          Input orientation:
 ---------------------------------------------------------------------
 Center     Atomic      Atomic             Coordinates (Angstroms)
 Number     Number       Type             X           Y           Z
 ---------------------------------------------------------------------
      1          7           0       -8.942275   -6.997132   -3.665778
      2          1           0       -9.259544   -6.728878   -4.601032
      3          1           0       -8.389272   -7.865677   -3.721525
      4          1           0       -9.760629   -7.191477   -3.081192
      5          6           0       -8.056112   -5.968270   -3.026355
      6          1           0       -8.656056   -5.092486   -2.761460
      7          6           0       -6.949262   -5.549494   -3.993112
      8          6           0       -7.435227   -6.599773   -1.779039
      9          1           0       -8.219745   -6.801583   -1.044595
     10          1           0       -6.704027   -5.904949   -1.344696
     11          8           0       -5.896110   -6.196511   -4.066038
     12          8           0       -6.857598   -7.852731   -2.104813
     13          1           0       -6.127426   -7.647056   -2.712196
     14          7           0       -7.181958   -4.453466   -4.741427
     15          1           0       -7.991398   -3.878746   -4.555590
     16          6           0       -6.106863   -3.820048   -5.521012
     17          1           0       -5.468336   -4.634914   -5.872119
     18          6           0       -5.317977   -2.943342   -4.529076
     19          6           0       -6.677710   -3.030790   -6.683825
     20          1           0       -5.872807   -2.522117   -7.217196
     21          1           0       -7.376477   -2.269206   -6.329468
     22          1           0       -7.194411   -3.701703   -7.373814
     23          8           0       -5.333533   -1.712938   -4.558570
     24          7           0       -4.687522   -3.644517   -3.561307
     25          1           0       -4.694947   -4.656190   -3.599297
     26          6           0       -4.219048   -3.008746   -2.343794
     27          1           0       -4.851228   -2.124027   -2.198434
     28          6           0       -2.769850   -2.546239   -2.519854
     29          6           0       -4.427476   -3.954729   -1.153802
     30          1           0       -3.806519   -4.841783   -1.291452
     31          8           0       -1.818500   -3.141254   -2.002134
     32          6           0       -4.133394   -3.293309    0.182136
     33          1           0       -3.082401   -3.011048    0.252914
     34          1           0       -4.741860   -2.390005    0.296874
     35          1           0       -4.369411   -3.980355    0.997541
     36          8           0       -5.783378   -4.443070   -1.162985
     37          1           0       -6.360149   -3.675596   -1.057388
     38          7           0       -2.631919   -1.454975   -3.295284
     39          1           0       -3.456530   -1.070817   -3.741947
     40          6           0       -1.326233   -0.857891   -3.567648
     41          1           0       -0.609417   -1.686618   -3.576309
     42          6           0       -1.005801    0.075576   -2.387502
     43          6           0       -1.257313   -0.124694   -4.916130
     44          1           0       -1.790605    0.821928   -4.800071
     45          8           0       -1.043565    1.301145   -2.473671
     46          6           0        0.209998    0.170742   -5.267762
     47          1           0        0.747491   -0.775233   -5.401028
     48          1           0        0.742833    0.761739   -4.517044
     49          1           0        0.265272    0.723745   -6.209814
     50          6           0       -1.900673   -0.936867   -6.044032
     51          1           0       -1.395435   -1.902311   -6.155767
     52          1           0       -2.965841   -1.125482   -5.876396
     53          1           0       -1.806139   -0.394690   -6.988322
     54          7           0       -0.737210   -0.563840   -1.223082
     55          1           0       -0.668891   -1.571900   -1.238710
     56          6           0       -0.281412    0.179482   -0.058813
     57          1           0       -0.819514    1.128620   -0.104652
     58          6           0        1.212654    0.486053   -0.194794
     59          6           0       -0.678207   -0.504020    1.259996
     60          1           0       -1.776295   -0.426464    1.274273
     61          8           0        2.088242   -0.172750    0.362242
     62          6           0       -0.132749    0.253876    2.483346
     63          1           0        0.930242    0.018576    2.590914
     64          1           0       -0.635120   -0.152494    3.369443
     65          6           0       -0.302333   -1.985640    1.341460
     66          1           0        0.780488   -2.101722    1.277723
     67          1           0       -0.762647   -2.576508    0.544767
     68          1           0       -0.640474   -2.400430    2.295478
     69          6           0       -0.320398    1.769627    2.436958
     70          1           0       -0.020919    2.221144    3.386872
     71          1           0        0.287795    2.234406    1.655154
     72          1           0       -1.368212    2.036629    2.257852
     73          7           0        1.492424    1.531020   -1.004354
     74          1           0        0.745392    1.977071   -1.525563
     75          6           0        2.855243    1.994911   -1.159219
     76          1           0        3.468093    1.155296   -1.506197
     77          6           0        3.388192    2.465439    0.195905
     78          6           0        2.913022    3.114094   -2.196732
     79          1           0        2.303270    3.963933   -1.886445
     80          1           0        3.947390    3.442913   -2.331006
     81          8           0        2.721599    3.123381    0.988482
     82          6           0        2.412476    2.548279   -3.561235
     83          8           0        3.016046    1.541207   -3.980037
     84          8           0        1.468606    3.169411   -4.092341
     85          7           0        4.665243    2.079939    0.475899
     86          1           0        5.267630    1.803615   -0.282897
     87          6           0        5.304413    2.568840    1.677919
     88          1           0        4.564445    2.497259    2.476431
     89          6           0        5.708527    4.033000    1.467439
     90          6           0        6.537902    1.722640    2.004533
     91          1           0        7.080449    2.179251    2.839959
     92          1           0        7.213107    1.761812    1.143786
     93          8           0        6.278281    4.392787    0.442990
     94          6           0        6.200804    0.301811    2.351865
     95          6           0        5.125073   -0.511438    2.100315
     96          1           0        4.216872   -0.266054    1.567624
     97          7           0        7.082685   -0.496109    3.056402
     98          1           0        7.983613   -0.210331    3.404117
     99          6           0        6.510048   -1.725741    3.192782
    100          1           0        7.001534   -2.537394    3.706799
    101          7           0        5.325909   -1.772068    2.629934
    102          7           0        5.381842    4.878694    2.481694
    103          1           0        5.159168    4.505103    3.393748
    104          6           0        5.819712    6.257465    2.485120
    105          1           0        6.572417    6.366633    1.699939
    106          6           0        6.441753    6.545264    3.851463
    107          6           0        4.651807    7.222432    2.220996
    108          1           0        3.918172    7.093532    3.023904
    109          1           0        5.019838    8.253032    2.290833
    110          8           0        6.191077    5.873549    4.843066
    111          6           0        3.952622    7.030090    0.866913
    112          1           0        3.648559    5.981442    0.789075
    113          6           0        2.691931    7.895712    0.815950
    114          1           0        2.948228    8.957313    0.905810
    115          1           0        2.160373    7.754675   -0.129404
    116          1           0        2.005208    7.641632    1.628962
    117          6           0        4.878485    7.356021   -0.307028
    118          1           0        5.197099    8.404534   -0.262487
    119          1           0        4.356552    7.202885   -1.255992
    120          1           0        5.766075    6.720019   -0.313253
    121          7           0        7.261584    7.630795    3.895857
    122          1           0        7.364807    8.224616    3.088014
    123          6           0        7.818313    8.072594    5.161226
    124          1           0        7.038414    8.010645    5.925655
    125          6           0        8.269045    9.519369    5.116372
    126          6           0        8.976477    7.176873    5.641401
    127          1           0        8.566930    6.170274    5.752203
    128          1           0        9.271095    7.521992    6.635139
    129          8           0        8.562068   10.155678    6.098964
    130          6           0       10.177977    7.153061    4.703283
    131          1           0        9.861747    6.849951    3.700787
    132          1           0       10.611305    8.154373    4.603588
    133          6           0       11.250220    6.185465    5.178558
    134          1           0       10.801320    5.198812    5.322611
    135          1           0       12.047999    6.091847    4.431206
    136          7           0       11.806658    6.645345    6.469380
    137          1           0       11.928069    7.648212    6.534309
    138          7           0       12.899224    4.626487    6.913519
    139          1           0       13.734931    4.192896    7.279742
    140          1           0       12.606575    4.281554    6.010712
    141          7           0       13.346404    6.521204    8.212872
    142          1           0       13.713918    5.902142    8.924042
    143          1           0       12.919133    7.354228    8.600464
    144          6           0       12.687758    5.930649    7.182734
    145          8           0        8.349496   10.020015    3.861863
    146          1           0        8.642579   10.941662    3.942892
 ---------------------------------------------------------------------

 SCF Done:  E(RB3LYP) =  -3503.40912492     A.U. after    4 cycles

 Alpha  occ. eigenvalues --  -19.28948 -19.25824 -19.25373 -19.24658 -19.22731
 Alpha  occ. eigenvalues --  -19.20201 -19.18433 -19.16037 -19.13988 -19.11798
 Alpha  occ. eigenvalues --  -19.10823 -19.10084 -19.02768 -19.02124 -14.61952
 Alpha  occ. eigenvalues --  -14.53499 -14.53263 -14.53078 -14.49819 -14.43708
 Alpha  occ. eigenvalues --  -14.43333 -14.40435 -14.39554 -14.38714 -14.35911
 Alpha  occ. eigenvalues --  -14.35821 -14.33371 -14.31594 -10.48980 -10.42650
 Alpha  occ. eigenvalues --  -10.41050 -10.40043 -10.37071 -10.36746 -10.35068
 Alpha  occ. eigenvalues --  -10.34598 -10.33473 -10.33207 -10.32437 -10.31677
 Alpha  occ. eigenvalues --  -10.30860 -10.30603 -10.29984 -10.28764 -10.28622
 Alpha  occ. eigenvalues --  -10.27470 -10.27172 -10.26852 -10.26720 -10.25167
 Alpha  occ. eigenvalues --  -10.24774 -10.24090 -10.23579 -10.23341 -10.22899
 Alpha  occ. eigenvalues --  -10.22148 -10.21917 -10.20423 -10.20324 -10.20192
 Alpha  occ. eigenvalues --  -10.19414 -10.19349 -10.18989 -10.18570 -10.18396
 Alpha  occ. eigenvalues --  -10.18085 -10.17447 -10.17257 -10.16549 -10.14270
 Alpha  occ. eigenvalues --  -10.14259  -1.19852  -1.18572  -1.18006  -1.16080
 Alpha  occ. eigenvalues --   -1.12989  -1.12346  -1.11659  -1.10799  -1.10691
 Alpha  occ. eigenvalues --   -1.07847  -1.07435  -1.06499  -1.06151  -1.05804
 Alpha  occ. eigenvalues --   -1.03924  -1.03039  -1.02393  -1.01712  -1.00514
 Alpha  occ. eigenvalues --   -1.00405  -0.96122  -0.95883  -0.95778  -0.93053
 Alpha  occ. eigenvalues --   -0.92662  -0.92081  -0.91993  -0.90189  -0.87864
 Alpha  occ. eigenvalues --   -0.87328  -0.87035  -0.86490  -0.84833  -0.83582
 Alpha  occ. eigenvalues --   -0.81594  -0.81426  -0.80837  -0.80687  -0.79135
 Alpha  occ. eigenvalues --   -0.79003  -0.78191  -0.77633  -0.75724  -0.75356
 Alpha  occ. eigenvalues --   -0.75066  -0.74345  -0.74218  -0.73760  -0.73652
 Alpha  occ. eigenvalues --   -0.73110  -0.72448  -0.72095  -0.71138  -0.70287
 Alpha  occ. eigenvalues --   -0.69660  -0.69318  -0.68952  -0.68541  -0.68442
 Alpha  occ. eigenvalues --   -0.67156  -0.67035  -0.66278  -0.65822  -0.65445
 Alpha  occ. eigenvalues --   -0.65312  -0.63439  -0.63361  -0.62815  -0.62700
 Alpha  occ. eigenvalues --   -0.62620  -0.62237  -0.61697  -0.61616  -0.61466
 Alpha  occ. eigenvalues --   -0.60716  -0.60229  -0.59910  -0.59807  -0.59332
 Alpha  occ. eigenvalues --   -0.58540  -0.58409  -0.58214  -0.57758  -0.57518
 Alpha  occ. eigenvalues --   -0.57204  -0.56725  -0.56655  -0.56401  -0.56352
 Alpha  occ. eigenvalues --   -0.55712  -0.55598  -0.54987  -0.54525  -0.54371
 Alpha  occ. eigenvalues --   -0.53561  -0.53350  -0.52751  -0.52478  -0.51825
 Alpha  occ. eigenvalues --   -0.51528  -0.51431  -0.51341  -0.51018  -0.50664
 Alpha  occ. eigenvalues --   -0.50403  -0.50080  -0.49827  -0.49295  -0.48937
 Alpha  occ. eigenvalues --   -0.48585  -0.48414  -0.48082  -0.47861  -0.47722
 Alpha  occ. eigenvalues --   -0.47392  -0.47287  -0.47027  -0.46710  -0.46144
 Alpha  occ. eigenvalues --   -0.45950  -0.45873  -0.45680  -0.45628  -0.45165
 Alpha  occ. eigenvalues --   -0.44974  -0.44931  -0.44798  -0.44470  -0.44183
 Alpha  occ. eigenvalues --   -0.44044  -0.43911  -0.43700  -0.43630  -0.43598
 Alpha  occ. eigenvalues --   -0.43011  -0.42771  -0.42509  -0.42224  -0.42201
 Alpha  occ. eigenvalues --   -0.41976  -0.41615  -0.41442  -0.41261  -0.41200
 Alpha  occ. eigenvalues --   -0.40922  -0.40845  -0.40620  -0.40373  -0.40127
 Alpha  occ. eigenvalues --   -0.39903  -0.39740  -0.39353  -0.39116  -0.38784
 Alpha  occ. eigenvalues --   -0.38712  -0.38583  -0.38371  -0.38062  -0.37929
 Alpha  occ. eigenvalues --   -0.37574  -0.37024  -0.36830  -0.36778  -0.36732
 Alpha  occ. eigenvalues --   -0.36504  -0.35934  -0.35223  -0.35126  -0.34967
 Alpha  occ. eigenvalues --   -0.34661  -0.34146  -0.34047  -0.33865  -0.33698
 Alpha  occ. eigenvalues --   -0.33513  -0.32939  -0.32736  -0.32596  -0.32397
 Alpha  occ. eigenvalues --   -0.32232  -0.31924  -0.31868  -0.31238  -0.30206
 Alpha  occ. eigenvalues --   -0.29721  -0.29241  -0.28774  -0.28592  -0.27945
 Alpha  occ. eigenvalues --   -0.27074  -0.26958  -0.26009  -0.24952  -0.24779
 Alpha  occ. eigenvalues --   -0.23084  -0.22955  -0.22662  -0.17933  -0.16534
 Alpha  occ. eigenvalues --   -0.15677
 Alpha virt. eigenvalues --   -0.15014  -0.14860  -0.10435  -0.09504  -0.08138
 Alpha virt. eigenvalues --   -0.07064  -0.06531  -0.05772  -0.05328  -0.04499
 Alpha virt. eigenvalues --   -0.03873  -0.03729  -0.03566  -0.03298  -0.01464

 Mulliken charges:
               1
     1  N   -0.699699
     2  H    0.409733
     3  H    0.422719
     4  H    0.410563
     5  C   -0.168543
     6  H    0.196659
     7  C    0.628952
     8  C   -0.088976
     9  H    0.159359
    10  H    0.279765
    11  O   -0.540091
    12  O   -0.631011
    13  H    0.435207
    14  N   -0.584741
    15  H    0.340776
    16  C   -0.088436
    17  H    0.211580
    18  C    0.622387
    19  C   -0.457205
    20  H    0.208907
    21  H    0.168638
    22  H    0.157889
    23  O   -0.520514
    24  N   -0.600010
    25  H    0.373314
    26  C   -0.092382
    27  H    0.165385
    28  C    0.655763
    29  C    0.106824
    30  H    0.178979
    31  O   -0.554252
    32  C   -0.482738
    33  H    0.220549
    34  H    0.138868
    35  H    0.167430
    36  O   -0.641281
    37  H    0.390615
    38  N   -0.619293
    39  H    0.371435
    40  C   -0.051961
    41  H    0.177994
    42  C    0.635665
    43  C   -0.102640
    44  H    0.160041
    45  O   -0.524289
    46  C   -0.459617
    47  H    0.116591
    48  H    0.243263
    49  H    0.144809
    50  C   -0.459797
    51  H    0.132748
    52  H    0.117268
    53  H    0.152947
    54  N   -0.640713
    55  H    0.373321
    56  C   -0.063043
    57  H    0.175094
    58  C    0.643420
    59  C   -0.072649
    60  H    0.102131
    61  O   -0.546803
    62  C   -0.260142
    63  H    0.172297
    64  H    0.110480
    65  C   -0.493451
    66  H    0.198565
    67  H    0.140150
    68  H    0.127737
    69  C   -0.470589
    70  H    0.132664
    71  H    0.194796
    72  H    0.122840
    73  N   -0.611675
    74  H    0.383467
    75  C   -0.036004
    76  H    0.171695
    77  C    0.644838
    78  C   -0.371563
    79  H    0.139480
    80  H    0.137367
    81  O   -0.552198
    82  C    0.580323
    83  O   -0.583146
    84  O   -0.562460
    85  N   -0.583410
    86  H    0.341141
    87  C   -0.054059
    88  H    0.178363
    89  C    0.627806
    90  C   -0.370691
    91  H    0.125505
    92  H    0.169011
    93  O   -0.536357
    94  C    0.321086
    95  C   -0.098537
    96  H    0.210565
    97  N   -0.614603
    98  H    0.309264
    99  C    0.202243
   100  H    0.141426
   101  N   -0.429807
   102  N   -0.587058
   103  H    0.346478
   104  C   -0.079246
   105  H    0.174665
   106  C    0.616269
   107  C   -0.245984
   108  H    0.146763
   109  H    0.112146
   110  O   -0.532777
   111  C   -0.082798
   112  H    0.182801
   113  C   -0.444187
   114  H    0.124854
   115  H    0.161749
   116  H    0.143389
   117  C   -0.467643
   118  H    0.111287
   119  H    0.164245
   120  H    0.174373
   121  N   -0.632910
   122  H    0.363796
   123  C   -0.027670
   124  H    0.216107
   125  C    0.577304
   126  C   -0.277578
   127  H    0.190820
   128  H    0.157199
   129  O   -0.457048
   130  C   -0.316769
   131  H    0.195626
   132  H    0.157526
   133  C   -0.175434
   134  H    0.191200
   135  H    0.189680
   136  N   -0.576007
   137  H    0.368697
   138  N   -0.731319
   139  H    0.383589
   140  H    0.389921
   141  N   -0.732185
   142  H    0.378684
   143  H    0.381155
   144  C    0.750587
   145  O   -0.574079
   146  H    0.428450
 Sum of Mulliken charges =   1.00000

 Dipole moment (field-independent basis, Debye):
    X=             11.2476    Y=             -2.0326    Z=             22.8879  Tot=             25.5831
 Quadrupole moment (field-independent basis, Debye-Ang):
   XX=            614.2474   YY=           -112.0965   ZZ=           -203.6245
   XY=            550.7223   XZ=            539.8859   YZ=            293.6966

 Normal termination of Gaussian 16 at Sun Jun 12 09:29:52 2022.
