 Gaussian 16, Revision C.01,
 Gaussian 16:  ES64L-G16RevC.01  3-Jul-2019

 ----------------------------------------------------------------------
 # B3LYP/6-31G* empiricaldispersion=gd3 guess=read geom=check nosymm in
 tegral(ultrafinegrid)
 ----------------------------------------------------------------------

 ------------------------------------------------------
 Candidate Structure: Conf:123 Charge calc in gas phase
 ------------------------------------------------------
 Structure from the checkpoint file:  "conf-123.chk"
 Charge =  1 Multiplicity = 1

                          Input orientation:
 ---------------------------------------------------------------------
 Center     Atomic      Atomic             Coordinates (Angstroms)
 Number     Number       Type             X           Y           Z
 ---------------------------------------------------------------------
      1          7           0        1.857231    4.555339   -4.508574
      2          1           0        2.568132    3.818637   -4.510772
      3          1           0        1.912002    5.086361   -5.383392
      4          1           0        2.009713    5.141426   -3.610241
      5          6           0        0.502577    3.952438   -4.379857
      6          1           0        0.342476    3.769550   -3.316480
      7          6           0        0.474581    2.610538   -5.136843
      8          6           0       -0.523324    4.975315   -4.865695
      9          1           0       -0.507771    5.838217   -4.183105
     10          1           0       -1.523741    4.522250   -4.831452
     11          8           0        1.367738    2.310822   -5.920917
     12          8           0       -0.137496    5.333230   -6.185067
     13          1           0       -0.684542    6.073302   -6.488316
     14          7           0       -0.594761    1.863556   -4.793224
     15          1           0       -1.191355    2.165184   -4.024052
     16          6           0       -0.898776    0.495856   -5.193824
     17          1           0       -1.302628    0.489974   -6.215960
     18          6           0       -2.012686    0.054618   -4.213343
     19          6           0        0.315219   -0.446659   -5.127391
     20          1           0        0.029527   -1.460278   -5.423806
     21          1           0        0.713328   -0.483845   -4.109379
     22          1           0        1.095525   -0.086739   -5.798759
     23          8           0       -2.388769    0.818762   -3.313104
     24          7           0       -2.500479   -1.189586   -4.359030
     25          1           0       -2.331073   -1.694789   -5.221220
     26          6           0       -3.602148   -1.704120   -3.533209
     27          1           0       -4.307276   -0.879694   -3.362609
     28          6           0       -3.054104   -2.201846   -2.166570
     29          6           0       -4.290087   -2.861572   -4.292884
     30          1           0       -3.631411   -3.732106   -4.235141
     31          8           0       -3.001919   -3.398409   -1.891799
     32          6           0       -5.643319   -3.211392   -3.686799
     33          1           0       -5.524935   -3.524559   -2.646111
     34          1           0       -6.322505   -2.348283   -3.718449
     35          1           0       -6.098552   -4.030453   -4.250536
     36          8           0       -4.379179   -2.560424   -5.687943
     37          1           0       -5.079780   -1.898256   -5.809061
     38          7           0       -2.623439   -1.223995   -1.333388
     39          1           0       -2.622939   -0.255105   -1.648196
     40          6           0       -1.857706   -1.533283   -0.136559
     41          1           0       -2.396839   -2.294407    0.439203
     42          6           0       -1.725881   -0.237560    0.664612
     43          6           0       -0.448435   -2.115936   -0.509162
     44          1           0       -0.685158   -2.912403   -1.221981
     45          8           0       -1.814876    0.867322    0.130556
     46          6           0        0.435520   -1.072282   -1.207975
     47          1           0        0.842399   -0.356503   -0.487454
     48          1           0       -0.126061   -0.510566   -1.961167
     49          1           0        1.281364   -1.563091   -1.702715
     50          6           0        0.281554   -2.764074    0.675963
     51          1           0        0.664225   -2.020991    1.382821
     52          1           0       -0.366863   -3.472884    1.207404
     53          1           0        1.150212   -3.327398    0.318680
     54          7           0       -1.426118   -0.371320    1.992778
     55          1           0       -1.165235   -1.294018    2.316711
     56          6           0       -0.815004    0.761601    2.697330
     57          1           0       -1.522766    1.597058    2.672923
     58          6           0        0.473034    1.108483    1.930327
     59          6           0       -0.479049    0.406042    4.158434
     60          1           0        0.197087   -0.462648    4.115581
     61          8           0        1.391704    0.284925    1.887288
     62          6           0       -1.741484    0.013913    4.949210
     63          1           0       -2.322076   -0.713703    4.369751
     64          1           0       -2.383694    0.899815    5.051199
     65          6           0        0.280067    1.573340    4.812928
     66          1           0       -0.357763    2.463311    4.876592
     67          1           0        1.178147    1.844837    4.248382
     68          1           0        0.587147    1.320583    5.832972
     69          6           0       -1.447079   -0.575758    6.333155
     70          1           0       -2.371324   -0.903594    6.819654
     71          1           0       -0.786913   -1.449687    6.256146
     72          1           0       -0.969647    0.151652    6.998723
     73          7           0        0.515704    2.310829    1.311527
     74          1           0       -0.379252    2.766484    1.183281
     75          6           0        1.509480    2.592728    0.277126
     76          1           0        1.270586    1.991501   -0.607548
     77          6           0        2.901061    2.209122    0.783008
     78          6           0        1.497532    4.084801   -0.113697
     79          1           0        0.476026    4.481232   -0.082170
     80          1           0        2.094161    4.675106    0.590456
     81          8           0        3.244823    2.463050    1.943671
     82          6           0        2.042952    4.325551   -1.527206
     83          8           0        1.779846    5.444663   -2.056154
     84          8           0        2.693897    3.396098   -2.098417
     85          7           0        3.710630    1.631403   -0.134020
     86          1           0        3.387604    1.696700   -1.096773
     87          6           0        5.125765    1.435292    0.119402
     88          1           0        5.232815    1.466374    1.204222
     89          6           0        6.031582    2.609370   -0.308697
     90          6           0        5.611229    0.045386   -0.340623
     91          1           0        6.705152    0.073312   -0.380473
     92          1           0        5.254932   -0.156545   -1.357741
     93          8           0        7.214723    2.588472    0.031386
     94          6           0        5.139405   -1.000109    0.625842
     95          6           0        3.881339   -1.394057    1.020046
     96          1           0        2.933528   -1.083472    0.610599
     97          7           0        5.994584   -1.627921    1.519608
     98          1           0        7.004558   -1.606772    1.480159
     99          6           0        5.229638   -2.364213    2.380515
    100          1           0        5.661207   -2.975448    3.161996
    101          7           0        3.944739   -2.234188    2.116082
    102          7           0        5.428721    3.662169   -0.909268
    103          1           0        4.440555    3.592901   -1.141643
    104          6           0        5.937553    5.023656   -0.718298
    105          1           0        7.022905    4.991918   -0.837373
    106          6           0        5.541376    5.391781    0.730546
    107          6           0        5.288969    5.997871   -1.710213
    108          1           0        4.245718    6.148500   -1.410642
    109          1           0        5.793863    6.967829   -1.602518
    110          8           0        4.356681    5.454114    1.053620
    111          6           0        5.331768    5.551968   -3.183149
    112          1           0        4.750488    4.622687   -3.257712
    113          6           0        4.643726    6.612775   -4.055168
    114          1           0        5.212204    7.551158   -4.053601
    115          1           0        4.570049    6.279992   -5.098875
    116          1           0        3.637612    6.837457   -3.681931
    117          6           0        6.756926    5.269285   -3.674535
    118          1           0        7.393748    6.155868   -3.557443
    119          1           0        6.758865    4.999159   -4.736995
    120          1           0        7.219305    4.443029   -3.123546
    121          7           0        6.560707    5.538931    1.619729
    122          1           0        7.520283    5.512514    1.300889
    123          6           0        6.319248    5.742899    3.035478
    124          1           0        5.267257    6.022099    3.132981
    125          6           0        7.198964    6.878504    3.536115
    126          6           0        6.581707    4.471857    3.900402
    127          1           0        6.118588    4.641519    4.880163
    128          1           0        7.661765    4.361388    4.072174
    129          8           0        8.166942    7.311554    2.953918
    130          6           0        6.044679    3.210577    3.219202
    131          1           0        5.003108    3.346866    2.919498
    132          1           0        6.615682    3.059451    2.298080
    133          6           0        6.190661    1.915623    4.025420
    134          1           0        6.158777    1.053583    3.352729
    135          1           0        7.160400    1.885623    4.536631
    136          7           0        5.162067    1.661594    5.055459
    137          1           0        5.275145    2.095374    5.961823
    138          7           0        3.700332    0.457578    3.715448
    139          1           0        3.148760   -0.378430    3.548991
    140          1           0        3.686698    1.155673    2.953858
    141          7           0        3.601966    0.242796    6.026400
    142          1           0        2.720447   -0.245808    5.961766
    143          1           0        4.135530    0.138901    6.877224
    144          6           0        4.150079    0.786078    4.915646
    145          8           0        6.797156    7.304963    4.753077
    146          1           0        7.422594    8.001302    5.031592
 ---------------------------------------------------------------------

 SCF Done:  E(RB3LYP) =  -3503.64174124     A.U. after    1 cycles

 Alpha  occ. eigenvalues --  -19.27134 -19.24915 -19.21856 -19.21441 -19.21253
 Alpha  occ. eigenvalues --  -19.20672 -19.20480 -19.20209 -19.19974 -19.18758
 Alpha  occ. eigenvalues --  -19.18418 -19.18094 -19.18023 -19.17868 -14.50115
 Alpha  occ. eigenvalues --  -14.49426 -14.49145 -14.46797 -14.46264 -14.44855
 Alpha  occ. eigenvalues --  -14.44608 -14.44342 -14.44218 -14.44082 -14.43449
 Alpha  occ. eigenvalues --  -14.42412 -14.41585 -14.38766 -10.44744 -10.39440
 Alpha  occ. eigenvalues --  -10.37880 -10.37798 -10.37714 -10.37082 -10.36710
 Alpha  occ. eigenvalues --  -10.35952 -10.35946 -10.35608 -10.35123 -10.33973
 Alpha  occ. eigenvalues --  -10.33680 -10.32939 -10.32375 -10.31610 -10.31572
 Alpha  occ. eigenvalues --  -10.31451 -10.31431 -10.31335 -10.30629 -10.30534
 Alpha  occ. eigenvalues --  -10.30105 -10.29896 -10.29284 -10.28287 -10.28179
 Alpha  occ. eigenvalues --  -10.27610 -10.26310 -10.26252 -10.26155 -10.26038
 Alpha  occ. eigenvalues --  -10.26037 -10.25945 -10.25660 -10.25097 -10.24759
 Alpha  occ. eigenvalues --  -10.24296 -10.23850 -10.23755 -10.23544 -10.23378
 Alpha  occ. eigenvalues --  -10.22728  -1.17983  -1.13485  -1.13356  -1.13101
 Alpha  occ. eigenvalues --   -1.12822  -1.12258  -1.11687  -1.11468  -1.11337
 Alpha  occ. eigenvalues --   -1.10914  -1.10072  -1.09809  -1.09092  -1.09060
 Alpha  occ. eigenvalues --   -1.08584  -1.05395  -1.02849  -1.02391  -1.01486
 Alpha  occ. eigenvalues --   -1.01288  -1.01161  -1.00797  -1.00702  -1.00654
 Alpha  occ. eigenvalues --   -0.99878  -0.99014  -0.98518  -0.94316  -0.89732
 Alpha  occ. eigenvalues --   -0.88632  -0.88008  -0.87728  -0.86918  -0.86679
 Alpha  occ. eigenvalues --   -0.85477  -0.84920  -0.84334  -0.83003  -0.82004
 Alpha  occ. eigenvalues --   -0.81594  -0.79936  -0.79589  -0.78001  -0.77924
 Alpha  occ. eigenvalues --   -0.76082  -0.75478  -0.75328  -0.74880  -0.74835
 Alpha  occ. eigenvalues --   -0.73998  -0.73486  -0.72443  -0.71987  -0.71411
 Alpha  occ. eigenvalues --   -0.70488  -0.69593  -0.69481  -0.68833  -0.68567
 Alpha  occ. eigenvalues --   -0.68014  -0.67539  -0.67122  -0.66848  -0.66526
 Alpha  occ. eigenvalues --   -0.66346  -0.66057  -0.65975  -0.65785  -0.65391
 Alpha  occ. eigenvalues --   -0.65056  -0.64853  -0.64704  -0.62893  -0.62653
 Alpha  occ. eigenvalues --   -0.62340  -0.61701  -0.61662  -0.61538  -0.61180
 Alpha  occ. eigenvalues --   -0.60593  -0.60269  -0.59805  -0.59220  -0.58803
 Alpha  occ. eigenvalues --   -0.58402  -0.58012  -0.57641  -0.56950  -0.56916
 Alpha  occ. eigenvalues --   -0.56459  -0.56084  -0.56034  -0.55520  -0.55329
 Alpha  occ. eigenvalues --   -0.54979  -0.54690  -0.54535  -0.54422  -0.54089
 Alpha  occ. eigenvalues --   -0.54003  -0.53356  -0.53293  -0.53124  -0.52849
 Alpha  occ. eigenvalues --   -0.52659  -0.52464  -0.52204  -0.52007  -0.51495
 Alpha  occ. eigenvalues --   -0.51372  -0.51313  -0.51154  -0.50947  -0.50787
 Alpha  occ. eigenvalues --   -0.50599  -0.50324  -0.50228  -0.50094  -0.49774
 Alpha  occ. eigenvalues --   -0.49505  -0.49419  -0.49257  -0.49098  -0.48909
 Alpha  occ. eigenvalues --   -0.48800  -0.48649  -0.48337  -0.48110  -0.47840
 Alpha  occ. eigenvalues --   -0.47820  -0.47593  -0.47318  -0.47266  -0.46979
 Alpha  occ. eigenvalues --   -0.46913  -0.46499  -0.46408  -0.46303  -0.46080
 Alpha  occ. eigenvalues --   -0.45944  -0.45840  -0.45732  -0.45557  -0.45353
 Alpha  occ. eigenvalues --   -0.45063  -0.44759  -0.44654  -0.44390  -0.44277
 Alpha  occ. eigenvalues --   -0.44184  -0.44067  -0.43934  -0.43810  -0.43680
 Alpha  occ. eigenvalues --   -0.43422  -0.43353  -0.43204  -0.43006  -0.42616
 Alpha  occ. eigenvalues --   -0.42304  -0.41894  -0.41663  -0.41210  -0.40842
 Alpha  occ. eigenvalues --   -0.40648  -0.40373  -0.39934  -0.39804  -0.39628
 Alpha  occ. eigenvalues --   -0.39236  -0.39123  -0.38438  -0.38272  -0.38203
 Alpha  occ. eigenvalues --   -0.37682  -0.37633  -0.36820  -0.35948  -0.35676
 Alpha  occ. eigenvalues --   -0.35482  -0.35286  -0.35228  -0.35107  -0.34526
 Alpha  occ. eigenvalues --   -0.34314  -0.34291  -0.34203  -0.34001  -0.33800
 Alpha  occ. eigenvalues --   -0.33704  -0.33498  -0.33072  -0.32712  -0.32314
 Alpha  occ. eigenvalues --   -0.32128  -0.31494  -0.31375  -0.30963  -0.30744
 Alpha  occ. eigenvalues --   -0.29445
 Alpha virt. eigenvalues --   -0.10183  -0.07451  -0.07222  -0.07104  -0.06498
 Alpha virt. eigenvalues --   -0.06385  -0.06273  -0.06023  -0.05983  -0.04923
 Alpha virt. eigenvalues --   -0.04433  -0.04196  -0.03407  -0.02997  -0.02720

 Mulliken charges:
               1
     1  N   -0.764103
     2  H    0.406575
     3  H    0.400337
     4  H    0.449824
     5  C   -0.122693
     6  H    0.209930
     7  C    0.645997
     8  C   -0.045326
     9  H    0.173991
    10  H    0.165426
    11  O   -0.520846
    12  O   -0.619226
    13  H    0.421855
    14  N   -0.643730
    15  H    0.366614
    16  C   -0.021409
    17  H    0.185439
    18  C    0.625838
    19  C   -0.467866
    20  H    0.155667
    21  H    0.165686
    22  H    0.209801
    23  O   -0.559017
    24  N   -0.608048
    25  H    0.359421
    26  C   -0.077561
    27  H    0.169343
    28  C    0.639031
    29  C    0.113320
    30  H    0.181131
    31  O   -0.530424
    32  C   -0.480518
    33  H    0.185814
    34  H    0.135645
    35  H    0.176450
    36  O   -0.630414
    37  H    0.393565
    38  N   -0.644264
    39  H    0.399683
    40  C   -0.051554
    41  H    0.173251
    42  C    0.627668
    43  C   -0.080302
    44  H    0.178708
    45  O   -0.547826
    46  C   -0.502019
    47  H    0.170568
    48  H    0.152225
    49  H    0.149514
    50  C   -0.498008
    51  H    0.171064
    52  H    0.142957
    53  H    0.168900
    54  N   -0.610476
    55  H    0.344205
    56  C   -0.021141
    57  H    0.161471
    58  C    0.648344
    59  C   -0.110105
    60  H    0.124767
    61  O   -0.572017
    62  C   -0.257759
    63  H    0.150847
    64  H    0.145884
    65  C   -0.488862
    66  H    0.160812
    67  H    0.175215
    68  H    0.140113
    69  C   -0.454569
    70  H    0.167514
    71  H    0.136426
    72  H    0.147870
    73  N   -0.600107
    74  H    0.350492
    75  C   -0.003485
    76  H    0.177600
    77  C    0.655788
    78  C   -0.420196
    79  H    0.162980
    80  H    0.245963
    81  O   -0.573730
    82  C    0.629260
    83  O   -0.611635
    84  O   -0.627928
    85  N   -0.611813
    86  H    0.366368
    87  C   -0.057905
    88  H    0.189661
    89  C    0.619350
    90  C   -0.362324
    91  H    0.181712
    92  H    0.173684
    93  O   -0.546446
    94  C    0.304594
    95  C   -0.079164
    96  H    0.176442
    97  N   -0.601848
    98  H    0.342424
    99  C    0.197554
   100  H    0.161703
   101  N   -0.461365
   102  N   -0.628672
   103  H    0.390197
   104  C   -0.058866
   105  H    0.169131
   106  C    0.626516
   107  C   -0.308668
   108  H    0.186355
   109  H    0.146497
   110  O   -0.537077
   111  C   -0.074716
   112  H    0.127643
   113  C   -0.468514
   114  H    0.154535
   115  H    0.129352
   116  H    0.153059
   117  C   -0.453841
   118  H    0.144557
   119  H    0.145128
   120  H    0.157530
   121  N   -0.594162
   122  H    0.352601
   123  C   -0.043895
   124  H    0.213204
   125  C    0.583001
   126  C   -0.286281
   127  H    0.151546
   128  H    0.149077
   129  O   -0.454938
   130  C   -0.318165
   131  H    0.217516
   132  H    0.190753
   133  C   -0.181428
   134  H    0.187607
   135  H    0.171462
   136  N   -0.585619
   137  H    0.352478
   138  N   -0.775493
   139  H    0.388706
   140  H    0.454855
   141  N   -0.759785
   142  H    0.377908
   143  H    0.367197
   144  C    0.763132
   145  O   -0.566101
   146  H    0.422425
 Sum of Mulliken charges =   1.00000

 Dipole moment (field-independent basis, Debye):
    X=             10.5782    Y=              8.6861    Z=              8.1632  Tot=             15.9368
 Quadrupole moment (field-independent basis, Debye-Ang):
   XX=           -309.9040   YY=           -373.8421   ZZ=           -256.0052
   XY=             10.7562   XZ=             93.8673   YZ=            -18.5676

 Normal termination of Gaussian 16 at Sun Jun 12 09:22:23 2022.
