 Gaussian 16, Revision C.01,
 Gaussian 16:  ES64L-G16RevC.01  3-Jul-2019

 ----------------------------------------------------------------------
 # B3LYP/6-31G* empiricaldispersion=gd3 guess=read geom=check nosymm in
 tegral(ultrafinegrid)
 ----------------------------------------------------------------------

 ------------------------------------------------------
 Candidate Structure: Conf:474 Charge calc in gas phase
 ------------------------------------------------------
 Structure from the checkpoint file:  "conf-474.chk"
 Charge =  1 Multiplicity = 1

                          Input orientation:
 ---------------------------------------------------------------------
 Center     Atomic      Atomic             Coordinates (Angstroms)
 Number     Number       Type             X           Y           Z
 ---------------------------------------------------------------------
      1          7           0       -9.792370   -0.674319   -3.120993
      2          1           0      -10.707412   -0.960188   -3.480222
      3          1           0       -9.231683   -1.532700   -2.942446
      4          1           0       -9.905827   -0.097625   -2.267777
      5          6           0       -8.981374    0.134902   -4.098334
      6          1           0       -9.665256    0.732754   -4.706190
      7          6           0       -8.149343   -0.876554   -4.896830
      8          6           0       -8.054145    1.030019   -3.220675
      9          1           0       -7.552048    1.771748   -3.846313
     10          1           0       -7.280561    0.407355   -2.759117
     11          8           0       -7.982005   -1.997262   -4.404427
     12          8           0       -8.840314    1.592207   -2.175761
     13          1           0       -9.167674    2.467406   -2.436344
     14          7           0       -7.559436   -0.435780   -6.022752
     15          1           0       -7.632096    0.560981   -6.201272
     16          6           0       -6.227257   -0.989119   -6.367295
     17          1           0       -6.331744   -2.074502   -6.429007
     18          6           0       -5.329654   -0.567735   -5.177394
     19          6           0       -5.737464   -0.402708   -7.687330
     20          1           0       -4.766311   -0.834118   -7.946521
     21          1           0       -5.609483    0.681737   -7.598113
     22          1           0       -6.440725   -0.621181   -8.496214
     23          8           0       -5.421683    0.583652   -4.747903
     24          7           0       -4.567856   -1.529557   -4.625670
     25          1           0       -4.426982   -2.433894   -5.067078
     26          6           0       -3.826874   -1.323992   -3.391663
     27          1           0       -3.641176   -0.252309   -3.285264
     28          6           0       -2.537095   -2.147613   -3.506397
     29          6           0       -4.663303   -1.834897   -2.164551
     30          1           0       -4.566250   -2.930926   -2.139175
     31          8           0       -2.536505   -3.185067   -4.169937
     32          6           0       -4.182863   -1.236895   -0.850490
     33          1           0       -3.139649   -1.490615   -0.640870
     34          1           0       -4.281680   -0.145596   -0.877214
     35          1           0       -4.798778   -1.615108   -0.029877
     36          8           0       -6.044031   -1.494074   -2.306057
     37          1           0       -6.394133   -1.991006   -3.064168
     38          7           0       -1.483011   -1.676753   -2.811732
     39          1           0       -1.592286   -0.869391   -2.207437
     40          6           0       -0.271969   -2.448228   -2.554988
     41          1           0       -0.441272   -3.459529   -2.937922
     42          6           0       -0.092597   -2.445188   -1.030302
     43          6           0        0.957479   -1.821850   -3.270023
     44          1           0        1.033620   -0.786400   -2.908296
     45          8           0       -0.414889   -1.443150   -0.378965
     46          6           0        2.261879   -2.551102   -2.915482
     47          1           0        2.197175   -3.619826   -3.162470
     48          1           0        2.517691   -2.452170   -1.856806
     49          1           0        3.092086   -2.135943   -3.495929
     50          6           0        0.729693   -1.804175   -4.787141
     51          1           0        0.644089   -2.824630   -5.179750
     52          1           0       -0.184408   -1.264589   -5.052987
     53          1           0        1.570767   -1.316550   -5.291239
     54          7           0        0.433613   -3.559564   -0.480728
     55          1           0        0.782634   -4.278175   -1.100972
     56          6           0        0.862882   -3.616113    0.923744
     57          1           0        0.200129   -2.924994    1.450477
     58          6           0        2.298457   -3.048394    1.034156
     59          6           0        0.674004   -5.023046    1.524620
     60          1           0       -0.411112   -5.203477    1.485293
     61          8           0        3.285175   -3.729826    1.282520
     62          6           0        1.102040   -5.070046    3.008829
     63          1           0        2.195121   -5.065153    3.059366
     64          1           0        0.769165   -6.036858    3.408893
     65          6           0        1.374326   -6.134271    0.724968
     66          1           0        2.449144   -5.947045    0.667620
     67          1           0        0.975906   -6.234511   -0.293741
     68          1           0        1.216925   -7.101466    1.214801
     69          6           0        0.547089   -3.935349    3.880000
     70          1           0        0.741436   -4.138622    4.938742
     71          1           0        1.018268   -2.973117    3.649462
     72          1           0       -0.539567   -3.829126    3.758977
     73          7           0        2.367043   -1.708230    0.770909
     74          1           0        1.493929   -1.192009    0.776258
     75          6           0        3.571734   -0.971496    1.089353
     76          1           0        4.428516   -1.548034    0.732817
     77          6           0        3.693093   -0.830005    2.631923
     78          6           0        3.566500    0.394360    0.366238
     79          1           0        3.536698    0.198599   -0.711290
     80          1           0        2.678276    0.971514    0.644290
     81          8           0        2.766739   -1.055996    3.400644
     82          6           0        4.827138    1.209126    0.706890
     83          8           0        4.663967    2.302429    1.307855
     84          8           0        5.932818    0.643354    0.434873
     85          7           0        4.923126   -0.405931    3.036356
     86          1           0        5.617992   -0.227213    2.315739
     87          6           0        5.303922   -0.145467    4.412772
     88          1           0        4.731737   -0.824484    5.054816
     89          6           0        4.980970    1.294770    4.897138
     90          6           0        6.817928   -0.464440    4.486602
     91          1           0        7.340388    0.252298    3.839411
     92          1           0        6.942294   -1.451190    4.020050
     93          8           0        5.413442    1.697796    5.984158
     94          6           0        7.458108   -0.473731    5.835266
     95          6           0        6.988746   -0.493821    7.124027
     96          1           0        5.957700   -0.472233    7.439551
     97          7           0        8.835327   -0.430333    5.971316
     98          1           0        9.499109   -0.443891    5.208405
     99          6           0        9.131170   -0.408865    7.306396
    100          1           0       10.144154   -0.396252    7.685339
    101          7           0        8.025316   -0.429202    8.033569
    102          7           0        4.208784    2.049842    4.087235
    103          1           0        4.098300    1.750142    3.121693
    104          6           0        4.087491    3.503621    4.274389
    105          1           0        3.567093    3.850677    3.375915
    106          6           0        5.508576    4.133558    4.256289
    107          6           0        3.286587    3.884107    5.524811
    108          1           0        2.418460    3.214320    5.578264
    109          1           0        3.906907    3.668107    6.398450
    110          8           0        5.893547    4.933047    5.126874
    111          6           0        2.806002    5.348057    5.564660
    112          1           0        3.666195    5.991664    5.346616
    113          6           0        1.708862    5.625494    4.526178
    114          1           0        0.826388    5.000027    4.715785
    115          1           0        1.390531    6.673643    4.565112
    116          1           0        2.045128    5.425554    3.502327
    117          6           0        2.306569    5.689100    6.975638
    118          1           0        1.468021    5.041195    7.263630
    119          1           0        1.962538    6.727883    7.037447
    120          1           0        3.101489    5.556647    7.721363
    121          7           0        6.256148    3.706128    3.232488
    122          1           0        5.785212    3.128049    2.522507
    123          6           0        7.718040    3.793333    3.102693
    124          1           0        8.025982    4.824793    2.905688
    125          6           0        8.011616    2.966467    1.839596
    126          6           0        8.459282    3.228749    4.346250
    127          1           0        9.359813    2.693087    4.017880
    128          1           0        7.804328    2.488327    4.815797
    129          8           0        8.470839    3.428437    0.822219
    130          6           0        8.845933    4.313000    5.362521
    131          1           0        9.717424    4.874639    5.001530
    132          1           0        8.029048    5.029410    5.444071
    133          6           0        9.206393    3.775848    6.755157
    134          1           0       10.166831    3.251321    6.725062
    135          1           0        9.309291    4.610305    7.457463
    136          7           0        8.267100    2.801893    7.338971
    137          1           0        8.573807    1.837517    7.389648
    138          7           0        6.466897    4.225563    7.729237
    139          1           0        5.635566    4.372482    8.287707
    140          1           0        6.368514    4.570561    6.760436
    141          7           0        6.597113    2.167757    8.815121
    142          1           0        5.594591    2.030491    8.766162
    143          1           0        7.121876    1.301756    8.947265
    144          6           0        7.097605    3.056646    7.926707
    145          8           0        7.627507    1.691594    2.019765
    146          1           0        7.142417    1.308267    1.195757
 ---------------------------------------------------------------------

 SCF Done:  E(RB3LYP) =  -3503.59837823     A.U. after    1 cycles

 Alpha  occ. eigenvalues --  -19.30477 -19.28130 -19.23806 -19.21807 -19.19794
 Alpha  occ. eigenvalues --  -19.19013 -19.18814 -19.16628 -19.16379 -19.16079
 Alpha  occ. eigenvalues --  -19.15743 -19.15685 -19.13963 -19.13773 -14.60678
 Alpha  occ. eigenvalues --  -14.50528 -14.46351 -14.45733 -14.44602 -14.43991
 Alpha  occ. eigenvalues --  -14.43277 -14.43212 -14.42446 -14.39883 -14.39627
 Alpha  occ. eigenvalues --  -14.39627 -14.39136 -14.38481 -10.44871 -10.41364
 Alpha  occ. eigenvalues --  -10.39910 -10.39227 -10.38229 -10.37081 -10.35871
 Alpha  occ. eigenvalues --  -10.35426 -10.33728 -10.33367 -10.33280 -10.33016
 Alpha  occ. eigenvalues --  -10.32943 -10.32564 -10.31967 -10.31802 -10.30635
 Alpha  occ. eigenvalues --  -10.30247 -10.29437 -10.29128 -10.28863 -10.28184
 Alpha  occ. eigenvalues --  -10.28131 -10.27362 -10.27216 -10.27170 -10.25974
 Alpha  occ. eigenvalues --  -10.25582 -10.25386 -10.25297 -10.23898 -10.23634
 Alpha  occ. eigenvalues --  -10.23433 -10.23157 -10.23127 -10.22734 -10.22337
 Alpha  occ. eigenvalues --  -10.21874 -10.21592 -10.21327 -10.21313 -10.20981
 Alpha  occ. eigenvalues --  -10.20337  -1.20524  -1.17861  -1.14511  -1.13965
 Alpha  occ. eigenvalues --   -1.11939  -1.11038  -1.10750  -1.10641  -1.08825
 Alpha  occ. eigenvalues --   -1.08390  -1.08130  -1.07832  -1.07509  -1.07170
 Alpha  occ. eigenvalues --   -1.07039  -1.06834  -1.02511  -1.02392  -1.00580
 Alpha  occ. eigenvalues --   -0.99515  -0.98481  -0.98314  -0.97773  -0.96724
 Alpha  occ. eigenvalues --   -0.96396  -0.96207  -0.95169  -0.93584  -0.92943
 Alpha  occ. eigenvalues --   -0.88817  -0.87585  -0.85776  -0.85305  -0.85138
 Alpha  occ. eigenvalues --   -0.84904  -0.84590  -0.81803  -0.80642  -0.80484
 Alpha  occ. eigenvalues --   -0.80399  -0.79061  -0.78501  -0.77515  -0.76659
 Alpha  occ. eigenvalues --   -0.75781  -0.75083  -0.74611  -0.74106  -0.74072
 Alpha  occ. eigenvalues --   -0.73973  -0.72974  -0.72253  -0.71966  -0.70424
 Alpha  occ. eigenvalues --   -0.69869  -0.69323  -0.68497  -0.68299  -0.68046
 Alpha  occ. eigenvalues --   -0.67813  -0.67292  -0.66525  -0.66335  -0.65730
 Alpha  occ. eigenvalues --   -0.65573  -0.64861  -0.64747  -0.64353  -0.64269
 Alpha  occ. eigenvalues --   -0.63623  -0.63051  -0.62872  -0.62509  -0.62335
 Alpha  occ. eigenvalues --   -0.61596  -0.61140  -0.60942  -0.60651  -0.60431
 Alpha  occ. eigenvalues --   -0.59940  -0.59575  -0.59137  -0.58846  -0.58527
 Alpha  occ. eigenvalues --   -0.57219  -0.57027  -0.57007  -0.56722  -0.56501
 Alpha  occ. eigenvalues --   -0.56451  -0.55558  -0.54666  -0.54519  -0.54190
 Alpha  occ. eigenvalues --   -0.53980  -0.53830  -0.53655  -0.53286  -0.53095
 Alpha  occ. eigenvalues --   -0.52859  -0.52556  -0.52311  -0.51881  -0.51703
 Alpha  occ. eigenvalues --   -0.51486  -0.51325  -0.50762  -0.50507  -0.50142
 Alpha  occ. eigenvalues --   -0.49903  -0.49622  -0.49591  -0.49198  -0.49116
 Alpha  occ. eigenvalues --   -0.48908  -0.48850  -0.48359  -0.48313  -0.48214
 Alpha  occ. eigenvalues --   -0.48134  -0.47860  -0.47631  -0.47526  -0.47176
 Alpha  occ. eigenvalues --   -0.46895  -0.46829  -0.46552  -0.46353  -0.46326
 Alpha  occ. eigenvalues --   -0.46270  -0.46149  -0.45993  -0.45881  -0.45840
 Alpha  occ. eigenvalues --   -0.45436  -0.45413  -0.45119  -0.45017  -0.44916
 Alpha  occ. eigenvalues --   -0.44659  -0.44537  -0.44426  -0.43998  -0.43933
 Alpha  occ. eigenvalues --   -0.43832  -0.43733  -0.43419  -0.43187  -0.42628
 Alpha  occ. eigenvalues --   -0.42339  -0.42143  -0.41963  -0.41879  -0.41807
 Alpha  occ. eigenvalues --   -0.41507  -0.40869  -0.40835  -0.40512  -0.40463
 Alpha  occ. eigenvalues --   -0.40192  -0.39916  -0.39779  -0.39670  -0.39333
 Alpha  occ. eigenvalues --   -0.39309  -0.39124  -0.39021  -0.38659  -0.37489
 Alpha  occ. eigenvalues --   -0.37347  -0.36942  -0.36658  -0.36484  -0.36415
 Alpha  occ. eigenvalues --   -0.36344  -0.36271  -0.35973  -0.35625  -0.35026
 Alpha  occ. eigenvalues --   -0.34706  -0.34351  -0.33938  -0.33551  -0.33449
 Alpha  occ. eigenvalues --   -0.33207  -0.33089  -0.32769  -0.32117  -0.32075
 Alpha  occ. eigenvalues --   -0.30934  -0.29956  -0.29544  -0.29201  -0.29049
 Alpha  occ. eigenvalues --   -0.28878  -0.28560  -0.28374  -0.27910  -0.27590
 Alpha  occ. eigenvalues --   -0.27276
 Alpha virt. eigenvalues --   -0.14767  -0.10984  -0.08503  -0.06446  -0.06294
 Alpha virt. eigenvalues --   -0.06199  -0.05984  -0.05393  -0.04575  -0.04019
 Alpha virt. eigenvalues --   -0.03421  -0.02326  -0.02266  -0.02204  -0.01748

 Mulliken charges:
               1
     1  N   -0.733971
     2  H    0.418479
     3  H    0.429167
     4  H    0.431320
     5  C   -0.157875
     6  H    0.208302
     7  C    0.654296
     8  C   -0.092794
     9  H    0.209120
    10  H    0.252501
    11  O   -0.535053
    12  O   -0.614392
    13  H    0.427801
    14  N   -0.556903
    15  H    0.350746
    16  C   -0.070028
    17  H    0.192658
    18  C    0.615225
    19  C   -0.475378
    20  H    0.192457
    21  H    0.178334
    22  H    0.184532
    23  O   -0.548818
    24  N   -0.615855
    25  H    0.360359
    26  C   -0.064600
    27  H    0.185550
    28  C    0.618549
    29  C    0.126896
    30  H    0.145800
    31  O   -0.539230
    32  C   -0.478660
    33  H    0.181481
    34  H    0.159225
    35  H    0.171044
    36  O   -0.656481
    37  H    0.422046
    38  N   -0.597018
    39  H    0.354908
    40  C   -0.072864
    41  H    0.177716
    42  C    0.643745
    43  C   -0.070097
    44  H    0.143381
    45  O   -0.568496
    46  C   -0.486928
    47  H    0.138247
    48  H    0.183233
    49  H    0.167330
    50  C   -0.445583
    51  H    0.154459
    52  H    0.146230
    53  H    0.157807
    54  N   -0.603533
    55  H    0.346859
    56  C   -0.089005
    57  H    0.192231
    58  C    0.638630
    59  C   -0.072305
    60  H    0.123550
    61  O   -0.519142
    62  C   -0.263167
    63  H    0.174621
    64  H    0.128917
    65  C   -0.482352
    66  H    0.193106
    67  H    0.117782
    68  H    0.153953
    69  C   -0.480594
    70  H    0.146953
    71  H    0.187977
    72  H    0.128233
    73  N   -0.610138
    74  H    0.357071
    75  C   -0.068458
    76  H    0.201747
    77  C    0.605348
    78  C   -0.336128
    79  H    0.168713
    80  H    0.149848
    81  O   -0.524075
    82  C    0.574133
    83  O   -0.571409
    84  O   -0.599552
    85  N   -0.657743
    86  H    0.373019
    87  C   -0.027228
    88  H    0.197097
    89  C    0.630168
    90  C   -0.425619
    91  H    0.211224
    92  H    0.186472
    93  O   -0.578633
    94  C    0.368663
    95  C   -0.065837
    96  H    0.144838
    97  N   -0.594603
    98  H    0.349678
    99  C    0.149807
   100  H    0.175409
   101  N   -0.464849
   102  N   -0.612458
   103  H    0.383781
   104  C   -0.072065
   105  H    0.185185
   106  C    0.632862
   107  C   -0.244327
   108  H    0.139940
   109  H    0.131609
   110  O   -0.584600
   111  C   -0.080967
   112  H    0.153997
   113  C   -0.452015
   114  H    0.137957
   115  H    0.146004
   116  H    0.146487
   117  C   -0.441257
   118  H    0.140136
   119  H    0.147570
   120  H    0.118328
   121  N   -0.655771
   122  H    0.417736
   123  C    0.038384
   124  H    0.174970
   125  C    0.526118
   126  C   -0.302672
   127  H    0.141000
   128  H    0.177155
   129  O   -0.442560
   130  C   -0.300069
   131  H    0.153209
   132  H    0.197909
   133  C   -0.153130
   134  H    0.156434
   135  H    0.183994
   136  N   -0.602396
   137  H    0.385111
   138  N   -0.766796
   139  H    0.351402
   140  H    0.437981
   141  N   -0.756955
   142  H    0.361079
   143  H    0.387341
   144  C    0.749701
   145  O   -0.634820
   146  H    0.455882
 Sum of Mulliken charges =   1.00000

 Dipole moment (field-independent basis, Debye):
    X=            -30.0011    Y=              0.4099    Z=             -6.9128  Tot=             30.7900
 Quadrupole moment (field-independent basis, Debye-Ang):
   XX=             24.9125   YY=           -409.5625   ZZ=           -243.1284
   XY=              3.2061   XZ=            254.7306   YZ=             37.5094

 Normal termination of Gaussian 16 at Sun Jun 12 09:21:59 2022.
