 Gaussian 16, Revision C.01,
 Gaussian 16:  ES64L-G16RevC.01  3-Jul-2019

 ----------------------------------------------------------------------
 # B3LYP/6-31G* empiricaldispersion=gd3 guess=read geom=check nosymm in
 tegral(ultrafinegrid)
 ----------------------------------------------------------------------

 ------------------------------------------------------
 Candidate Structure: Conf:746 Charge calc in gas phase
 ------------------------------------------------------
 Structure from the checkpoint file:  "conf-746.chk"
 Charge =  1 Multiplicity = 1

                          Input orientation:
 ---------------------------------------------------------------------
 Center     Atomic      Atomic             Coordinates (Angstroms)
 Number     Number       Type             X           Y           Z
 ---------------------------------------------------------------------
      1          7           0       -1.252321    2.602026   -3.461187
      2          1           0       -1.656139    2.841904   -4.372589
      3          1           0       -1.846236    2.907288   -2.652496
      4          1           0       -0.224599    3.044534   -3.237891
      5          6           0       -1.085229    1.097413   -3.238395
      6          1           0       -1.973599    0.585917   -3.622536
      7          6           0       -1.062403    1.034976   -1.680350
      8          6           0        0.211910    0.621873   -3.909120
      9          1           0        1.039355    0.987950   -3.301136
     10          1           0        0.298027    1.110690   -4.886216
     11          8           0       -1.678776    1.932086   -1.054562
     12          6           0        0.290314   -0.900138   -4.131616
     13          1           0       -0.067867   -1.495349   -3.286208
     14          1           0       -0.323975   -1.206807   -4.988470
     15          6           0        1.718829   -1.310141   -4.411868
     16          8           0        2.641253   -0.535074   -4.709042
     17          8           0        1.879753   -2.645350   -4.295030
     18          7           0       -0.325954    0.087172   -1.081095
     19          1           0        0.186289   -0.604613   -1.613933
     20          6           0        0.091010    0.233766    0.348980
     21          1           0       -0.544030    1.016371    0.763182
     22          6           0        1.567534    0.721242    0.259881
     23          6           0       -0.049871   -1.077960    1.111656
     24          1           0        0.163684   -0.872765    2.167861
     25          1           0        0.723857   -1.774038    0.766391
     26          8           0        2.520695    0.007368    0.618098
     27          6           0       -1.457062   -1.706202    0.984980
     28          1           0       -1.616911   -1.981161   -0.066810
     29          6           0       -1.528374   -2.984519    1.847003
     30          1           0       -1.394223   -2.730454    2.905253
     31          1           0       -2.501750   -3.473383    1.732495
     32          1           0       -0.745535   -3.697206    1.562295
     33          6           0       -2.563810   -0.710580    1.402598
     34          1           0       -2.388009   -0.367191    2.429663
     35          1           0       -2.599403    0.164497    0.743544
     36          1           0       -3.543497   -1.199918    1.372419
     37          7           0        1.640192    1.934879   -0.349708
     38          1           0        0.770587    2.389707   -0.623924
     39          6           0        2.786919    2.548488   -1.033571
     40          1           0        3.330394    3.232322   -0.373290
     41          6           0        2.198920    3.368472   -2.233479
     42          6           0        3.777620    1.486268   -1.603384
     43          1           0        3.305967    1.014038   -2.475948
     44          1           0        3.916604    0.718224   -0.840573
     45          8           0        2.945293    4.159367   -2.858370
     46          6           0        5.126845    2.136348   -1.992890
     47          1           0        4.940099    3.174079   -2.271653
     48          1           0        5.802682    2.136340   -1.130693
     49          6           0        5.836953    1.402363   -3.154566
     50          1           0        6.089112    0.379143   -2.865983
     51          1           0        6.769441    1.907774   -3.425309
     52          7           0        4.957574    1.280947   -4.361693
     53          1           0        4.590931    0.356274   -4.584397
     54          7           0        4.704269    3.599059   -4.722606
     55          1           0        4.009152    4.232126   -4.281542
     56          1           0        5.677257    3.755078   -4.478008
     57          7           0        3.074696    2.115769   -5.416864
     58          1           0        2.634308    2.863442   -5.939146
     59          1           0        2.636345    1.198000   -5.309730
     60          6           0        4.263923    2.329600   -4.837566
     61          8           0        0.953807    3.087082   -2.489659
     62          1           0        2.814591   -2.926211   -4.504605
 ---------------------------------------------------------------------

 SCF Done:  E(RB3LYP) =  -1447.48242252     A.U. after   13 cycles

 Alpha  occ. eigenvalues --  -19.34787 -19.30471 -19.25101 -19.22188 -19.20814
 Alpha  occ. eigenvalues --  -19.20580 -14.54037 -14.49920 -14.49508 -14.49457
 Alpha  occ. eigenvalues --  -14.47553 -14.44390 -10.48584 -10.45498 -10.42743
 Alpha  occ. eigenvalues --  -10.39592 -10.39557 -10.37896 -10.35785 -10.34699
 Alpha  occ. eigenvalues --  -10.34335 -10.33073 -10.32377 -10.28697 -10.28268
 Alpha  occ. eigenvalues --  -10.26833 -10.26679 -10.24391 -10.24214  -1.24887
 Alpha  occ. eigenvalues --   -1.16658  -1.16526  -1.14147  -1.13589  -1.11345
 Alpha  occ. eigenvalues --   -1.08684  -1.05625  -1.05144  -1.03341  -1.01611
 Alpha  occ. eigenvalues --   -1.00570  -0.95439  -0.90048  -0.89323  -0.87566
 Alpha  occ. eigenvalues --   -0.84991  -0.82822  -0.79579  -0.78266  -0.75549
 Alpha  occ. eigenvalues --   -0.75237  -0.74402  -0.73424  -0.72335  -0.71956
 Alpha  occ. eigenvalues --   -0.70990  -0.69903  -0.68033  -0.67862  -0.66245
 Alpha  occ. eigenvalues --   -0.65768  -0.64981  -0.64402  -0.64115  -0.63413
 Alpha  occ. eigenvalues --   -0.62915  -0.61456  -0.60437  -0.59916  -0.58730
 Alpha  occ. eigenvalues --   -0.58493  -0.57766  -0.57222  -0.56633  -0.56107
 Alpha  occ. eigenvalues --   -0.55301  -0.54727  -0.54060  -0.53764  -0.52746
 Alpha  occ. eigenvalues --   -0.52409  -0.51819  -0.51370  -0.51050  -0.50788
 Alpha  occ. eigenvalues --   -0.50651  -0.50194  -0.50080  -0.48636  -0.48042
 Alpha  occ. eigenvalues --   -0.47574  -0.47132  -0.46463  -0.46020  -0.45230
 Alpha  occ. eigenvalues --   -0.45080  -0.44563  -0.44317  -0.44142  -0.43948
 Alpha  occ. eigenvalues --   -0.40471  -0.40281  -0.40108  -0.39868  -0.39211
 Alpha  occ. eigenvalues --   -0.39142  -0.38651  -0.37129  -0.36903  -0.35173
 Alpha  occ. eigenvalues --   -0.33778  -0.32813
 Alpha virt. eigenvalues --   -0.15513  -0.12579  -0.11891  -0.07875  -0.07180
 Alpha virt. eigenvalues --   -0.06625  -0.05948  -0.05739  -0.04373  -0.03738
 Alpha virt. eigenvalues --   -0.02821  -0.01742  -0.00709  -0.00263   0.00704

 Mulliken charges:
               1
     1  N   -0.779294
     2  H    0.379610
     3  H    0.417968
     4  H    0.451764
     5  C   -0.092271
     6  H    0.209235
     7  C    0.657820
     8  C   -0.317924
     9  H    0.225352
    10  H    0.159233
    11  O   -0.544927
    12  C   -0.394757
    13  H    0.204788
    14  H    0.224413
    15  C    0.627123
    16  O   -0.500203
    17  O   -0.538077
    18  N   -0.594179
    19  H    0.343789
    20  C   -0.104964
    21  H    0.220355
    22  C    0.611867
    23  C   -0.267567
    24  H    0.168561
    25  H    0.152782
    26  O   -0.521285
    27  C   -0.072573
    28  H    0.103881
    29  C   -0.441765
    30  H    0.154283
    31  H    0.152723
    32  H    0.143978
    33  C   -0.467211
    34  H    0.152050
    35  H    0.157409
    36  H    0.154296
    37  N   -0.632524
    38  H    0.368566
    39  C   -0.011198
    40  H    0.185003
    41  C    0.603432
    42  C   -0.321123
    43  H    0.115491
    44  H    0.218845
    45  O   -0.567611
    46  C   -0.299014
    47  H    0.182026
    48  H    0.174070
    49  C   -0.171343
    50  H    0.182673
    51  H    0.180981
    52  N   -0.595214
    53  H    0.372843
    54  N   -0.739886
    55  H    0.413041
    56  H    0.362728
    57  N   -0.772109
    58  H    0.368710
    59  H    0.411922
    60  C    0.742861
    61  O   -0.649871
    62  H    0.440418
 Sum of Mulliken charges =   1.00000

 Dipole moment (field-independent basis, Debye):
    X=              7.2389    Y=              2.7301    Z=            -21.6892  Tot=             23.0277
 Quadrupole moment (field-independent basis, Debye-Ang):
   XX=           -108.2762   YY=           -151.1779   ZZ=            -69.7966
   XY=              7.5574   XZ=            -37.1711   YZ=            -18.6644

 Normal termination of Gaussian 16 at Sat Jul  9 00:23:28 2022.
