 Gaussian 16, Revision C.01,
 Gaussian 16:  ES64L-G16RevC.01  3-Jul-2019

 ----------------------------------------------------------------------
 # B3LYP/6-31G* empiricaldispersion=gd3 guess=read geom=check nosymm in
 tegral(ultrafinegrid)
 ----------------------------------------------------------------------

 ------------------------------------------------------
 Candidate Structure: Conf:472 Charge calc in gas phase
 ------------------------------------------------------
 Structure from the checkpoint file:  "conf-472.chk"
 Charge =  1 Multiplicity = 1

                          Input orientation:
 ---------------------------------------------------------------------
 Center     Atomic      Atomic             Coordinates (Angstroms)
 Number     Number       Type             X           Y           Z
 ---------------------------------------------------------------------
      1          7           0       -5.637577   -0.219731    4.277105
      2          1           0       -6.371673    0.415876    3.970032
      3          1           0       -5.779185   -1.090930    3.763271
      4          6           0       -4.339565    0.310756    3.910628
      5          1           0       -4.294460    1.372511    4.173976
      6          6           0       -3.966557    0.097127    2.428828
      7          6           0       -3.247528   -0.448010    4.758771
      8          1           0       -3.241948   -0.045773    5.773696
      9          1           0       -3.511593   -1.507619    4.795721
     10          8           0       -4.225712   -0.965139    1.874182
     11          6           0       -1.917931   -0.250957    4.102977
     12          7           0       -1.408606   -1.172467    3.330508
     13          1           0       -1.947348   -2.017223    3.173170
     14          1           0       -0.607136   -1.050601    2.664600
     15          8           0       -1.389369    0.930580    4.226862
     16          7           0       -3.203993    1.080999    1.872489
     17          1           0       -3.022009    1.921786    2.403660
     18          6           0       -2.487114    0.916708    0.623798
     19          1           0       -2.581323   -0.141156    0.356746
     20          6           0       -0.993782    1.222382    0.842407
     21          6           0       -3.105392    1.783963   -0.509373
     22          1           0       -2.914457    2.840935   -0.287255
     23          1           0       -2.588606    1.560100   -1.449846
     24          8           0       -0.536321    1.630811    1.933934
     25          6           0       -4.589401    1.530597   -0.644870
     26          6           0       -5.054732    0.350795   -1.238467
     27          1           0       -4.342234   -0.367587   -1.638099
     28          6           0       -5.519804    2.437232   -0.125322
     29          1           0       -5.170743    3.358524    0.336297
     30          6           0       -6.420752    0.083858   -1.314214
     31          1           0       -6.766199   -0.835613   -1.778166
     32          6           0       -6.889168    2.174972   -0.200382
     33          1           0       -7.599872    2.893003    0.199851
     34          6           0       -7.342296    0.996102   -0.794324
     35          1           0       -8.407185    0.790165   -0.855755
     36          7           0       -0.207828    1.063374   -0.218900
     37          1           0       -0.553060    0.638140   -1.078534
     38          6           0        1.243707    1.155464   -0.186159
     39          1           0        1.537229    2.165555    0.119739
     40          6           0        1.712545    0.865236   -1.625348
     41          6           0        1.913503    0.150982    0.809306
     42          1           0        1.727860    0.520431    1.819271
     43          1           0        2.995202    0.136485    0.636763
     44          8           0        0.960790    0.297959   -2.415430
     45          6           0        1.314232   -1.246428    0.727606
     46          7           0        1.972952   -2.171782    0.032270
     47          1           0        1.543726   -3.086973   -0.026407
     48          1           0        2.872749   -2.032272   -0.466456
     49          8           0        0.219376   -1.494987    1.283990
     50          7           0        3.000400    1.219694   -1.891887
     51          1           0        3.532634    1.533162   -1.078034
     52          6           0        3.862327    0.261662   -2.624399
     53          1           0        3.224094   -0.346113   -3.267283
     54          6           0        4.494885   -0.612375   -1.477924
     55          6           0        4.937692    0.992186   -3.420150
     56          1           0        5.536711    1.581980   -2.712700
     57          1           0        5.605320    0.226985   -3.840045
     58          8           0        4.260661   -1.845112   -1.528365
     59          6           0        4.385917    1.882020   -4.536259
     60          1           0        3.820847    1.264253   -5.250690
     61          1           0        3.665156    2.595146   -4.119533
     62          6           0        5.478871    2.682824   -5.253720
     63          1           0        5.091753    3.269933   -6.093548
     64          1           0        5.948187    3.386777   -4.561488
     65          7           0        6.581467    1.837706   -5.766176
     66          1           0        7.319756    1.615377   -5.109953
     67          7           0        5.456025    1.090520   -7.658678
     68          1           0        5.492569    0.769254   -8.615519
     69          1           0        4.551676    1.328316   -7.277747
     70          7           0        7.672714    0.516503   -7.330383
     71          1           0        7.619723   -0.240215   -7.997716
     72          1           0        8.567017    0.679202   -6.889135
     73          6           0        6.561705    1.143637   -6.901903
     74          8           0        5.063662    0.069181   -0.591240
     75          1           0       -0.891762    1.208455    3.373679
 ---------------------------------------------------------------------

 SCF Done:  E(RB3LYP) =  -1917.43034562     A.U. after    3 cycles

 Alpha  occ. eigenvalues --  -19.29632 -19.23085 -19.20513 -19.19886 -19.18928
 Alpha  occ. eigenvalues --  -19.12223 -19.12171 -14.53485 -14.53366 -14.53287
 Alpha  occ. eigenvalues --  -14.48378 -14.45495 -14.45375 -14.42158 -14.41007
 Alpha  occ. eigenvalues --  -14.39877 -10.49766 -10.43543 -10.39454 -10.37358
 Alpha  occ. eigenvalues --  -10.36437 -10.36195 -10.36117 -10.32768 -10.32621
 Alpha  occ. eigenvalues --  -10.32485 -10.30539 -10.30508 -10.29668 -10.27860
 Alpha  occ. eigenvalues --  -10.27507 -10.27040 -10.26754 -10.26185 -10.25243
 Alpha  occ. eigenvalues --  -10.25074 -10.25034 -10.24916 -10.24837  -1.20542
 Alpha  occ. eigenvalues --   -1.18150  -1.14306  -1.12468  -1.11497  -1.09947
 Alpha  occ. eigenvalues --   -1.07265  -1.06360  -1.05814  -1.04906  -1.02247
 Alpha  occ. eigenvalues --   -1.01948  -0.99197  -0.97811  -0.97095  -0.96070
 Alpha  occ. eigenvalues --   -0.91939  -0.90856  -0.88228  -0.87264  -0.85477
 Alpha  occ. eigenvalues --   -0.83939  -0.81171  -0.80542  -0.80461  -0.77151
 Alpha  occ. eigenvalues --   -0.76636  -0.75862  -0.75327  -0.73859  -0.72359
 Alpha  occ. eigenvalues --   -0.71367  -0.70166  -0.68528  -0.68061  -0.67600
 Alpha  occ. eigenvalues --   -0.67060  -0.66530  -0.66376  -0.65919  -0.65024
 Alpha  occ. eigenvalues --   -0.64638  -0.64121  -0.62699  -0.61109  -0.60842
 Alpha  occ. eigenvalues --   -0.59769  -0.59369  -0.59240  -0.58131  -0.57633
 Alpha  occ. eigenvalues --   -0.57033  -0.56683  -0.56406  -0.56203  -0.55159
 Alpha  occ. eigenvalues --   -0.54294  -0.54043  -0.53112  -0.52880  -0.52650
 Alpha  occ. eigenvalues --   -0.51949  -0.51806  -0.51655  -0.51103  -0.50823
 Alpha  occ. eigenvalues --   -0.50400  -0.49708  -0.49136  -0.48741  -0.48078
 Alpha  occ. eigenvalues --   -0.47815  -0.47555  -0.47118  -0.46794  -0.46482
 Alpha  occ. eigenvalues --   -0.46274  -0.46103  -0.45691  -0.44693  -0.44606
 Alpha  occ. eigenvalues --   -0.44544  -0.43967  -0.43783  -0.43285  -0.42993
 Alpha  occ. eigenvalues --   -0.41943  -0.41890  -0.41834  -0.41246  -0.40607
 Alpha  occ. eigenvalues --   -0.40156  -0.40055  -0.37137  -0.36199  -0.35251
 Alpha  occ. eigenvalues --   -0.34802  -0.34566  -0.33453  -0.33383  -0.32767
 Alpha  occ. eigenvalues --   -0.32022  -0.30959  -0.30545  -0.28269  -0.26603
 Alpha  occ. eigenvalues --   -0.25736
 Alpha virt. eigenvalues --   -0.13848  -0.12646  -0.09481  -0.08910  -0.07060
 Alpha virt. eigenvalues --   -0.06670  -0.06125  -0.06029  -0.05988  -0.05037
 Alpha virt. eigenvalues --   -0.04850  -0.04185  -0.01530  -0.00457  -0.00308

 Mulliken charges:
               1
     1  N   -0.696696
     2  H    0.322551
     3  H    0.325534
     4  C   -0.062701
     5  H    0.161509
     6  C    0.566694
     7  C   -0.318533
     8  H    0.219885
     9  H    0.187180
    10  O   -0.518047
    11  C    0.571407
    12  N   -0.689827
    13  H    0.385228
    14  H    0.428522
    15  O   -0.570400
    16  N   -0.589875
    17  H    0.339607
    18  C   -0.075107
    19  H    0.218891
    20  C    0.678942
    21  C   -0.371122
    22  H    0.157078
    23  H    0.166400
    24  O   -0.622270
    25  C    0.184024
    26  C   -0.161729
    27  H    0.128868
    28  C   -0.189036
    29  H    0.121035
    30  C   -0.125791
    31  H    0.143591
    32  C   -0.134076
    33  H    0.139777
    34  C   -0.129446
    35  H    0.143368
    36  N   -0.608845
    37  H    0.372977
    38  C   -0.042373
    39  H    0.186788
    40  C    0.595054
    41  C   -0.399512
    42  H    0.186180
    43  H    0.226333
    44  O   -0.522505
    45  C    0.607038
    46  N   -0.752781
    47  H    0.340391
    48  H    0.431127
    49  O   -0.601562
    50  N   -0.598091
    51  H    0.338171
    52  C   -0.054845
    53  H    0.164919
    54  C    0.557786
    55  C   -0.282032
    56  H    0.160301
    57  H    0.133158
    58  O   -0.590127
    59  C   -0.278952
    60  H    0.135744
    61  H    0.191391
    62  C   -0.190931
    63  H    0.184805
    64  H    0.202230
    65  N   -0.576786
    66  H    0.374747
    67  N   -0.753189
    68  H    0.386621
    69  H    0.396831
    70  N   -0.758699
    71  H    0.387056
    72  H    0.387885
    73  C    0.822421
    74  O   -0.578481
    75  H    0.484318
 Sum of Mulliken charges =   1.00000

 Dipole moment (field-independent basis, Debye):
    X=             12.6555    Y=              7.9628    Z=            -20.4229  Tot=             25.3113
 Quadrupole moment (field-independent basis, Debye-Ang):
   XX=            -44.8728   YY=           -207.3476   ZZ=             -0.0824
   XY=             30.7298   XZ=           -199.1592   YZ=            -29.6613

 Normal termination of Gaussian 16 at Tue May 31 12:47:51 2022.
