 Gaussian 16, Revision C.01,
 Gaussian 16:  ES64L-G16RevC.01  3-Jul-2019

 ----------------------------------------------------------------------
 # B3LYP/6-31G* empiricaldispersion=gd3 guess=read geom=check nosymm in
 tegral(ultrafinegrid)
 ----------------------------------------------------------------------

 ------------------------------------------------------
 Candidate Structure: Conf:315 Charge calc in gas phase
 ------------------------------------------------------
 Structure from the checkpoint file:  "conf-315.chk"
 Charge =  1 Multiplicity = 1

                          Input orientation:
 ---------------------------------------------------------------------
 Center     Atomic      Atomic             Coordinates (Angstroms)
 Number     Number       Type             X           Y           Z
 ---------------------------------------------------------------------
      1          7           0       -5.571717    1.864372    1.998880
      2          1           0       -5.676115    1.064948    2.712598
      3          1           0       -6.028115    2.698990    2.375221
      4          1           0       -6.010253    1.627099    1.097428
      5          6           0       -4.076721    2.066139    1.852214
      6          1           0       -3.910019    3.104987    1.558481
      7          6           0       -3.625694    1.089407    0.757166
      8          6           0       -3.360597    1.746183    3.178642
      9          1           0       -2.282052    1.760358    2.996100
     10          1           0       -3.590089    2.517553    3.923315
     11          8           0       -4.105615   -0.041609    0.730028
     12          6           0       -3.817915    0.405306    3.762039
     13          7           0       -2.856078   -0.432762    4.150511
     14          1           0       -3.131390   -1.315181    4.565190
     15          1           0       -1.879568   -0.278882    3.867960
     16          8           0       -5.036064    0.171357    3.885697
     17          7           0       -2.706676    1.576097   -0.092030
     18          1           0       -2.390352    2.535024   -0.007429
     19          6           0       -2.326630    0.910984   -1.343949
     20          1           0       -2.665617   -0.123541   -1.260782
     21          6           0       -0.794869    1.013984   -1.295975
     22          6           0       -3.013905    1.623218   -2.532494
     23          1           0       -2.480468    2.559153   -2.729491
     24          1           0       -2.914016    0.992188   -3.423403
     25          8           0       -0.243957    2.110688   -1.416968
     26          6           0       -4.466999    1.882611   -2.187658
     27          6           0       -5.385647    0.826668   -2.129929
     28          1           0       -5.085021   -0.165412   -2.456586
     29          6           0       -4.875668    3.150562   -1.748281
     30          1           0       -4.178693    3.984259   -1.801427
     31          6           0       -6.672755    1.023125   -1.625105
     32          1           0       -7.370810    0.191669   -1.590931
     33          6           0       -6.161962    3.356483   -1.243956
     34          1           0       -6.466498    4.351211   -0.928562
     35          6           0       -7.064112    2.287994   -1.170907
     36          1           0       -8.074603    2.447955   -0.803328
     37          7           0       -0.177568   -0.112711   -0.894086
     38          1           0       -0.618159   -1.037190   -1.000630
     39          6           0        1.072559   -0.076143   -0.137081
     40          1           0        1.195633    0.952395    0.214542
     41          6           0        2.225648   -0.447969   -1.087608
     42          6           0        0.962683   -1.035947    1.063506
     43          1           0        1.784034   -0.843276    1.757231
     44          1           0        1.049928   -2.061760    0.698458
     45          8           0        2.701672   -1.579951   -1.127885
     46          6           0       -0.357083   -0.819293    1.798962
     47          7           0       -1.376759   -1.630809    1.428113
     48          1           0       -2.318853   -1.391342    1.714440
     49          1           0       -1.292966   -2.191800    0.584683
     50          8           0       -0.479158    0.056608    2.669451
     51          7           0        2.568982    0.567317   -1.924402
     52          1           0        2.053764    1.439573   -1.850037
     53          6           0        3.394342    0.356628   -3.101730
     54          1           0        3.854383   -0.625876   -2.986807
     55          6           0        4.538733    1.355008   -3.221801
     56          6           0        2.574485    0.411680   -4.425399
     57          1           0        2.367034    1.461224   -4.669818
     58          1           0        3.211318    0.022731   -5.227466
     59          8           0        5.513419    1.165902   -3.909079
     60          6           0        1.235107   -0.332992   -4.348966
     61          1           0        0.643036    0.118205   -3.546036
     62          1           0        0.684088   -0.162677   -5.281699
     63          6           0        1.350872   -1.846397   -4.079660
     64          1           0        1.487357   -2.385934   -5.025654
     65          1           0        2.218887   -2.050463   -3.449243
     66          7           0        0.168442   -2.340135   -3.364262
     67          1           0       -0.679207   -1.796787   -3.452286
     68          7           0        1.158595   -4.114689   -2.214693
     69          1           0        1.615082   -4.244033   -1.321430
     70          1           0        1.797289   -4.174565   -2.996333
     71          7           0       -0.702517   -2.959410   -1.311142
     72          1           0       -0.708575   -3.785700   -0.710595
     73          6           0        0.196436   -3.130377   -2.249377
     74          8           0        4.301254    2.500381   -2.542342
     75          1           0        5.058178    3.092485   -2.715508
 ---------------------------------------------------------------------

 SCF Done:  E(RB3LYP) =  -1917.47749947     A.U. after    1 cycles

 Alpha  occ. eigenvalues --  -19.27625 -19.25487 -19.24832 -19.22901 -19.22431
 Alpha  occ. eigenvalues --  -19.21516 -19.21153 -14.57458 -14.49922 -14.47187
 Alpha  occ. eigenvalues --  -14.45931 -14.45199 -14.45096 -14.44353 -14.43581
 Alpha  occ. eigenvalues --  -14.38504 -10.43055 -10.42282 -10.40453 -10.39827
 Alpha  occ. eigenvalues --  -10.39756 -10.39692 -10.38254 -10.38181 -10.35372
 Alpha  occ. eigenvalues --  -10.34112 -10.33753 -10.32328 -10.31012 -10.30837
 Alpha  occ. eigenvalues --  -10.30454 -10.30315 -10.30141 -10.30029 -10.29998
 Alpha  occ. eigenvalues --  -10.29700 -10.29124 -10.28246 -10.28066  -1.18336
 Alpha  occ. eigenvalues --   -1.18147  -1.16363  -1.14723  -1.13578  -1.12815
 Alpha  occ. eigenvalues --   -1.11875  -1.09383  -1.07199  -1.06506  -1.03433
 Alpha  occ. eigenvalues --   -1.02754  -1.01772  -1.00289  -0.97930  -0.96682
 Alpha  occ. eigenvalues --   -0.93565  -0.93421  -0.90407  -0.89085  -0.87746
 Alpha  occ. eigenvalues --   -0.85380  -0.85128  -0.83401  -0.81630  -0.78686
 Alpha  occ. eigenvalues --   -0.77016  -0.75907  -0.73160  -0.72573  -0.72175
 Alpha  occ. eigenvalues --   -0.71219  -0.70554  -0.70177  -0.69718  -0.69417
 Alpha  occ. eigenvalues --   -0.69272  -0.68700  -0.67838  -0.67641  -0.65779
 Alpha  occ. eigenvalues --   -0.65315  -0.63479  -0.62620  -0.62295  -0.62090
 Alpha  occ. eigenvalues --   -0.61950  -0.60703  -0.60555  -0.60021  -0.59590
 Alpha  occ. eigenvalues --   -0.58848  -0.58061  -0.57911  -0.57333  -0.56578
 Alpha  occ. eigenvalues --   -0.56387  -0.56050  -0.55822  -0.55221  -0.55099
 Alpha  occ. eigenvalues --   -0.54959  -0.54047  -0.53205  -0.52934  -0.52776
 Alpha  occ. eigenvalues --   -0.52736  -0.52543  -0.52091  -0.51541  -0.51278
 Alpha  occ. eigenvalues --   -0.51055  -0.50846  -0.50409  -0.49803  -0.49373
 Alpha  occ. eigenvalues --   -0.48725  -0.48236  -0.47798  -0.47747  -0.47493
 Alpha  occ. eigenvalues --   -0.47124  -0.46647  -0.46161  -0.44909  -0.44694
 Alpha  occ. eigenvalues --   -0.44603  -0.44546  -0.43233  -0.42772  -0.40323
 Alpha  occ. eigenvalues --   -0.39594  -0.39425  -0.39249  -0.38818  -0.38220
 Alpha  occ. eigenvalues --   -0.37861  -0.36926  -0.36858  -0.36654  -0.35913
 Alpha  occ. eigenvalues --   -0.35864  -0.35454  -0.35099  -0.33780  -0.33303
 Alpha  occ. eigenvalues --   -0.31853
 Alpha virt. eigenvalues --   -0.12907  -0.11694  -0.11312  -0.10690  -0.09593
 Alpha virt. eigenvalues --   -0.08652  -0.08259  -0.07334  -0.06660  -0.05147
 Alpha virt. eigenvalues --   -0.04653  -0.03005  -0.02455  -0.01158  -0.00706

 Mulliken charges:
               1
     1  N   -0.760151
     2  H    0.452610
     3  H    0.398260
     4  H    0.415170
     5  C   -0.119006
     6  H    0.195576
     7  C    0.656636
     8  C   -0.388113
     9  H    0.232042
    10  H    0.211310
    11  O   -0.527802
    12  C    0.625569
    13  N   -0.753037
    14  H    0.365010
    15  H    0.409990
    16  O   -0.554385
    17  N   -0.596948
    18  H    0.355668
    19  C   -0.060474
    20  H    0.201282
    21  C    0.612241
    22  C   -0.371616
    23  H    0.185669
    24  H    0.173010
    25  O   -0.546398
    26  C    0.162170
    27  C   -0.157104
    28  H    0.152127
    29  C   -0.201300
    30  H    0.145437
    31  C   -0.132604
    32  H    0.164372
    33  C   -0.151160
    34  H    0.153511
    35  C   -0.187888
    36  H    0.158148
    37  N   -0.633290
    38  H    0.401080
    39  C   -0.081555
    40  H    0.196676
    41  C    0.651932
    42  C   -0.363721
    43  H    0.198939
    44  H    0.182552
    45  O   -0.541368
    46  C    0.591635
    47  N   -0.766377
    48  H    0.354708
    49  H    0.387063
    50  O   -0.560940
    51  N   -0.598480
    52  H    0.362737
    53  C   -0.066767
    54  H    0.212036
    55  C    0.592126
    56  C   -0.288383
    57  H    0.161553
    58  H    0.184045
    59  O   -0.443653
    60  C   -0.308326
    61  H    0.150217
    62  H    0.161666
    63  C   -0.143456
    64  H    0.165967
    65  H    0.183722
    66  N   -0.587830
    67  H    0.323396
    68  N   -0.732475
    69  H    0.352793
    70  H    0.346392
    71  N   -0.782620
    72  H    0.292939
    73  C    0.670948
    74  O   -0.568299
    75  H    0.424596
 Sum of Mulliken charges =   1.00000

 Dipole moment (field-independent basis, Debye):
    X=            -14.6962    Y=              5.8050    Z=              0.7935  Tot=             15.8211
 Quadrupole moment (field-independent basis, Debye-Ang):
   XX=           -139.3829   YY=           -183.3842   ZZ=           -189.4735
   XY=            -41.9983   XZ=            -22.3423   YZ=             12.5576

 Normal termination of Gaussian 16 at Tue May 31 12:47:39 2022.
