 Gaussian 16, Revision C.01,
 Gaussian 16:  ES64L-G16RevC.01  3-Jul-2019

 ----------------------------------------------------------------------
 # B3LYP/6-31G* empiricaldispersion=gd3 guess=read geom=check nosymm in
 tegral(ultrafinegrid)
 ----------------------------------------------------------------------

 ------------------------------------------------------
 Candidate Structure: Conf:234 Charge calc in gas phase
 ------------------------------------------------------
 Structure from the checkpoint file:  "conf-234.chk"
 Charge =  1 Multiplicity = 1

                          Input orientation:
 ---------------------------------------------------------------------
 Center     Atomic      Atomic             Coordinates (Angstroms)
 Number     Number       Type             X           Y           Z
 ---------------------------------------------------------------------
      1          7           0       -4.823957    2.548933    0.396947
      2          1           0       -5.039189    2.103428   -0.516072
      3          1           0       -5.014788    1.819368    1.126923
      4          1           0       -5.399125    3.385448    0.521662
      5          6           0       -3.338827    2.782944    0.509781
      6          1           0       -2.956533    2.997593   -0.486547
      7          6           0       -2.839961    1.400467    1.006179
      8          6           0       -2.993466    3.929231    1.462148
      9          1           0       -3.573525    4.827795    1.209873
     10          1           0       -3.220697    3.663549    2.500892
     11          8           0       -3.654647    0.692015    1.613360
     12          6           0       -1.502871    4.270309    1.275110
     13          7           0       -0.915322    4.944884    2.279004
     14          1           0        0.059799    5.199377    2.179378
     15          1           0       -1.390191    5.187081    3.136800
     16          8           0       -0.917641    3.946070    0.242880
     17          7           0       -1.594341    1.061724    0.687425
     18          1           0       -0.979548    1.734138    0.232456
     19          6           0       -1.165398   -0.329767    0.673130
     20          1           0       -1.698072   -0.855944    1.468042
     21          6           0        0.352406   -0.345664    0.875055
     22          6           0       -1.478659   -0.983403   -0.727520
     23          1           0       -0.630967   -0.791787   -1.391846
     24          1           0       -1.526231   -2.068862   -0.592181
     25          8           0        1.014376    0.670094    0.681052
     26          6           0       -2.757388   -0.456857   -1.339329
     27          6           0       -4.009534   -0.989662   -1.004518
     28          1           0       -4.065508   -1.844209   -0.335794
     29          6           0       -2.706948    0.653351   -2.196935
     30          1           0       -1.739409    1.072792   -2.465249
     31          6           0       -5.186079   -0.425663   -1.501510
     32          1           0       -6.146101   -0.863457   -1.242530
     33          6           0       -3.880299    1.228324   -2.694079
     34          1           0       -3.823058    2.072252   -3.377536
     35          6           0       -5.129017    0.693484   -2.343800
     36          1           0       -6.041240    1.107681   -2.766861
     37          7           0        0.898879   -1.549928    1.169438
     38          1           0        0.292339   -2.359461    1.165914
     39          6           0        2.309917   -1.774431    0.859234
     40          1           0        2.905463   -1.167040    1.545109
     41          6           0        2.540189   -1.357212   -0.612165
     42          6           0        2.670187   -3.245438    1.063763
     43          1           0        3.705471   -3.397391    0.733404
     44          1           0        2.042382   -3.881536    0.426450
     45          8           0        1.682728   -1.571963   -1.467311
     46          6           0        2.581900   -3.641105    2.543754
     47          7           0        2.284346   -4.954505    2.773118
     48          1           0        2.372936   -5.285789    3.725138
     49          1           0        2.334159   -5.645041    2.037724
     50          8           0        2.752243   -2.829547    3.439399
     51          7           0        3.721537   -0.759180   -0.870373
     52          1           0        4.361218   -0.529817   -0.118937
     53          6           0        3.952121   -0.066003   -2.131225
     54          1           0        3.717080   -0.742569   -2.957466
     55          6           0        5.423961    0.303598   -2.183522
     56          6           0        3.068999    1.203371   -2.256303
     57          1           0        3.206129    1.628129   -3.255407
     58          1           0        2.028195    0.872717   -2.187958
     59          8           0        6.166205    0.304735   -1.223827
     60          6           0        3.362451    2.248130   -1.170983
     61          1           0        3.461899    1.757968   -0.195343
     62          1           0        4.321643    2.743751   -1.378726
     63          6           0        2.261786    3.308820   -1.035425
     64          1           0        1.344513    2.836840   -0.681549
     65          1           0        2.558440    4.036857   -0.269397
     66          7           0        1.979000    4.040235   -2.274421
     67          1           0        2.817438    4.343598   -2.760373
     68          7           0       -0.170176    3.174600   -2.654838
     69          1           0       -0.913923    3.178999   -3.343788
     70          1           0       -0.430495    3.707770   -1.829363
     71          7           0        1.373022    3.602837   -4.459381
     72          1           0        0.571902    3.386360   -5.055185
     73          6           0        1.058813    3.591780   -3.215347
     74          8           0        5.790824    0.688284   -3.418573
     75          1           0        6.727725    0.958595   -3.371309
 ---------------------------------------------------------------------

 SCF Done:  E(RB3LYP) =  -1917.44430594     A.U. after    1 cycles

 Alpha  occ. eigenvalues --  -19.26876 -19.26237 -19.25646 -19.21743 -19.21399
 Alpha  occ. eigenvalues --  -19.19099 -19.18943 -14.59801 -14.49417 -14.48813
 Alpha  occ. eigenvalues --  -14.45592 -14.43489 -14.43427 -14.41403 -14.39684
 Alpha  occ. eigenvalues --  -14.34228 -10.43759 -10.43162 -10.40636 -10.39313
 Alpha  occ. eigenvalues --  -10.38705 -10.36888 -10.36343 -10.36111 -10.34779
 Alpha  occ. eigenvalues --  -10.33804 -10.32040 -10.30853 -10.30815 -10.30761
 Alpha  occ. eigenvalues --  -10.30739 -10.30477 -10.30002 -10.29853 -10.29655
 Alpha  occ. eigenvalues --  -10.28863 -10.27461 -10.24772 -10.24412  -1.18995
 Alpha  occ. eigenvalues --   -1.17907  -1.17489  -1.14122  -1.13628  -1.11067
 Alpha  occ. eigenvalues --   -1.10859  -1.09005  -1.05876  -1.04372  -1.03178
 Alpha  occ. eigenvalues --   -1.02149  -1.00167  -0.98114  -0.96889  -0.94518
 Alpha  occ. eigenvalues --   -0.94378  -0.90163  -0.90140  -0.87716  -0.85858
 Alpha  occ. eigenvalues --   -0.85645  -0.85095  -0.82630  -0.80698  -0.77463
 Alpha  occ. eigenvalues --   -0.75913  -0.74912  -0.73637  -0.73425  -0.72059
 Alpha  occ. eigenvalues --   -0.71622  -0.71191  -0.69855  -0.69439  -0.68140
 Alpha  occ. eigenvalues --   -0.67508  -0.67215  -0.66808  -0.65657  -0.65501
 Alpha  occ. eigenvalues --   -0.64407  -0.63751  -0.62473  -0.62092  -0.60744
 Alpha  occ. eigenvalues --   -0.60462  -0.60225  -0.59829  -0.58585  -0.58051
 Alpha  occ. eigenvalues --   -0.57517  -0.57125  -0.56805  -0.56220  -0.55985
 Alpha  occ. eigenvalues --   -0.55772  -0.54887  -0.54761  -0.54614  -0.53937
 Alpha  occ. eigenvalues --   -0.53470  -0.53316  -0.53073  -0.52749  -0.52395
 Alpha  occ. eigenvalues --   -0.51850  -0.51296  -0.51175  -0.50702  -0.50524
 Alpha  occ. eigenvalues --   -0.49622  -0.49431  -0.49200  -0.48533  -0.47964
 Alpha  occ. eigenvalues --   -0.47319  -0.47159  -0.46762  -0.46353  -0.45792
 Alpha  occ. eigenvalues --   -0.45011  -0.44776  -0.44621  -0.44374  -0.44124
 Alpha  occ. eigenvalues --   -0.43375  -0.41998  -0.41188  -0.40524  -0.40413
 Alpha  occ. eigenvalues --   -0.39752  -0.39535  -0.38962  -0.38872  -0.36472
 Alpha  occ. eigenvalues --   -0.36241  -0.35846  -0.35183  -0.34946  -0.34492
 Alpha  occ. eigenvalues --   -0.33264  -0.32809  -0.32514  -0.32332  -0.31640
 Alpha  occ. eigenvalues --   -0.28044
 Alpha virt. eigenvalues --   -0.13553  -0.12020  -0.11838  -0.11585  -0.09732
 Alpha virt. eigenvalues --   -0.07696  -0.06398  -0.05608  -0.04989  -0.04700
 Alpha virt. eigenvalues --   -0.04246  -0.03338  -0.02437  -0.01683  -0.01297

 Mulliken charges:
               1
     1  N   -0.765339
     2  H    0.413159
     3  H    0.424212
     4  H    0.402501
     5  C   -0.099759
     6  H    0.228826
     7  C    0.638656
     8  C   -0.399670
     9  H    0.203237
    10  H    0.202701
    11  O   -0.543224
    12  C    0.639733
    13  N   -0.733336
    14  H    0.381112
    15  H    0.365624
    16  O   -0.509609
    17  N   -0.594953
    18  H    0.401404
    19  C   -0.080262
    20  H    0.199949
    21  C    0.648258
    22  C   -0.386780
    23  H    0.231146
    24  H    0.167055
    25  O   -0.525668
    26  C    0.155064
    27  C   -0.150618
    28  H    0.154312
    29  C   -0.202730
    30  H    0.186320
    31  C   -0.138822
    32  H    0.162563
    33  C   -0.162692
    34  H    0.151312
    35  C   -0.209287
    36  H    0.160739
    37  N   -0.586066
    38  H    0.338439
    39  C   -0.032118
    40  H    0.201269
    41  C    0.641561
    42  C   -0.418971
    43  H    0.205305
    44  H    0.167632
    45  O   -0.550916
    46  C    0.600643
    47  N   -0.747053
    48  H    0.354332
    49  H    0.344022
    50  O   -0.486430
    51  N   -0.609508
    52  H    0.355380
    53  C   -0.039700
    54  H    0.199898
    55  C    0.589946
    56  C   -0.285900
    57  H    0.188036
    58  H    0.176946
    59  O   -0.471294
    60  C   -0.276202
    61  H    0.147996
    62  H    0.139193
    63  C   -0.166975
    64  H    0.181871
    65  H    0.134670
    66  N   -0.570972
    67  H    0.328773
    68  N   -0.786168
    69  H    0.309348
    70  H    0.357784
    71  N   -0.632622
    72  H    0.263086
    73  C    0.555312
    74  O   -0.559299
    75  H    0.423612
 Sum of Mulliken charges =   1.00000

 Dipole moment (field-independent basis, Debye):
    X=            -14.6376    Y=              7.6608    Z=              3.9211  Tot=             16.9801
 Quadrupole moment (field-independent basis, Debye-Ang):
   XX=           -122.0391   YY=           -131.9076   ZZ=           -223.8309
   XY=            -61.2935   XZ=             -6.5346   YZ=             16.7944

 Normal termination of Gaussian 16 at Tue May 31 12:27:58 2022.
