 Gaussian 16, Revision C.01,
 Gaussian 16:  ES64L-G16RevC.01  3-Jul-2019

 ----------------------------------------------------------------------
 # B3LYP/6-31G* empiricaldispersion=gd3 guess=read geom=check nosymm in
 tegral(ultrafinegrid)
 ----------------------------------------------------------------------

 ------------------------------------------------------
 Candidate Structure: Conf:497 Charge calc in gas phase
 ------------------------------------------------------
 Structure from the checkpoint file:  "conf-497.chk"
 Charge =  1 Multiplicity = 1

                          Input orientation:
 ---------------------------------------------------------------------
 Center     Atomic      Atomic             Coordinates (Angstroms)
 Number     Number       Type             X           Y           Z
 ---------------------------------------------------------------------
      1          7           0       -3.788154    4.370546   -0.978855
      2          1           0       -3.000261    3.883045   -2.568807
      3          1           0       -4.634027    3.802032   -0.910537
      4          1           0       -4.057850    5.345899   -0.853819
      5          6           0       -2.857505    3.948375    0.087009
      6          1           0       -1.924224    4.501012   -0.044957
      7          6           0       -2.628257    2.449974   -0.171834
      8          6           0       -3.352239    4.172855    1.525951
      9          1           0       -3.733916    5.196940    1.633412
     10          1           0       -4.185581    3.493666    1.746972
     11          8           0       -3.585607    1.717650   -0.399182
     12          6           0       -2.207547    3.954872    2.524332
     13          7           0       -2.536800    4.073776    3.832879
     14          1           0       -1.811844    3.947446    4.527326
     15          1           0       -3.471780    4.291351    4.145882
     16          8           0       -1.065659    3.695377    2.148859
     17          7           0       -1.322363    2.047743   -0.245183
     18          1           0       -0.658630    2.540366    0.358746
     19          6           0       -1.037710    0.630292   -0.463985
     20          1           0       -1.683052    0.020139    0.178410
     21          6           0        0.440265    0.408699   -0.109441
     22          6           0       -1.325503    0.243858   -1.949074
     23          1           0       -2.256650    0.749414   -2.221971
     24          1           0       -0.528617    0.650380   -2.582058
     25          8           0        1.173362    1.361210    0.175673
     26          6           0       -1.477177   -1.243624   -2.179874
     27          6           0       -0.492936   -1.990028   -2.842376
     28          1           0        0.406755   -1.503990   -3.210433
     29          6           0       -2.616417   -1.901439   -1.688798
     30          1           0       -3.385500   -1.323210   -1.180476
     31          6           0       -0.640994   -3.371047   -3.002668
     32          1           0        0.134464   -3.936519   -3.511254
     33          6           0       -2.765040   -3.277974   -1.853168
     34          1           0       -3.651871   -3.775144   -1.470366
     35          6           0       -1.775396   -4.016973   -2.509138
     36          1           0       -1.889684   -5.089987   -2.633160
     37          7           0        0.881290   -0.867510   -0.193788
     38          1           0        0.263944   -1.567077   -0.591861
     39          6           0        2.317915   -1.169447   -0.218243
     40          1           0        2.787335   -0.662682    0.629069
     41          6           0        2.892119   -0.648628   -1.556731
     42          6           0        2.535818   -2.680206   -0.097902
     43          1           0        2.073405   -3.181057   -0.954839
     44          1           0        2.070933   -3.034174    0.825503
     45          8           0        2.781646   -1.293693   -2.600988
     46          6           0        4.037339   -2.976076   -0.000489
     47          7           0        4.629728   -3.338462   -1.176153
     48          1           0        5.640549   -3.383915   -1.178539
     49          1           0        4.169790   -3.131052   -2.053466
     50          8           0        4.633277   -2.870627    1.060155
     51          7           0        3.481984    0.568000   -1.491494
     52          1           0        3.410895    1.086001   -0.623922
     53          6           0        3.978692    1.267322   -2.663542
     54          1           0        3.745879    0.610188   -3.511217
     55          6           0        5.504023    1.420170   -2.646760
     56          6           0        3.296782    2.632580   -2.848478
     57          1           0        3.540517    3.266555   -1.984730
     58          1           0        3.738311    3.125587   -3.719574
     59          8           0        6.090627    2.392503   -3.064298
     60          6           0        1.776591    2.497338   -2.973300
     61          1           0        1.513946    1.966433   -3.900285
     62          1           0        1.415031    1.883179   -2.144677
     63          6           0        1.041028    3.839302   -2.894344
     64          1           0        1.372167    4.389560   -2.008042
     65          1           0        1.240124    4.487288   -3.754380
     66          7           0       -0.411316    3.667668   -2.750155
     67          1           0       -0.723933    3.264503   -1.862851
     68          7           0       -0.879309    3.516163   -5.033145
     69          1           0       -1.516145    3.698671   -5.795352
     70          1           0        0.069934    3.264650   -5.266547
     71          7           0       -2.601931    3.572195   -3.475624
     72          1           0       -3.254682    3.258260   -4.180317
     73          6           0       -1.294139    3.577458   -3.752346
     74          8           0        6.112862    0.327272   -2.147807
     75          1           0        7.074210    0.493318   -2.195055
 ---------------------------------------------------------------------

 SCF Done:  E(RB3LYP) =  -1917.49771238     A.U. after    1 cycles

 Alpha  occ. eigenvalues --  -19.28006 -19.23516 -19.22684 -19.22480 -19.21951
 Alpha  occ. eigenvalues --  -19.21245 -19.17264 -14.51813 -14.50516 -14.49405
 Alpha  occ. eigenvalues --  -14.46806 -14.46259 -14.45889 -14.45827 -14.45647
 Alpha  occ. eigenvalues --  -14.41457 -10.47295 -10.40618 -10.40014 -10.39761
 Alpha  occ. eigenvalues --  -10.39485 -10.38274 -10.35341 -10.35215 -10.34445
 Alpha  occ. eigenvalues --  -10.33988 -10.33390 -10.32982 -10.30956 -10.30138
 Alpha  occ. eigenvalues --  -10.29483 -10.29352 -10.28433 -10.27277 -10.27171
 Alpha  occ. eigenvalues --  -10.27087 -10.27047 -10.27030 -10.26909  -1.19008
 Alpha  occ. eigenvalues --   -1.15667  -1.15427  -1.14469  -1.13632  -1.12985
 Alpha  occ. eigenvalues --   -1.10095  -1.09161  -1.05118  -1.03610  -1.03335
 Alpha  occ. eigenvalues --   -1.02891  -1.02518  -1.01675  -1.00603  -0.96368
 Alpha  occ. eigenvalues --   -0.94080  -0.91291  -0.89418  -0.87624  -0.86829
 Alpha  occ. eigenvalues --   -0.85453  -0.82702  -0.82460  -0.80581  -0.77888
 Alpha  occ. eigenvalues --   -0.77318  -0.76300  -0.74214  -0.72914  -0.72502
 Alpha  occ. eigenvalues --   -0.70692  -0.69644  -0.69249  -0.68844  -0.68453
 Alpha  occ. eigenvalues --   -0.67933  -0.67544  -0.66379  -0.65475  -0.65172
 Alpha  occ. eigenvalues --   -0.64423  -0.64202  -0.63477  -0.62969  -0.61252
 Alpha  occ. eigenvalues --   -0.60429  -0.59787  -0.59655  -0.59262  -0.58827
 Alpha  occ. eigenvalues --   -0.58209  -0.57954  -0.57723  -0.57435  -0.56480
 Alpha  occ. eigenvalues --   -0.56174  -0.55748  -0.55081  -0.54561  -0.54494
 Alpha  occ. eigenvalues --   -0.54015  -0.53368  -0.53245  -0.52450  -0.52365
 Alpha  occ. eigenvalues --   -0.51583  -0.51183  -0.50940  -0.50599  -0.50121
 Alpha  occ. eigenvalues --   -0.49712  -0.49356  -0.48757  -0.48624  -0.48562
 Alpha  occ. eigenvalues --   -0.48178  -0.48084  -0.47727  -0.46840  -0.46338
 Alpha  occ. eigenvalues --   -0.46135  -0.45861  -0.45242  -0.44994  -0.44611
 Alpha  occ. eigenvalues --   -0.43829  -0.43192  -0.42505  -0.42212  -0.42012
 Alpha  occ. eigenvalues --   -0.40183  -0.39655  -0.39438  -0.38331  -0.37781
 Alpha  occ. eigenvalues --   -0.37549  -0.36844  -0.36727  -0.36270  -0.35673
 Alpha  occ. eigenvalues --   -0.34482  -0.33856  -0.33076  -0.32857  -0.32719
 Alpha  occ. eigenvalues --   -0.30917
 Alpha virt. eigenvalues --   -0.11944  -0.10475  -0.09556  -0.08475  -0.08338
 Alpha virt. eigenvalues --   -0.07981  -0.07581  -0.07474  -0.07130  -0.04471
 Alpha virt. eigenvalues --   -0.03864  -0.03235  -0.02096  -0.01553  -0.00676

 Mulliken charges:
               1
     1  N   -0.773153
     2  H    0.442768
     3  H    0.345432
     4  H    0.332147
     5  C   -0.049522
     6  H    0.167957
     7  C    0.604553
     8  C   -0.397877
     9  H    0.180093
    10  H    0.195300
    11  O   -0.512974
    12  C    0.620005
    13  N   -0.743813
    14  H    0.364551
    15  H    0.354876
    16  O   -0.517655
    17  N   -0.664494
    18  H    0.399956
    19  C   -0.039750
    20  H    0.198412
    21  C    0.617490
    22  C   -0.377020
    23  H    0.183578
    24  H    0.144997
    25  O   -0.549415
    26  C    0.116111
    27  C   -0.222734
    28  H    0.164188
    29  C   -0.182059
    30  H    0.155365
    31  C   -0.134479
    32  H    0.152325
    33  C   -0.129192
    34  H    0.151940
    35  C   -0.126472
    36  H    0.153355
    37  N   -0.604652
    38  H    0.366957
    39  C   -0.048121
    40  H    0.197791
    41  C    0.617939
    42  C   -0.379348
    43  H    0.172096
    44  H    0.191971
    45  O   -0.542883
    46  C    0.563772
    47  N   -0.730630
    48  H    0.344350
    49  H    0.356614
    50  O   -0.492733
    51  N   -0.576855
    52  H    0.361857
    53  C   -0.072402
    54  H    0.212563
    55  C    0.599004
    56  C   -0.276854
    57  H    0.160848
    58  H    0.182035
    59  O   -0.451128
    60  C   -0.298375
    61  H    0.136900
    62  H    0.185610
    63  C   -0.181421
    64  H    0.197191
    65  H    0.176988
    66  N   -0.616212
    67  H    0.399927
    68  N   -0.761211
    69  H    0.377926
    70  H    0.383418
    71  N   -0.800462
    72  H    0.359911
    73  C    0.791257
    74  O   -0.554662
    75  H    0.426228
 Sum of Mulliken charges =   1.00000

 Dipole moment (field-independent basis, Debye):
    X=             -8.5468    Y=             14.9046    Z=            -11.1255  Tot=             20.4688
 Quadrupole moment (field-independent basis, Debye-Ang):
   XX=           -176.0645   YY=           -148.7879   ZZ=           -146.1403
   XY=            -41.7488   XZ=            -13.9646   YZ=            -14.9550

 Normal termination of Gaussian 16 at Tue May 31 12:47:38 2022.
