 Gaussian 16, Revision C.01,
 Gaussian 16:  ES64L-G16RevC.01  3-Jul-2019

 ----------------------------------------------------------------------
 # B3LYP/6-31G* empiricaldispersion=gd3 guess=read geom=check nosymm in
 tegral(ultrafinegrid)
 ----------------------------------------------------------------------

 ------------------------------------------------------
 Candidate Structure: Conf:234 Charge calc in gas phase
 ------------------------------------------------------
 Structure from the checkpoint file:  "conf-234.chk"
 Charge =  1 Multiplicity = 1

                          Input orientation:
 ---------------------------------------------------------------------
 Center     Atomic      Atomic             Coordinates (Angstroms)
 Number     Number       Type             X           Y           Z
 ---------------------------------------------------------------------
      1          7           0       -3.480425   -2.256381    3.815395
      2          1           0       -2.567435   -2.669108    3.634244
      3          1           0       -3.806130   -2.574810    4.724308
      4          6           0       -3.391128   -0.811839    3.754245
      5          1           0       -4.404034   -0.394778    3.817052
      6          6           0       -2.743642   -0.456048    2.414907
      7          6           0       -2.507927   -0.163624    4.883558
      8          1           0       -2.789802   -0.619232    5.838359
      9          1           0       -1.461501   -0.419434    4.683957
     10          8           0       -1.701615   -1.006197    2.061575
     11          6           0       -2.633905    1.348956    4.937832
     12          7           0       -3.190744    1.882824    6.040532
     13          1           0       -3.414336    1.331278    6.855888
     14          1           0       -3.252329    2.890967    6.113233
     15          8           0       -2.302126    2.079673    3.985739
     16          7           0       -3.306009    0.556876    1.715706
     17          1           0       -4.163475    0.985196    2.042331
     18          6           0       -2.662891    1.171427    0.568909
     19          1           0       -2.790460    0.545735   -0.322105
     20          6           0       -1.172462    1.339067    0.821423
     21          6           0       -3.272305    2.583145    0.318762
     22          1           0       -2.943395    3.244681    1.127839
     23          1           0       -2.842175    2.965876   -0.612966
     24          8           0       -0.715946    1.754483    1.965381
     25          6           0       -4.781960    2.552199    0.252842
     26          6           0       -5.439986    2.071868   -0.887065
     27          1           0       -4.859773    1.763928   -1.754343
     28          6           0       -5.543383    2.950215    1.361054
     29          1           0       -5.040232    3.340645    2.244163
     30          6           0       -6.831411    1.993167   -0.919528
     31          1           0       -7.330879    1.624810   -1.810900
     32          6           0       -6.938216    2.869756    1.330064
     33          1           0       -7.517539    3.190274    2.191207
     34          6           0       -7.583470    2.390100    0.190057
     35          1           0       -8.667397    2.330196    0.161925
     36          7           0       -0.332590    1.177281   -0.153632
     37          1           0       -0.616230    0.911508   -1.107880
     38          6           0        1.125237    1.307947   -0.077517
     39          1           0        1.378311    2.203465    0.495817
     40          6           0        1.599912    1.412772   -1.547074
     41          6           0        1.760762    0.061525    0.592500
     42          1           0        1.394369   -0.016819    1.621085
     43          1           0        2.847750    0.205248    0.602974
     44          8           0        0.797031    1.135949   -2.453560
     45          6           0        1.477505   -1.200846   -0.228992
     46          7           0        0.454086   -1.980565    0.221969
     47          1           0        0.225541   -2.803865   -0.318286
     48          1           0       -0.140122   -1.730217    1.000924
     49          8           0        2.112144   -1.458465   -1.241918
     50          7           0        2.885489    1.738647   -1.650712
     51          1           0        3.443145    1.796129   -0.763559
     52          6           0        3.839761    1.091162   -2.560288
     53          1           0        3.451924    0.099655   -2.820599
     54          6           0        5.143925    0.863344   -1.664464
     55          6           0        4.168294    1.876827   -3.820309
     56          1           0        4.381277    2.921354   -3.554417
     57          1           0        5.094731    1.439603   -4.210819
     58          8           0        6.142692    0.479546   -2.283005
     59          6           0        3.056009    1.813748   -4.871369
     60          1           0        2.847804    0.759648   -5.104366
     61          1           0        2.126515    2.240555   -4.475435
     62          6           0        3.477754    2.533750   -6.148552
     63          1           0        3.625771    3.604261   -5.961919
     64          1           0        4.419721    2.106361   -6.516963
     65          7           0        2.441105    2.383278   -7.196053
     66          1           0        1.687647    1.738957   -6.987847
     67          7           0        3.577754    3.601221   -8.804808
     68          1           0        3.546020    4.213321   -9.607274
     69          1           0        4.408826    3.630117   -8.231661
     70          7           0        1.436962    2.839976   -9.247475
     71          1           0        1.566020    2.964846  -10.241880
     72          1           0        0.581117    2.389206   -8.956439
     73          6           0        2.487793    2.927804   -8.403986
     74          8           0        4.966248    1.112345   -0.432260
     75          1           0       -1.406398    1.810516    2.716102
 ---------------------------------------------------------------------

 SCF Done:  E(RB3LYP) =  -1917.40097979     A.U. after    1 cycles

 Alpha  occ. eigenvalues --  -19.30712 -19.25123 -19.23710 -19.18064 -19.15779
 Alpha  occ. eigenvalues --  -19.08413 -19.07138 -14.52444 -14.52428 -14.52012
 Alpha  occ. eigenvalues --  -14.49481 -14.48445 -14.48191 -14.41553 -14.40274
 Alpha  occ. eigenvalues --  -14.37906 -10.48617 -10.43985 -10.42264 -10.40456
 Alpha  occ. eigenvalues --  -10.36940 -10.34344 -10.34313 -10.34027 -10.33798
 Alpha  occ. eigenvalues --  -10.32135 -10.31303 -10.31297 -10.29751 -10.28601
 Alpha  occ. eigenvalues --  -10.28417 -10.28252 -10.28148 -10.27943 -10.26397
 Alpha  occ. eigenvalues --  -10.26060 -10.25742 -10.23340 -10.22602  -1.21492
 Alpha  occ. eigenvalues --   -1.17072  -1.16332  -1.15645  -1.09810  -1.07646
 Alpha  occ. eigenvalues --   -1.06291  -1.06049  -1.05367  -1.05031  -1.03173
 Alpha  occ. eigenvalues --   -1.01355  -0.99483  -0.95992  -0.95259  -0.94989
 Alpha  occ. eigenvalues --   -0.92532  -0.91009  -0.88643  -0.87279  -0.86955
 Alpha  occ. eigenvalues --   -0.83899  -0.83702  -0.81383  -0.78598  -0.78522
 Alpha  occ. eigenvalues --   -0.78325  -0.75726  -0.75226  -0.74093  -0.72407
 Alpha  occ. eigenvalues --   -0.71849  -0.70580  -0.70164  -0.69865  -0.67973
 Alpha  occ. eigenvalues --   -0.66864  -0.66313  -0.65720  -0.65524  -0.64939
 Alpha  occ. eigenvalues --   -0.64412  -0.64120  -0.63024  -0.61679  -0.60790
 Alpha  occ. eigenvalues --   -0.60515  -0.60269  -0.60196  -0.59361  -0.57985
 Alpha  occ. eigenvalues --   -0.57859  -0.57385  -0.56897  -0.55854  -0.55518
 Alpha  occ. eigenvalues --   -0.55249  -0.55127  -0.54990  -0.53996  -0.53581
 Alpha  occ. eigenvalues --   -0.52214  -0.51871  -0.51308  -0.51116  -0.51010
 Alpha  occ. eigenvalues --   -0.50704  -0.50404  -0.49922  -0.49621  -0.48722
 Alpha  occ. eigenvalues --   -0.48427  -0.48245  -0.47976  -0.47153  -0.46621
 Alpha  occ. eigenvalues --   -0.45301  -0.45032  -0.44778  -0.44561  -0.44074
 Alpha  occ. eigenvalues --   -0.43585  -0.43533  -0.43385  -0.43077  -0.42638
 Alpha  occ. eigenvalues --   -0.40711  -0.40187  -0.40140  -0.39885  -0.39755
 Alpha  occ. eigenvalues --   -0.39248  -0.38251  -0.37649  -0.37492  -0.37333
 Alpha  occ. eigenvalues --   -0.35515  -0.34428  -0.33936  -0.33578  -0.32467
 Alpha  occ. eigenvalues --   -0.31330  -0.30156  -0.29381  -0.23433  -0.23253
 Alpha  occ. eigenvalues --   -0.21282
 Alpha virt. eigenvalues --   -0.12959  -0.12397  -0.10961  -0.09900  -0.09793
 Alpha virt. eigenvalues --   -0.08896  -0.08644  -0.04544  -0.04097  -0.03817
 Alpha virt. eigenvalues --   -0.03763  -0.03143  -0.02477  -0.01377  -0.00965

 Mulliken charges:
               1
     1  N   -0.701187
     2  H    0.329586
     3  H    0.316357
     4  C   -0.056309
     5  H    0.159090
     6  C    0.638769
     7  C   -0.386345
     8  H    0.159248
     9  H    0.211220
    10  O   -0.539068
    11  C    0.624365
    12  N   -0.721263
    13  H    0.367573
    14  H    0.369897
    15  O   -0.568722
    16  N   -0.611924
    17  H    0.359395
    18  C   -0.017519
    19  H    0.196875
    20  C    0.661126
    21  C   -0.401473
    22  H    0.186374
    23  H    0.186944
    24  O   -0.600291
    25  C    0.153443
    26  C   -0.172918
    27  H    0.136216
    28  C   -0.215982
    29  H    0.143345
    30  C   -0.124324
    31  H    0.155272
    32  C   -0.124143
    33  H    0.152319
    34  C   -0.124198
    35  H    0.157587
    36  N   -0.565235
    37  H    0.382897
    38  C   -0.100479
    39  H    0.203930
    40  C    0.633726
    41  C   -0.377222
    42  H    0.159866
    43  H    0.250070
    44  O   -0.582090
    45  C    0.584860
    46  N   -0.783025
    47  H    0.337934
    48  H    0.381214
    49  O   -0.489279
    50  N   -0.611653
    51  H    0.363198
    52  C   -0.097217
    53  H    0.181107
    54  C    0.601931
    55  C   -0.261443
    56  H    0.134078
    57  H    0.178175
    58  O   -0.566834
    59  C   -0.318000
    60  H    0.156887
    61  H    0.175962
    62  C   -0.149067
    63  H    0.184225
    64  H    0.185431
    65  N   -0.604941
    66  H    0.369370
    67  N   -0.757286
    68  H    0.384096
    69  H    0.400014
    70  N   -0.764162
    71  H    0.382403
    72  H    0.381375
    73  C    0.833689
    74  O   -0.616819
    75  H    0.498978
 Sum of Mulliken charges =   1.00000

 Dipole moment (field-independent basis, Debye):
    X=            -18.7631    Y=             14.7689    Z=            -15.5205  Tot=             28.4791
 Quadrupole moment (field-independent basis, Debye-Ang):
   XX=           -224.5838   YY=           -177.7222   ZZ=            149.3644
   XY=             10.1792   XZ=           -103.9814   YZ=            -92.3989

 Normal termination of Gaussian 16 at Tue May 31 12:47:22 2022.
