 Gaussian 16, Revision C.01,
 Gaussian 16:  ES64L-G16RevC.01  3-Jul-2019

 ----------------------------------------------------------------------
 # B3LYP/6-31G* empiricaldispersion=gd3 guess=read geom=check nosymm in
 tegral(ultrafinegrid)
 ----------------------------------------------------------------------

 ------------------------------------------------------
 Candidate Structure: Conf:123 Charge calc in gas phase
 ------------------------------------------------------
 Structure from the checkpoint file:  "conf-123.chk"
 Charge =  1 Multiplicity = 1

                          Input orientation:
 ---------------------------------------------------------------------
 Center     Atomic      Atomic             Coordinates (Angstroms)
 Number     Number       Type             X           Y           Z
 ---------------------------------------------------------------------
      1          7           0       -4.226542   -2.085092    3.214414
      2          1           0       -5.235103   -1.962833    3.084039
      3          1           0       -3.881312   -2.718984    2.475557
      4          1           0       -4.006458   -2.431678    4.194887
      5          6           0       -3.460751   -0.795716    3.082703
      6          1           0       -4.023761   -0.021153    3.609214
      7          6           0       -3.235405   -0.530524    1.588513
      8          6           0       -2.060195   -0.998044    3.676141
      9          1           0       -1.532319   -1.739989    3.064114
     10          1           0       -1.489209   -0.073652    3.574090
     11          8           0       -3.029156   -1.503889    0.860481
     12          6           0       -2.065199   -1.502664    5.114573
     13          7           0       -0.951444   -1.244583    5.811670
     14          1           0       -0.884921   -1.568471    6.768905
     15          1           0       -0.174684   -0.743271    5.376406
     16          8           0       -3.031785   -2.148198    5.557693
     17          7           0       -3.117038    0.755927    1.237818
     18          1           0       -3.331894    1.478436    1.914546
     19          6           0       -2.470464    1.192229   -0.008420
     20          1           0       -2.608292    0.379304   -0.727322
     21          6           0       -0.961973    1.373439    0.294930
     22          6           0       -3.120960    2.480340   -0.526711
     23          1           0       -2.911086    3.285146    0.188066
     24          1           0       -2.616474    2.769749   -1.454216
     25          8           0       -0.420519    2.472812    0.285988
     26          6           0       -4.609626    2.311124   -0.728246
     27          6           0       -5.098755    1.566801   -1.809929
     28          1           0       -4.401661    1.149905   -2.533953
     29          6           0       -5.522973    2.854902    0.182685
     30          1           0       -5.158993    3.457359    1.013746
     31          6           0       -6.469219    1.368304   -1.975068
     32          1           0       -6.833565    0.797455   -2.824482
     33          6           0       -6.896635    2.661104    0.019886
     34          1           0       -7.593295    3.103539    0.726764
     35          6           0       -7.372282    1.913978   -1.058636
     36          1           0       -8.440244    1.768224   -1.193004
     37          7           0       -0.307254    0.228694    0.666818
     38          1           0       -0.684591   -0.644378    0.310615
     39          6           0        1.146770    0.281750    0.841258
     40          1           0        1.364032    1.143492    1.475074
     41          6           0        1.797606    0.385664   -0.554512
     42          6           0        1.671268   -0.997459    1.499169
     43          1           0        2.766160   -0.926871    1.551975
     44          1           0        1.449827   -1.852095    0.849163
     45          8           0        1.495014   -0.444105   -1.407616
     46          6           0        1.170841   -1.230998    2.917218
     47          7           0        1.045610   -2.540926    3.274580
     48          1           0        0.906227   -2.757911    4.253649
     49          1           0        1.427073   -3.277055    2.695429
     50          8           0        0.883165   -0.313008    3.688329
     51          7           0        2.692756    1.383641   -0.722563
     52          1           0        2.787922    2.092609   -0.007550
     53          6           0        3.350309    1.625404   -2.002566
     54          1           0        3.281033    0.696587   -2.572505
     55          6           0        4.828169    1.947268   -1.830515
     56          6           0        2.686733    2.770443   -2.802020
     57          1           0        2.817051    3.716694   -2.262450
     58          1           0        3.231016    2.863946   -3.749843
     59          8           0        5.648863    1.823972   -2.706279
     60          6           0        1.195585    2.543406   -3.060869
     61          1           0        1.044385    1.598268   -3.598275
     62          1           0        0.670382    2.445203   -2.104054
     63          6           0        0.565433    3.687205   -3.868750
     64          1           0        1.036287    3.728036   -4.857873
     65          1           0       -0.499206    3.477954   -4.026770
     66          7           0        0.738350    5.004196   -3.241575
     67          1           0        1.215540    5.685777   -3.818970
     68          7           0       -1.069525    4.769208   -1.773629
     69          1           0       -1.742566    5.262103   -1.198340
     70          1           0       -0.538465    4.111754   -1.209131
     71          7           0       -0.464332    6.902325   -2.726852
     72          1           0       -1.159004    7.276303   -2.078090
     73          6           0       -0.297800    5.640841   -2.562685
     74          8           0        5.106466    2.466051   -0.606886
     75          1           0        6.053122    2.704884   -0.612528
 ---------------------------------------------------------------------

 SCF Done:  E(RB3LYP) =  -1917.45004119     A.U. after    2 cycles

 Alpha  occ. eigenvalues --  -19.27513 -19.27207 -19.26973 -19.25198 -19.24264
 Alpha  occ. eigenvalues --  -19.21299 -19.20575 -14.59552 -14.51338 -14.49355
 Alpha  occ. eigenvalues --  -14.49038 -14.47663 -14.45460 -14.39999 -14.39208
 Alpha  occ. eigenvalues --  -14.33194 -10.44455 -10.44201 -10.42552 -10.41794
 Alpha  occ. eigenvalues --  -10.40867 -10.39560 -10.38034 -10.35843 -10.35254
 Alpha  occ. eigenvalues --  -10.34580 -10.32778 -10.32066 -10.31598 -10.29296
 Alpha  occ. eigenvalues --  -10.28615 -10.27727 -10.27723 -10.27447 -10.27399
 Alpha  occ. eigenvalues --  -10.27285 -10.27141 -10.25988 -10.24865  -1.19695
 Alpha  occ. eigenvalues --   -1.18327  -1.18110  -1.16667  -1.15962  -1.14000
 Alpha  occ. eigenvalues --   -1.12685  -1.09165  -1.07820  -1.04783  -1.03926
 Alpha  occ. eigenvalues --   -1.03648  -1.02256  -1.01846  -0.95189  -0.94132
 Alpha  occ. eigenvalues --   -0.93635  -0.90877  -0.89305  -0.89258  -0.86748
 Alpha  occ. eigenvalues --   -0.84613  -0.82884  -0.82592  -0.81692  -0.79187
 Alpha  occ. eigenvalues --   -0.76070  -0.74841  -0.74478  -0.73957  -0.73824
 Alpha  occ. eigenvalues --   -0.71809  -0.71214  -0.70503  -0.68988  -0.68844
 Alpha  occ. eigenvalues --   -0.68126  -0.67737  -0.67680  -0.67156  -0.66720
 Alpha  occ. eigenvalues --   -0.65395  -0.64542  -0.64109  -0.63250  -0.62406
 Alpha  occ. eigenvalues --   -0.61331  -0.60644  -0.60571  -0.59475  -0.58532
 Alpha  occ. eigenvalues --   -0.58127  -0.57909  -0.57748  -0.57449  -0.56449
 Alpha  occ. eigenvalues --   -0.55907  -0.55447  -0.55052  -0.54824  -0.54551
 Alpha  occ. eigenvalues --   -0.54211  -0.53986  -0.53830  -0.53473  -0.52694
 Alpha  occ. eigenvalues --   -0.52267  -0.52027  -0.51374  -0.51156  -0.50907
 Alpha  occ. eigenvalues --   -0.50417  -0.49887  -0.49734  -0.49152  -0.48884
 Alpha  occ. eigenvalues --   -0.48775  -0.48208  -0.47748  -0.47032  -0.46736
 Alpha  occ. eigenvalues --   -0.46044  -0.45193  -0.44233  -0.43901  -0.42720
 Alpha  occ. eigenvalues --   -0.42516  -0.41942  -0.41588  -0.41322  -0.41174
 Alpha  occ. eigenvalues --   -0.41038  -0.40923  -0.40568  -0.40221  -0.39307
 Alpha  occ. eigenvalues --   -0.38877  -0.38455  -0.36840  -0.36302  -0.34528
 Alpha  occ. eigenvalues --   -0.33498  -0.33079  -0.32995  -0.31953  -0.30431
 Alpha  occ. eigenvalues --   -0.27249
 Alpha virt. eigenvalues --   -0.14575  -0.12406  -0.10838  -0.10189  -0.09560
 Alpha virt. eigenvalues --   -0.08776  -0.08692  -0.07192  -0.06369  -0.06163
 Alpha virt. eigenvalues --   -0.05054  -0.03946  -0.01958  -0.01827  -0.01546

 Mulliken charges:
               1
     1  N   -0.746150
     2  H    0.413687
     3  H    0.412552
     4  H    0.443794
     5  C   -0.127448
     6  H    0.209740
     7  C    0.656145
     8  C   -0.409291
     9  H    0.215497
    10  H    0.235832
    11  O   -0.534523
    12  C    0.631427
    13  N   -0.756972
    14  H    0.370974
    15  H    0.397835
    16  O   -0.547328
    17  N   -0.576104
    18  H    0.351106
    19  C   -0.087998
    20  H    0.213500
    21  C    0.645527
    22  C   -0.409372
    23  H    0.156322
    24  H    0.217750
    25  O   -0.512449
    26  C    0.186629
    27  C   -0.181402
    28  H    0.138088
    29  C   -0.206202
    30  H    0.118020
    31  C   -0.128928
    32  H    0.151548
    33  C   -0.131226
    34  H    0.144796
    35  C   -0.130807
    36  H    0.150319
    37  N   -0.607322
    38  H    0.355386
    39  C   -0.049564
    40  H    0.191390
    41  C    0.635641
    42  C   -0.410452
    43  H    0.216363
    44  H    0.189765
    45  O   -0.537829
    46  C    0.623995
    47  N   -0.746208
    48  H    0.352393
    49  H    0.364160
    50  O   -0.532930
    51  N   -0.593463
    52  H    0.352965
    53  C   -0.066516
    54  H    0.212527
    55  C    0.592236
    56  C   -0.269998
    57  H    0.163781
    58  H    0.170769
    59  O   -0.442411
    60  C   -0.272941
    61  H    0.151243
    62  H    0.136732
    63  C   -0.148211
    64  H    0.153603
    65  H    0.160178
    66  N   -0.577008
    67  H    0.337374
    68  N   -0.779380
    69  H    0.314983
    70  H    0.362970
    71  N   -0.627779
    72  H    0.264176
    73  C    0.542313
    74  O   -0.581949
    75  H    0.424133
 Sum of Mulliken charges =   1.00000

 Dipole moment (field-independent basis, Debye):
    X=            -11.0876    Y=             -6.6585    Z=             16.4295  Tot=             20.9093
 Quadrupole moment (field-independent basis, Debye-Ang):
   XX=           -139.2672   YY=           -221.9997   ZZ=           -173.2015
   XY=              8.0735   XZ=            -19.7611   YZ=            -13.8940

 Normal termination of Gaussian 16 at Tue May 31 12:28:13 2022.
