 Gaussian 16, Revision C.01,
 Gaussian 16:  ES64L-G16RevC.01  3-Jul-2019

 ----------------------------------------------------------------------
 # B3LYP/6-31G* empiricaldispersion=gd3 guess=read geom=check nosymm in
 tegral(ultrafinegrid)
 ----------------------------------------------------------------------

 ------------------------------------------------------
 Candidate Structure: Conf:669 Charge calc in gas phase
 ------------------------------------------------------
 Structure from the checkpoint file:  "conf-669.chk"
 Charge =  1 Multiplicity = 1

                          Input orientation:
 ---------------------------------------------------------------------
 Center     Atomic      Atomic             Coordinates (Angstroms)
 Number     Number       Type             X           Y           Z
 ---------------------------------------------------------------------
      1          7           0       -5.409297    2.398180    1.503853
      2          1           0       -5.554539    2.106620    0.523504
      3          1           0       -5.644394    1.591471    2.101421
      4          1           0       -5.967187    3.253334    1.745781
      5          6           0       -3.965900    2.741636    1.767152
      6          1           0       -3.620089    3.376031    0.948269
      7          6           0       -3.254973    1.376595    1.844066
      8          6           0       -3.855874    3.500770    3.095545
      9          1           0       -4.188834    2.849320    3.914536
     10          1           0       -2.797954    3.720913    3.260145
     11          8           0       -3.816668    0.469880    2.461427
     12          6           0       -4.706367    4.771207    3.099315
     13          7           0       -4.231546    5.819737    3.798830
     14          1           0       -4.805811    6.650608    3.871605
     15          1           0       -3.380348    5.776509    4.339033
     16          8           0       -5.791923    4.814609    2.507342
     17          7           0       -2.087735    1.297774    1.194313
     18          1           0       -1.773438    2.110566    0.646592
     19          6           0       -1.472560    0.025092    0.867648
     20          1           0       -1.685749   -0.672633    1.682053
     21          6           0        0.039758    0.258246    0.703383
     22          6           0       -2.041549   -0.552145   -0.491056
     23          1           0       -1.391539   -0.224719   -1.309475
     24          1           0       -1.964251   -1.643954   -0.452740
     25          8           0        0.558216    1.371306    0.879311
     26          6           0       -3.464555   -0.133481   -0.781664
     27          6           0       -4.560051   -0.866167   -0.305241
     28          1           0       -4.387071   -1.767769    0.275525
     29          6           0       -3.709758    1.038470   -1.512227
     30          1           0       -2.869851    1.609461   -1.900471
     31          6           0       -5.867036   -0.447513   -0.559704
     32          1           0       -6.702988   -1.038923   -0.197067
     33          6           0       -5.015388    1.469526   -1.767440
     34          1           0       -5.184375    2.367132   -2.356423
     35          6           0       -6.101897    0.722654   -1.292453
     36          1           0       -7.118945    1.035164   -1.514214
     37          7           0        0.741318   -0.773224    0.208891
     38          1           0        0.367560   -1.720132    0.153916
     39          6           0        1.991287   -0.533978   -0.506975
     40          1           0        2.743332   -0.138496    0.184761
     41          6           0        1.678418    0.474067   -1.650228
     42          6           0        2.485057   -1.839204   -1.169635
     43          1           0        3.498764   -1.672892   -1.547319
     44          1           0        1.834253   -2.035558   -2.028490
     45          8           0        0.829276    0.188790   -2.492128
     46          6           0        2.385682   -3.064939   -0.265056
     47          7           0        3.539343   -3.717625    0.012424
     48          1           0        3.486312   -4.573912    0.548874
     49          1           0        4.419710   -3.477431   -0.417808
     50          8           0        1.295886   -3.432004    0.177230
     51          7           0        2.375224    1.632098   -1.649544
     52          1           0        2.991334    1.836762   -0.874893
     53          6           0        2.227018    2.649426   -2.686384
     54          1           0        1.860390    2.139971   -3.582884
     55          6           0        3.566203    3.282195   -3.059496
     56          6           0        1.228340    3.769072   -2.298301
     57          1           0        1.477053    4.095073   -1.279282
     58          1           0        1.405867    4.628026   -2.952625
     59          8           0        3.695034    4.059561   -3.973479
     60          6           0       -0.253537    3.343930   -2.395558
     61          1           0       -0.603226    3.494002   -3.422815
     62          1           0       -0.356471    2.271178   -2.196828
     63          6           0       -1.156654    4.123747   -1.431799
     64          1           0       -0.977930    5.203633   -1.494193
     65          1           0       -2.212910    3.965123   -1.676246
     66          7           0       -0.894262    3.647118   -0.065375
     67          1           0       -0.046570    3.092246    0.008615
     68          7           0       -0.272735    4.137320    2.102395
     69          1           0       -0.467219    4.547301    3.003368
     70          1           0        0.133816    3.206907    2.114877
     71          7           0       -1.987800    5.403845    0.979322
     72          1           0       -2.031051    5.939777    1.846973
     73          6           0       -1.092219    4.479508    1.037391
     74          8           0        4.579594    2.915674   -2.237711
     75          1           0        5.374360    3.393401   -2.544255
 ---------------------------------------------------------------------

 SCF Done:  E(RB3LYP) =  -1917.47696344     A.U. after    1 cycles

 Alpha  occ. eigenvalues --  -19.28820 -19.25060 -19.23671 -19.23177 -19.22482
 Alpha  occ. eigenvalues --  -19.21177 -19.20971 -14.55516 -14.48701 -14.46883
 Alpha  occ. eigenvalues --  -14.46155 -14.45821 -14.45361 -14.44389 -14.43930
 Alpha  occ. eigenvalues --  -14.37972 -10.42681 -10.40924 -10.40846 -10.39895
 Alpha  occ. eigenvalues --  -10.38897 -10.38567 -10.37890 -10.37874 -10.34535
 Alpha  occ. eigenvalues --  -10.34411 -10.33695 -10.33215 -10.30469 -10.30024
 Alpha  occ. eigenvalues --  -10.29925 -10.29632 -10.29506 -10.29391 -10.29310
 Alpha  occ. eigenvalues --  -10.29255 -10.29000 -10.28131 -10.27451  -1.19441
 Alpha  occ. eigenvalues --   -1.16936  -1.15959  -1.14956  -1.13093  -1.12759
 Alpha  occ. eigenvalues --   -1.10433  -1.10368  -1.07243  -1.04260  -1.03555
 Alpha  occ. eigenvalues --   -1.02887  -1.02463  -0.99996  -0.98023  -0.95928
 Alpha  occ. eigenvalues --   -0.93789  -0.92012  -0.90042  -0.88644  -0.87513
 Alpha  occ. eigenvalues --   -0.84677  -0.84550  -0.83612  -0.80553  -0.77988
 Alpha  occ. eigenvalues --   -0.76583  -0.75742  -0.72928  -0.71350  -0.71006
 Alpha  occ. eigenvalues --   -0.70712  -0.70458  -0.69589  -0.69165  -0.68864
 Alpha  occ. eigenvalues --   -0.68512  -0.68442  -0.68042  -0.67376  -0.66473
 Alpha  occ. eigenvalues --   -0.64458  -0.63261  -0.63011  -0.62568  -0.61788
 Alpha  occ. eigenvalues --   -0.61631  -0.61195  -0.60979  -0.60048  -0.58796
 Alpha  occ. eigenvalues --   -0.58368  -0.57445  -0.57034  -0.56608  -0.56143
 Alpha  occ. eigenvalues --   -0.55917  -0.55679  -0.55301  -0.55101  -0.54890
 Alpha  occ. eigenvalues --   -0.54286  -0.53908  -0.53558  -0.53304  -0.52474
 Alpha  occ. eigenvalues --   -0.52292  -0.52021  -0.51624  -0.51410  -0.50964
 Alpha  occ. eigenvalues --   -0.50734  -0.50266  -0.49560  -0.49449  -0.49257
 Alpha  occ. eigenvalues --   -0.48762  -0.48479  -0.48100  -0.47648  -0.46933
 Alpha  occ. eigenvalues --   -0.46428  -0.45912  -0.45756  -0.45382  -0.44159
 Alpha  occ. eigenvalues --   -0.44099  -0.43608  -0.43288  -0.43040  -0.40312
 Alpha  occ. eigenvalues --   -0.39896  -0.39281  -0.38318  -0.37787  -0.37395
 Alpha  occ. eigenvalues --   -0.37127  -0.37008  -0.36129  -0.35967  -0.35512
 Alpha  occ. eigenvalues --   -0.35254  -0.34892  -0.34715  -0.34560  -0.33653
 Alpha  occ. eigenvalues --   -0.32248
 Alpha virt. eigenvalues --   -0.11954  -0.10985  -0.10689  -0.09559  -0.09322
 Alpha virt. eigenvalues --   -0.08326  -0.07818  -0.06987  -0.06240  -0.04055
 Alpha virt. eigenvalues --   -0.03536  -0.02304  -0.02018  -0.01411  -0.01137

 Mulliken charges:
               1
     1  N   -0.767035
     2  H    0.411409
     3  H    0.403215
     4  H    0.433825
     5  C   -0.130048
     6  H    0.237154
     7  C    0.636223
     8  C   -0.390234
     9  H    0.216260
    10  H    0.178973
    11  O   -0.540062
    12  C    0.661895
    13  N   -0.736923
    14  H    0.377282
    15  H    0.356633
    16  O   -0.534548
    17  N   -0.630045
    18  H    0.411402
    19  C   -0.061877
    20  H    0.211810
    21  C    0.626098
    22  C   -0.412776
    23  H    0.210928
    24  H    0.180019
    25  O   -0.568825
    26  C    0.164645
    27  C   -0.153401
    28  H    0.157236
    29  C   -0.193172
    30  H    0.160173
    31  C   -0.139474
    32  H    0.161792
    33  C   -0.172139
    34  H    0.161145
    35  C   -0.185867
    36  H    0.162005
    37  N   -0.605789
    38  H    0.385635
    39  C   -0.019028
    40  H    0.166932
    41  C    0.625897
    42  C   -0.406939
    43  H    0.165720
    44  H    0.223019
    45  O   -0.533013
    46  C    0.619471
    47  N   -0.740260
    48  H    0.362473
    49  H    0.353540
    50  O   -0.520429
    51  N   -0.588551
    52  H    0.351939
    53  C   -0.065619
    54  H    0.219690
    55  C    0.588913
    56  C   -0.280436
    57  H    0.146852
    58  H    0.192455
    59  O   -0.439584
    60  C   -0.333655
    61  H    0.168450
    62  H    0.176776
    63  C   -0.100060
    64  H    0.178611
    65  H    0.146763
    66  N   -0.682020
    67  H    0.380396
    68  N   -0.782842
    69  H    0.321709
    70  H    0.367312
    71  N   -0.657235
    72  H    0.265175
    73  C    0.595480
    74  O   -0.578903
    75  H    0.427457
 Sum of Mulliken charges =   1.00000

 Dipole moment (field-independent basis, Debye):
    X=             -5.7430    Y=              8.6395    Z=              7.1117  Tot=             12.5778
 Quadrupole moment (field-independent basis, Debye-Ang):
   XX=           -112.7594   YY=           -168.3362   ZZ=           -198.8268
   XY=            -47.2782   XZ=            -27.8944   YZ=             44.1070

 Normal termination of Gaussian 16 at Tue May 31 12:47:32 2022.
