 Gaussian 16, Revision C.01,
 Gaussian 16:  ES64L-G16RevC.01  3-Jul-2019

 ----------------------------------------------------------------------
 # B3LYP/6-31G* empiricaldispersion=gd3 guess=read geom=check nosymm in
 tegral(ultrafinegrid)
 ----------------------------------------------------------------------

 ------------------------------------------------------
 Candidate Structure: Conf:772 Charge calc in gas phase
 ------------------------------------------------------
 Structure from the checkpoint file:  "conf-772.chk"
 Charge =  1 Multiplicity = 1

                          Input orientation:
 ---------------------------------------------------------------------
 Center     Atomic      Atomic             Coordinates (Angstroms)
 Number     Number       Type             X           Y           Z
 ---------------------------------------------------------------------
      1          7           0       -5.379824   -2.001832   -2.828933
      2          1           0       -5.757210   -1.097834   -2.477256
      3          1           0       -5.008441   -1.809661   -3.827670
      4          1           0       -6.093390   -2.731589   -2.807689
      5          6           0       -4.173526   -2.294939   -1.973976
      6          1           0       -4.356253   -3.216282   -1.414673
      7          6           0       -4.070089   -1.090652   -1.003191
      8          6           0       -2.900362   -2.463165   -2.847156
      9          1           0       -2.011741   -2.380879   -2.216097
     10          1           0       -2.899373   -3.470097   -3.279964
     11          8           0       -4.719841   -0.075832   -1.239388
     12          6           0       -2.837308   -1.490427   -4.029914
     13          7           0       -1.677638   -0.886359   -4.265125
     14          1           0       -1.624479   -0.278157   -5.073811
     15          1           0       -0.864938   -0.962480   -3.641290
     16          8           0       -3.846602   -1.341909   -4.751301
     17          7           0       -3.238651   -1.245898    0.043800
     18          1           0       -2.797270   -2.143905    0.200140
     19          6           0       -2.894640   -0.135095    0.944329
     20          1           0       -3.799010    0.447356    1.128508
     21          6           0       -1.885365    0.839338    0.311030
     22          6           0       -2.337307   -0.719264    2.269618
     23          1           0       -3.168708   -1.194061    2.805262
     24          1           0       -1.618538   -1.513076    2.023206
     25          8           0       -1.902259    2.029541    0.585292
     26          6           0       -1.643082    0.309385    3.137886
     27          6           0       -0.262042    0.235347    3.347340
     28          1           0        0.303316   -0.593510    2.926960
     29          6           0       -2.356290    1.376617    3.698708
     30          1           0       -3.429456    1.450595    3.542154
     31          6           0        0.402052    1.216580    4.090115
     32          1           0        1.473291    1.135654    4.254973
     33          6           0       -1.699208    2.357745    4.437549
     34          1           0       -2.264821    3.181942    4.861976
     35          6           0       -0.316105    2.284114    4.631505
     36          1           0        0.192866    3.044806    5.216908
     37          7           0       -0.938636    0.266940   -0.475264
     38          1           0       -0.937851   -0.717768   -0.701021
     39          6           0        0.201747    1.019746   -0.948551
     40          1           0       -0.153047    1.967182   -1.369207
     41          6           0        0.868067    0.187555   -2.054060
     42          6           0        1.188533    1.323616    0.219426
     43          1           0        1.958377    0.543600    0.264516
     44          1           0        0.625793    1.302212    1.152721
     45          8           0        0.410211   -0.928254   -2.383053
     46          6           0        1.885194    2.662795    0.045690
     47          7           0        1.913648    3.456752    1.137275
     48          1           0        2.340057    4.370722    1.056874
     49          1           0        1.370296    3.246544    1.963579
     50          8           0        2.405112    2.990919   -1.027505
     51          7           0        1.963548    0.726806   -2.591948
     52          1           0        2.297760    1.606580   -2.166829
     53          6           0        2.907482   -0.078492   -3.345926
     54          1           0        2.374392   -0.623540   -4.132139
     55          6           0        3.529010   -1.122358   -2.407356
     56          6           0        3.995675    0.811190   -3.972413
     57          1           0        4.528601    1.335320   -3.167227
     58          1           0        4.724659    0.156976   -4.461360
     59          8           0        3.404593   -1.146989   -1.203137
     60          6           0        3.440101    1.828341   -4.975323
     61          1           0        2.899250    1.291248   -5.770005
     62          1           0        2.713977    2.490731   -4.489458
     63          6           0        4.559645    2.676280   -5.581780
     64          1           0        5.080979    3.233712   -4.799149
     65          1           0        5.317524    2.031967   -6.055756
     66          7           0        4.015621    3.650209   -6.520391
     67          1           0        3.455926    3.233625   -7.257910
     68          7           0        4.273862    5.380496   -8.035790
     69          1           0        4.801180    6.200286   -8.311076
     70          1           0        3.299813    5.609389   -7.865436
     71          7           0        6.060423    4.760328   -6.533877
     72          1           0        6.523746    5.591032   -6.905098
     73          6           0        4.875316    4.638241   -7.006747
     74          8           0        4.260211   -2.012667   -3.105075
     75          1           0        4.662846   -2.627347   -2.462467
 ---------------------------------------------------------------------

 SCF Done:  E(RB3LYP) =  -1917.45523208     A.U. after    2 cycles

 Alpha  occ. eigenvalues --  -19.28292 -19.27176 -19.25981 -19.23203 -19.22803
 Alpha  occ. eigenvalues --  -19.21025 -19.20916 -14.57020 -14.51077 -14.48050
 Alpha  occ. eigenvalues --  -14.45941 -14.45062 -14.44673 -14.39357 -14.39300
 Alpha  occ. eigenvalues --  -14.32964 -10.44200 -10.43392 -10.41495 -10.40675
 Alpha  occ. eigenvalues --  -10.39612 -10.38453 -10.38355 -10.35691 -10.35107
 Alpha  occ. eigenvalues --  -10.33769 -10.32813 -10.32423 -10.30829 -10.28723
 Alpha  occ. eigenvalues --  -10.28604 -10.27628 -10.27455 -10.27330 -10.27280
 Alpha  occ. eigenvalues --  -10.27258 -10.27110 -10.26623 -10.25685  -1.19547
 Alpha  occ. eigenvalues --   -1.19252  -1.17599  -1.14614  -1.13218  -1.12408
 Alpha  occ. eigenvalues --   -1.11867  -1.10317  -1.07370  -1.03736  -1.02683
 Alpha  occ. eigenvalues --   -1.02451  -1.02023  -0.99464  -0.94694  -0.93751
 Alpha  occ. eigenvalues --   -0.93478  -0.90079  -0.89017  -0.88532  -0.86436
 Alpha  occ. eigenvalues --   -0.84310  -0.82807  -0.81835  -0.81775  -0.78478
 Alpha  occ. eigenvalues --   -0.75883  -0.74107  -0.73950  -0.73411  -0.73336
 Alpha  occ. eigenvalues --   -0.71056  -0.69721  -0.69285  -0.68900  -0.68310
 Alpha  occ. eigenvalues --   -0.67187  -0.66980  -0.66884  -0.66272  -0.65577
 Alpha  occ. eigenvalues --   -0.63585  -0.63266  -0.62816  -0.62466  -0.61647
 Alpha  occ. eigenvalues --   -0.60093  -0.59624  -0.59619  -0.58617  -0.58507
 Alpha  occ. eigenvalues --   -0.58275  -0.57743  -0.57260  -0.56341  -0.55948
 Alpha  occ. eigenvalues --   -0.55524  -0.55107  -0.54664  -0.54332  -0.54201
 Alpha  occ. eigenvalues --   -0.54054  -0.53661  -0.53337  -0.53056  -0.52741
 Alpha  occ. eigenvalues --   -0.52129  -0.51543  -0.50907  -0.50302  -0.50209
 Alpha  occ. eigenvalues --   -0.49885  -0.49554  -0.49485  -0.49176  -0.48650
 Alpha  occ. eigenvalues --   -0.47978  -0.47915  -0.47174  -0.46755  -0.46569
 Alpha  occ. eigenvalues --   -0.44544  -0.44346  -0.44059  -0.43299  -0.42914
 Alpha  occ. eigenvalues --   -0.42905  -0.42428  -0.41382  -0.41233  -0.41016
 Alpha  occ. eigenvalues --   -0.40631  -0.40246  -0.40108  -0.39996  -0.37568
 Alpha  occ. eigenvalues --   -0.36962  -0.36210  -0.35726  -0.35521  -0.34684
 Alpha  occ. eigenvalues --   -0.34344  -0.33239  -0.32641  -0.31046  -0.29968
 Alpha  occ. eigenvalues --   -0.27582
 Alpha virt. eigenvalues --   -0.13206  -0.11823  -0.09371  -0.09202  -0.08760
 Alpha virt. eigenvalues --   -0.08657  -0.07941  -0.07548  -0.06534  -0.06291
 Alpha virt. eigenvalues --   -0.04205  -0.01333  -0.00839  -0.00509  -0.00406

 Mulliken charges:
               1
     1  N   -0.777197
     2  H    0.423937
     3  H    0.451906
     4  H    0.402465
     5  C   -0.110606
     6  H    0.209311
     7  C    0.644305
     8  C   -0.394717
     9  H    0.202753
    10  H    0.222690
    11  O   -0.495929
    12  C    0.633493
    13  N   -0.763463
    14  H    0.366758
    15  H    0.428365
    16  O   -0.554603
    17  N   -0.626633
    18  H    0.345549
    19  C   -0.047395
    20  H    0.212064
    21  C    0.646397
    22  C   -0.389093
    23  H    0.184102
    24  H    0.142065
    25  O   -0.507546
    26  C    0.167868
    27  C   -0.197754
    28  H    0.134447
    29  C   -0.146559
    30  H    0.138180
    31  C   -0.146033
    32  H    0.149991
    33  C   -0.123489
    34  H    0.154293
    35  C   -0.138019
    36  H    0.151152
    37  N   -0.633462
    38  H    0.333287
    39  C   -0.029183
    40  H    0.212524
    41  C    0.615465
    42  C   -0.421932
    43  H    0.217629
    44  H    0.196940
    45  O   -0.604377
    46  C    0.637725
    47  N   -0.740268
    48  H    0.360151
    49  H    0.362033
    50  O   -0.534685
    51  N   -0.608080
    52  H    0.412598
    53  C   -0.040057
    54  H    0.180330
    55  C    0.602079
    56  C   -0.307470
    57  H    0.168863
    58  H    0.181187
    59  O   -0.466509
    60  C   -0.279568
    61  H    0.123489
    62  H    0.161517
    63  C   -0.098641
    64  H    0.185158
    65  H    0.145282
    66  N   -0.611840
    67  H    0.313171
    68  N   -0.756814
    69  H    0.325054
    70  H    0.323750
    71  N   -0.642281
    72  H    0.271864
    73  C    0.587457
    74  O   -0.559705
    75  H    0.424265
 Sum of Mulliken charges =   1.00000

 Dipole moment (field-independent basis, Debye):
    X=            -11.4060    Y=             -6.3547    Z=             -7.0233  Tot=             14.8258
 Quadrupole moment (field-independent basis, Debye-Ang):
   XX=           -154.9978   YY=           -168.7994   ZZ=           -161.0970
   XY=             45.9593   XZ=             21.4172   YZ=              9.8143

 Normal termination of Gaussian 16 at Tue May 31 12:47:36 2022.
