 Gaussian 16, Revision C.01,
 Gaussian 16:  ES64L-G16RevC.01  3-Jul-2019

 ----------------------------------------------------------------------
 # B3LYP/6-31G* empiricaldispersion=gd3 guess=read geom=check nosymm in
 tegral(ultrafinegrid)
 ----------------------------------------------------------------------

 ------------------------------------------------------
 Candidate Structure: Conf:549 Charge calc in gas phase
 ------------------------------------------------------
 Structure from the checkpoint file:  "conf-549.chk"
 Charge =  1 Multiplicity = 1

                          Input orientation:
 ---------------------------------------------------------------------
 Center     Atomic      Atomic             Coordinates (Angstroms)
 Number     Number       Type             X           Y           Z
 ---------------------------------------------------------------------
      1          7           0       -5.710462   -0.326324    4.045010
      2          1           0       -6.446703   -0.640069    3.415907
      3          1           0       -5.156074   -1.150086    4.283173
      4          6           0       -4.846153    0.627982    3.375209
      5          1           0       -5.460755    1.331548    2.806373
      6          6           0       -3.796609   -0.034315    2.452728
      7          6           0       -4.083507    1.446566    4.495656
      8          1           0       -4.683409    2.317786    4.768307
      9          1           0       -3.970311    0.812497    5.377585
     10          8           0       -3.154112   -1.009076    2.836386
     11          6           0       -2.758801    1.878837    3.965180
     12          7           0       -1.651101    1.286675    4.371389
     13          1           0       -1.701221    0.487559    4.990982
     14          1           0       -0.790214    1.428154    3.848593
     15          8           0       -2.743313    2.730697    3.000398
     16          7           0       -3.582860    0.591512    1.267494
     17          1           0       -4.077410    1.455638    1.075458
     18          6           0       -2.482655    0.273490    0.378856
     19          1           0       -2.459484   -0.811143    0.237431
     20          6           0       -1.116613    0.689293    0.943757
     21          6           0       -2.695242    0.962733   -1.009155
     22          1           0       -1.760975    0.872157   -1.570497
     23          1           0       -3.464240    0.388228   -1.535492
     24          8           0       -0.930841    1.707267    1.670516
     25          6           0       -3.114868    2.413726   -0.894873
     26          6           0       -4.476303    2.757258   -0.906417
     27          1           0       -5.222442    1.983607   -1.079618
     28          6           0       -2.163705    3.430018   -0.718786
     29          1           0       -1.108753    3.179765   -0.740508
     30          6           0       -4.882917    4.081950   -0.726413
     31          1           0       -5.940271    4.330473   -0.746747
     32          6           0       -2.571593    4.752105   -0.541548
     33          1           0       -1.823723    5.530077   -0.411602
     34          6           0       -3.929222    5.082277   -0.536924
     35          1           0       -4.240950    6.113783   -0.399824
     36          7           0       -0.099703   -0.069742    0.559650
     37          1           0       -0.241105   -0.841798   -0.102836
     38          6           0        1.288220    0.360206    0.628244
     39          1           0        1.484220    0.779154    1.619626
     40          6           0        1.532057    1.462917   -0.443599
     41          6           0        2.206974   -0.859809    0.376440
     42          1           0        1.998345   -1.619615    1.137081
     43          1           0        3.256717   -0.574861    0.469358
     44          8           0        0.647620    1.808946   -1.218299
     45          6           0        1.921117   -1.484367   -0.993697
     46          7           0        2.955609   -1.521856   -1.854395
     47          1           0        2.777647   -1.889163   -2.781254
     48          1           0        3.807480   -0.979609   -1.689874
     49          8           0        0.788400   -1.909639   -1.257917
     50          7           0        2.795158    1.960566   -0.440560
     51          1           0        3.491289    1.422027    0.068240
     52          6           0        3.397038    2.528878   -1.649929
     53          1           0        2.615505    2.581326   -2.412783
     54          6           0        4.487484    1.513021   -2.122796
     55          6           0        3.926531    3.961818   -1.358227
     56          1           0        3.227774    4.387250   -0.632630
     57          1           0        4.891876    3.894185   -0.838477
     58          8           0        4.935622    1.665869   -3.301018
     59          6           0        4.030333    4.939092   -2.559480
     60          1           0        3.441712    4.568562   -3.407575
     61          1           0        3.580326    5.899705   -2.286253
     62          6           0        5.454963    5.243012   -3.051883
     63          1           0        5.419523    6.011076   -3.834727
     64          1           0        6.065113    5.632120   -2.226488
     65          7           0        6.061533    4.016354   -3.566592
     66          1           0        5.413777    3.204219   -3.675005
     67          7           0        8.309850    4.553791   -3.247043
     68          1           0        9.260346    4.260591   -3.077632
     69          1           0        8.166815    5.510654   -3.533256
     70          7           0        7.612506    2.331114   -3.426562
     71          1           0        8.541589    1.992512   -3.624845
     72          1           0        6.813875    1.679723   -3.394253
     73          6           0        7.327535    3.639683   -3.425281
     74          8           0        4.837622    0.624834   -1.312072
     75          1           0       -1.966684    2.462726    2.309289
 ---------------------------------------------------------------------

 SCF Done:  E(RB3LYP) =  -1917.47432201     A.U. after    1 cycles

 Alpha  occ. eigenvalues --  -19.31010 -19.25467 -19.21927 -19.20341 -19.19200
 Alpha  occ. eigenvalues --  -19.17834 -19.17266 -14.52014 -14.48585 -14.46354
 Alpha  occ. eigenvalues --  -14.46311 -14.46305 -14.45677 -14.43175 -14.42307
 Alpha  occ. eigenvalues --  -14.41451 -10.45912 -10.43519 -10.40738 -10.38654
 Alpha  occ. eigenvalues --  -10.37208 -10.36856 -10.35405 -10.34208 -10.34053
 Alpha  occ. eigenvalues --  -10.33564 -10.32449 -10.32386 -10.29865 -10.28800
 Alpha  occ. eigenvalues --  -10.28321 -10.28046 -10.27565 -10.27247 -10.26717
 Alpha  occ. eigenvalues --  -10.26511 -10.26310 -10.26256 -10.25808  -1.22521
 Alpha  occ. eigenvalues --   -1.15897  -1.13775  -1.12318  -1.12103  -1.10703
 Alpha  occ. eigenvalues --   -1.10664  -1.07648  -1.03646  -1.03037  -1.02643
 Alpha  occ. eigenvalues --   -1.01263  -1.00198  -0.99891  -0.99318  -0.97431
 Alpha  occ. eigenvalues --   -0.93178  -0.89624  -0.89248  -0.88057  -0.86635
 Alpha  occ. eigenvalues --   -0.82630  -0.82195  -0.81766  -0.78300  -0.77412
 Alpha  occ. eigenvalues --   -0.75891  -0.75049  -0.74060  -0.72685  -0.72048
 Alpha  occ. eigenvalues --   -0.70091  -0.69476  -0.68882  -0.68290  -0.67952
 Alpha  occ. eigenvalues --   -0.67638  -0.66494  -0.66164  -0.65903  -0.65445
 Alpha  occ. eigenvalues --   -0.64051  -0.62893  -0.61505  -0.61452  -0.61087
 Alpha  occ. eigenvalues --   -0.60672  -0.60366  -0.59834  -0.58528  -0.58246
 Alpha  occ. eigenvalues --   -0.57733  -0.56515  -0.56357  -0.55887  -0.55677
 Alpha  occ. eigenvalues --   -0.54554  -0.54394  -0.54067  -0.53858  -0.53462
 Alpha  occ. eigenvalues --   -0.52850  -0.52331  -0.51973  -0.51641  -0.51445
 Alpha  occ. eigenvalues --   -0.51336  -0.50908  -0.50178  -0.49445  -0.48950
 Alpha  occ. eigenvalues --   -0.48740  -0.48310  -0.48232  -0.47960  -0.47634
 Alpha  occ. eigenvalues --   -0.47527  -0.47367  -0.46954  -0.46621  -0.46120
 Alpha  occ. eigenvalues --   -0.45608  -0.44639  -0.44561  -0.44422  -0.43634
 Alpha  occ. eigenvalues --   -0.43258  -0.43071  -0.41778  -0.41450  -0.41054
 Alpha  occ. eigenvalues --   -0.39851  -0.39115  -0.37904  -0.36850  -0.36300
 Alpha  occ. eigenvalues --   -0.35827  -0.35529  -0.34258  -0.33896  -0.33338
 Alpha  occ. eigenvalues --   -0.33190  -0.32834  -0.32564  -0.31996  -0.31546
 Alpha  occ. eigenvalues --   -0.31244
 Alpha virt. eigenvalues --   -0.15251  -0.10280  -0.08724  -0.08122  -0.07790
 Alpha virt. eigenvalues --   -0.07656  -0.06904  -0.05317  -0.04463  -0.04363
 Alpha virt. eigenvalues --   -0.03484  -0.01293  -0.00950  -0.00617   0.01240

 Mulliken charges:
               1
     1  N   -0.699279
     2  H    0.326396
     3  H    0.325721
     4  C   -0.057404
     5  H    0.167361
     6  C    0.563740
     7  C   -0.324473
     8  H    0.225116
     9  H    0.188903
    10  O   -0.532659
    11  C    0.582543
    12  N   -0.669519
    13  H    0.392524
    14  H    0.392869
    15  O   -0.558782
    16  N   -0.607395
    17  H    0.359073
    18  C   -0.064177
    19  H    0.201363
    20  C    0.687461
    21  C   -0.385035
    22  H    0.216522
    23  H    0.177834
    24  O   -0.653568
    25  C    0.116207
    26  C   -0.215900
    27  H    0.138362
    28  C   -0.187762
    29  H    0.187071
    30  C   -0.125386
    31  H    0.146764
    32  C   -0.134416
    33  H    0.140082
    34  C   -0.126398
    35  H    0.146657
    36  N   -0.577956
    37  H    0.402482
    38  C   -0.090858
    39  H    0.178770
    40  C    0.617870
    41  C   -0.394123
    42  H    0.195763
    43  H    0.190817
    44  O   -0.512582
    45  C    0.599443
    46  N   -0.757097
    47  H    0.350334
    48  H    0.403940
    49  O   -0.536301
    50  N   -0.583270
    51  H    0.345402
    52  C   -0.087825
    53  H    0.190690
    54  C    0.603718
    55  C   -0.272985
    56  H    0.168490
    57  H    0.144728
    58  O   -0.612211
    59  C   -0.307257
    60  H    0.173930
    61  H    0.165450
    62  C   -0.149319
    63  H    0.170682
    64  H    0.164502
    65  N   -0.609284
    66  H    0.411839
    67  N   -0.756707
    68  H    0.368816
    69  H    0.374879
    70  N   -0.776516
    71  H    0.355565
    72  H    0.415931
    73  C    0.774809
    74  O   -0.580361
    75  H    0.495386
 Sum of Mulliken charges =   1.00000

 Dipole moment (field-independent basis, Debye):
    X=              9.7975    Y=             14.7287    Z=              2.6163  Tot=             17.8821
 Quadrupole moment (field-independent basis, Debye-Ang):
   XX=            -26.3740   YY=           -159.4059   ZZ=           -163.2462
   XY=             68.3499   XZ=            -79.7409   YZ=            -23.5226

 Normal termination of Gaussian 16 at Tue May 31 12:47:27 2022.
