 Gaussian 16, Revision C.01,
 Gaussian 16:  ES64L-G16RevC.01  3-Jul-2019

 ----------------------------------------------------------------------
 # B3LYP/6-31G* empiricaldispersion=gd3 guess=read geom=check nosymm in
 tegral(ultrafinegrid)
 ----------------------------------------------------------------------

 ------------------------------------------------------
 Candidate Structure: Conf:950 Charge calc in gas phase
 ------------------------------------------------------
 Structure from the checkpoint file:  "conf-950.chk"
 Charge =  1 Multiplicity = 1

                          Input orientation:
 ---------------------------------------------------------------------
 Center     Atomic      Atomic             Coordinates (Angstroms)
 Number     Number       Type             X           Y           Z
 ---------------------------------------------------------------------
      1          7           0       -4.213250   -1.231629    3.927891
      2          1           0       -5.068610   -1.443333    3.416618
      3          1           0       -3.510391   -1.932494    3.647158
      4          6           0       -3.696213    0.085694    3.517432
      5          1           0       -4.470623    0.839775    3.705809
      6          6           0       -3.320566    0.077945    2.013348
      7          6           0       -2.440746    0.400719    4.374041
      8          1           0       -1.666961   -0.344409    4.123275
      9          1           0       -2.030980    1.391778    4.169776
     10          8           0       -3.465988   -0.960786    1.373465
     11          6           0       -2.663715    0.290853    5.850314
     12          7           0       -3.567404   -0.514040    6.319971
     13          1           0       -4.100373   -1.040416    5.512335
     14          1           0       -3.729882   -0.650625    7.313152
     15          8           0       -1.861498    1.033129    6.585972
     16          7           0       -2.778922    1.210037    1.504067
     17          1           0       -2.650894    2.017554    2.100403
     18          6           0       -2.033710    1.200986    0.231281
     19          1           0       -2.494345    0.439558   -0.401312
     20          6           0       -0.590878    0.712953    0.486289
     21          6           0       -2.086796    2.546487   -0.489718
     22          1           0       -1.795549    3.356214    0.192444
     23          1           0       -1.315107    2.515293   -1.265321
     24          8           0        0.412672    1.370753    0.231094
     25          6           0       -3.446212    2.796551   -1.103559
     26          6           0       -3.866744    2.007173   -2.185743
     27          1           0       -3.201483    1.240004   -2.580046
     28          6           0       -4.307087    3.779019   -0.606120
     29          1           0       -3.985338    4.403925    0.225234
     30          6           0       -5.126442    2.201300   -2.750210
     31          1           0       -5.440686    1.584892   -3.588300
     32          6           0       -5.568924    3.976175   -1.173283
     33          1           0       -6.224885    4.748342   -0.779619
     34          6           0       -5.981977    3.185611   -2.245891
     35          1           0       -6.962169    3.337224   -2.689859
     36          7           0       -0.566151   -0.531165    1.053831
     37          1           0       -1.397173   -1.079091    0.843278
     38          6           0        0.654919   -1.323023    1.149143
     39          1           0        1.476982   -0.627080    1.336529
     40          6           0        0.865444   -2.016275   -0.222954
     41          6           0        0.539900   -2.317007    2.330664
     42          1           0        0.863639   -1.829473    3.251954
     43          1           0        1.187199   -3.178422    2.138911
     44          8           0        0.535600   -3.191913   -0.400962
     45          6           0       -0.900021   -2.779270    2.566476
     46          7           0       -1.412499   -3.571291    1.610484
     47          1           0       -2.403619   -3.773444    1.623064
     48          1           0       -0.863938   -3.732087    0.761197
     49          8           0       -1.548687   -2.395325    3.556783
     50          7           0        1.394427   -1.198926   -1.175140
     51          1           0        1.478531   -0.237239   -0.856247
     52          6           0        1.018306   -1.267750   -2.595979
     53          1           0        1.685751   -0.564028   -3.109778
     54          6           0       -0.439683   -0.723057   -2.782784
     55          6           0        1.266649   -2.669336   -3.200190
     56          1           0        2.183810   -3.049319   -2.742764
     57          1           0        0.475398   -3.356259   -2.884142
     58          8           0       -0.729005   -0.264211   -3.933909
     59          6           0        1.453760   -2.686603   -4.729566
     60          1           0        2.044000   -1.811263   -5.029936
     61          1           0        2.043349   -3.566425   -5.013897
     62          6           0        0.143025   -2.699136   -5.537838
     63          1           0       -0.259573   -3.711499   -5.621020
     64          1           0       -0.623898   -2.084903   -5.064946
     65          7           0        0.338149   -2.206581   -6.913915
     66          1           0        0.659832   -2.872406   -7.603556
     67          7           0        0.396664    0.022360   -6.264253
     68          1           0        0.434221    0.992913   -6.546716
     69          1           0        0.035845   -0.150290   -5.252901
     70          7           0        0.897874   -0.575007   -8.465658
     71          1           0        0.865254    0.394214   -8.747406
     72          1           0        0.744405   -1.237771   -9.212558
     73          6           0        0.526798   -0.905455   -7.197055
     74          8           0       -1.203888   -0.764939   -1.805459
     75          1           0       -1.972234    0.892589    7.545294
 ---------------------------------------------------------------------

 SCF Done:  E(RB3LYP) =  -1917.45001174     A.U. after    1 cycles

 Alpha  occ. eigenvalues --  -19.36949 -19.21083 -19.20002 -19.19174 -19.18683
 Alpha  occ. eigenvalues --  -19.15013 -19.13991 -14.52155 -14.48020 -14.47517
 Alpha  occ. eigenvalues --  -14.45490 -14.44989 -14.44710 -14.42326 -14.42189
 Alpha  occ. eigenvalues --  -14.41294 -10.48122 -10.43371 -10.38379 -10.36992
 Alpha  occ. eigenvalues --  -10.35651 -10.35359 -10.35296 -10.33357 -10.32362
 Alpha  occ. eigenvalues --  -10.30870 -10.30283 -10.29683 -10.28131 -10.27036
 Alpha  occ. eigenvalues --  -10.26097 -10.25002 -10.24718 -10.24451 -10.23765
 Alpha  occ. eigenvalues --  -10.23672 -10.23472 -10.23418 -10.23009  -1.26530
 Alpha  occ. eigenvalues --   -1.13255  -1.11894  -1.11082  -1.10727  -1.09844
 Alpha  occ. eigenvalues --   -1.09561  -1.07775  -1.01680  -1.01511  -1.01283
 Alpha  occ. eigenvalues --   -0.99989  -0.99581  -0.98730  -0.97977  -0.97286
 Alpha  occ. eigenvalues --   -0.91234  -0.90248  -0.86704  -0.85989  -0.84408
 Alpha  occ. eigenvalues --   -0.81659  -0.80939  -0.78968  -0.78702  -0.76349
 Alpha  occ. eigenvalues --   -0.75480  -0.74125  -0.74049  -0.72363  -0.70427
 Alpha  occ. eigenvalues --   -0.69223  -0.68968  -0.68217  -0.67513  -0.66212
 Alpha  occ. eigenvalues --   -0.65714  -0.65033  -0.64735  -0.63848  -0.63201
 Alpha  occ. eigenvalues --   -0.62612  -0.61353  -0.61017  -0.60900  -0.60747
 Alpha  occ. eigenvalues --   -0.59508  -0.59175  -0.58067  -0.57587  -0.56901
 Alpha  occ. eigenvalues --   -0.56117  -0.55806  -0.55399  -0.55214  -0.54761
 Alpha  occ. eigenvalues --   -0.54104  -0.53950  -0.53620  -0.52659  -0.52073
 Alpha  occ. eigenvalues --   -0.51311  -0.51020  -0.50561  -0.50082  -0.49677
 Alpha  occ. eigenvalues --   -0.49410  -0.49079  -0.48934  -0.48292  -0.48029
 Alpha  occ. eigenvalues --   -0.47118  -0.46719  -0.46655  -0.46422  -0.46243
 Alpha  occ. eigenvalues --   -0.45735  -0.45604  -0.45241  -0.44833  -0.44227
 Alpha  occ. eigenvalues --   -0.43510  -0.43309  -0.43233  -0.42240  -0.42046
 Alpha  occ. eigenvalues --   -0.41220  -0.40230  -0.39359  -0.39133  -0.38650
 Alpha  occ. eigenvalues --   -0.38465  -0.38011  -0.36336  -0.35773  -0.35102
 Alpha  occ. eigenvalues --   -0.34897  -0.34704  -0.33790  -0.33721  -0.31811
 Alpha  occ. eigenvalues --   -0.30567  -0.30099  -0.29557  -0.28828  -0.28712
 Alpha  occ. eigenvalues --   -0.27976
 Alpha virt. eigenvalues --   -0.15778  -0.09350  -0.08203  -0.07535  -0.06037
 Alpha virt. eigenvalues --   -0.05789  -0.05072  -0.04970  -0.04536  -0.04095
 Alpha virt. eigenvalues --   -0.03739  -0.01885  -0.00735  -0.00229  -0.00044

 Mulliken charges:
               1
     1  N   -0.793798
     2  H    0.352498
     3  H    0.383127
     4  C   -0.097661
     5  H    0.183834
     6  C    0.640763
     7  C   -0.382088
     8  H    0.278852
     9  H    0.199358
    10  O   -0.523830
    11  C    0.622794
    12  N   -0.701028
    13  H    0.445845
    14  H    0.366865
    15  O   -0.522365
    16  N   -0.591802
    17  H    0.327426
    18  C   -0.096259
    19  H    0.258229
    20  C    0.643879
    21  C   -0.377654
    22  H    0.138823
    23  H    0.195090
    24  O   -0.536778
    25  C    0.170792
    26  C   -0.195920
    27  H    0.177347
    28  C   -0.192426
    29  H    0.108528
    30  C   -0.134360
    31  H    0.134216
    32  C   -0.130837
    33  H    0.130352
    34  C   -0.129551
    35  H    0.133146
    36  N   -0.622715
    37  H    0.388092
    38  C   -0.095414
    39  H    0.187730
    40  C    0.644835
    41  C   -0.349640
    42  H    0.163905
    43  H    0.193167
    44  O   -0.548343
    45  C    0.566600
    46  N   -0.725698
    47  H    0.347090
    48  H    0.400925
    49  O   -0.563113
    50  N   -0.593700
    51  H    0.359104
    52  C   -0.070128
    53  H    0.140311
    54  C    0.611268
    55  C   -0.269809
    56  H    0.162772
    57  H    0.176161
    58  O   -0.621915
    59  C   -0.279779
    60  H    0.148045
    61  H    0.147979
    62  C   -0.196119
    63  H    0.172184
    64  H    0.227875
    65  N   -0.590478
    66  H    0.347218
    67  N   -0.785061
    68  H    0.348065
    69  H    0.455127
    70  N   -0.764352
    71  H    0.365011
    72  H    0.363867
    73  C    0.789392
    74  O   -0.560874
    75  H    0.445007
 Sum of Mulliken charges =   1.00000

 Dipole moment (field-independent basis, Debye):
    X=             -7.4769    Y=             -1.7640    Z=              2.1933  Tot=              7.9891
 Quadrupole moment (field-independent basis, Debye-Ang):
   XX=           -183.3906   YY=           -207.3179   ZZ=             78.4073
   XY=             -6.2144   XZ=            -81.6826   YZ=             27.8431

 Normal termination of Gaussian 16 at Tue May 31 12:47:28 2022.
