 Gaussian 16, Revision C.01,
 Gaussian 16:  ES64L-G16RevC.01  3-Jul-2019

 ----------------------------------------------------------------------
 # B3LYP/6-31G* empiricaldispersion=gd3 guess=read geom=check nosymm in
 tegral(ultrafinegrid)
 ----------------------------------------------------------------------

 ------------------------------------------------------
 Candidate Structure: Conf:112 Charge calc in gas phase
 ------------------------------------------------------
 Structure from the checkpoint file:  "conf-112.chk"
 Charge =  1 Multiplicity = 1

                          Input orientation:
 ---------------------------------------------------------------------
 Center     Atomic      Atomic             Coordinates (Angstroms)
 Number     Number       Type             X           Y           Z
 ---------------------------------------------------------------------
      1          7           0       -5.188579   -0.661840    4.232283
      2          1           0       -6.134290   -0.628221    3.853641
      3          1           0       -4.801869   -1.555704    3.924057
      4          6           0       -4.388202    0.394106    3.632091
      5          1           0       -4.939156    1.338914    3.727354
      6          6           0       -4.048850    0.133632    2.149261
      7          6           0       -3.056567    0.498521    4.428640
      8          1           0       -3.298233    0.762362    5.463759
      9          1           0       -2.565614   -0.477138    4.424755
     10          8           0       -3.798446   -0.996489    1.751396
     11          6           0       -2.084476    1.490717    3.827190
     12          7           0       -2.423805    2.794531    3.865214
     13          1           0       -3.258797    3.110467    4.337406
     14          1           0       -1.924523    3.450346    3.276562
     15          8           0       -1.033810    1.101256    3.283750
     16          7           0       -4.022809    1.244459    1.351995
     17          1           0       -4.056928    2.151937    1.798002
     18          6           0       -3.419031    1.229399    0.031957
     19          1           0       -3.423303    0.187169   -0.296963
     20          6           0       -1.985434    1.757351    0.158485
     21          6           0       -4.219535    2.101078   -0.964435
     22          1           0       -4.181988    3.141824   -0.619377
     23          1           0       -3.702047    2.069894   -1.931545
     24          8           0       -1.713771    2.718838    0.883155
     25          6           0       -5.648789    1.631199   -1.104679
     26          6           0       -5.948955    0.499674   -1.873527
     27          1           0       -5.150660   -0.017224   -2.402718
     28          6           0       -6.688131    2.283592   -0.432602
     29          1           0       -6.469252    3.167277    0.163145
     30          6           0       -7.258468    0.029812   -1.968624
     31          1           0       -7.475519   -0.847724   -2.571222
     32          6           0       -8.001085    1.819032   -0.526917
     33          1           0       -8.798294    2.341085   -0.004743
     34          6           0       -8.288906    0.689270   -1.294271
     35          1           0       -9.310090    0.326811   -1.370597
     36          7           0       -1.043438    1.125879   -0.582191
     37          1           0       -1.241396    0.290434   -1.123142
     38          6           0        0.341489    1.505123   -0.483905
     39          1           0        0.393172    2.597431   -0.453474
     40          6           0        1.113561    0.938465   -1.681207
     41          6           0        1.025973    0.904552    0.814657
     42          1           0        1.804527    0.189073    0.537106
     43          1           0        0.269004    0.374533    1.394151
     44          8           0        0.733265   -0.076703   -2.255050
     45          6           0        1.634138    1.980753    1.667357
     46          7           0        2.828532    2.436617    1.393461
     47          1           0        3.200771    3.182003    1.974238
     48          1           0        3.449452    2.074725    0.612879
     49          8           0        0.976251    2.512642    2.645891
     50          7           0        2.288194    1.568782   -1.921569
     51          1           0        2.529943    2.349269   -1.321905
     52          6           0        3.457738    0.842149   -2.407791
     53          1           0        3.349487   -0.205934   -2.097441
     54          6           0        4.737857    1.452888   -1.702656
     55          6           0        3.729257    0.901130   -3.894545
     56          1           0        3.976971    1.940769   -4.135556
     57          1           0        4.647072    0.317177   -3.963485
     58          8           0        5.799358    1.458443   -2.366081
     59          6           0        2.831664    0.360220   -4.993863
     60          1           0        2.409408   -0.618680   -4.740656
     61          1           0        1.991398    1.026288   -5.220045
     62          6           0        3.756928    0.191167   -6.215776
     63          1           0        4.508185   -0.577065   -6.008338
     64          1           0        3.208365   -0.115500   -7.111254
     65          7           0        4.493368    1.424300   -6.601753
     66          1           0        4.023519    2.009171   -7.280924
     67          7           0        6.412687    1.490539   -5.190899
     68          1           0        7.406677    1.682700   -5.185300
     69          1           0        6.009661    1.373635   -4.237533
     70          7           0        6.344034    2.652416   -7.186783
     71          1           0        7.128241    3.228436   -6.915760
     72          1           0        6.085683    2.646765   -8.163167
     73          6           0        5.738609    1.835173   -6.292248
     74          8           0        4.567407    1.908889   -0.537035
     75          1           0        0.086836    2.018782    2.844596
 ---------------------------------------------------------------------

 SCF Done:  E(RB3LYP) =  -1917.44779855     A.U. after    1 cycles

 Alpha  occ. eigenvalues --  -19.29776 -19.24126 -19.21418 -19.21250 -19.19386
 Alpha  occ. eigenvalues --  -19.17106 -19.16603 -14.50957 -14.50948 -14.48887
 Alpha  occ. eigenvalues --  -14.47848 -14.46960 -14.45825 -14.44574 -14.44182
 Alpha  occ. eigenvalues --  -14.38958 -10.46954 -10.43687 -10.40684 -10.38236
 Alpha  occ. eigenvalues --  -10.38116 -10.36210 -10.35077 -10.34561 -10.34382
 Alpha  occ. eigenvalues --  -10.31751 -10.31478 -10.31419 -10.30224 -10.28639
 Alpha  occ. eigenvalues --  -10.28192 -10.27398 -10.26713 -10.26103 -10.25137
 Alpha  occ. eigenvalues --  -10.25056 -10.24941 -10.24902 -10.24744  -1.20537
 Alpha  occ. eigenvalues --   -1.15105  -1.14808  -1.13632  -1.12812  -1.11256
 Alpha  occ. eigenvalues --   -1.10040  -1.04652  -1.04462  -1.02593  -1.02429
 Alpha  occ. eigenvalues --   -1.01960  -1.01832  -1.00838  -1.00799  -0.96792
 Alpha  occ. eigenvalues --   -0.91799  -0.90249  -0.89273  -0.86615  -0.85015
 Alpha  occ. eigenvalues --   -0.84237  -0.81515  -0.80404  -0.79588  -0.77936
 Alpha  occ. eigenvalues --   -0.75568  -0.75207  -0.74572  -0.72162  -0.71819
 Alpha  occ. eigenvalues --   -0.70210  -0.69628  -0.68560  -0.68472  -0.67772
 Alpha  occ. eigenvalues --   -0.67066  -0.66861  -0.66095  -0.65093  -0.64521
 Alpha  occ. eigenvalues --   -0.64317  -0.64165  -0.63602  -0.63217  -0.61312
 Alpha  occ. eigenvalues --   -0.60542  -0.59135  -0.58991  -0.58623  -0.58132
 Alpha  occ. eigenvalues --   -0.57214  -0.56813  -0.56554  -0.56092  -0.55840
 Alpha  occ. eigenvalues --   -0.54948  -0.54830  -0.54288  -0.53147  -0.52678
 Alpha  occ. eigenvalues --   -0.52172  -0.52042  -0.51611  -0.51471  -0.50585
 Alpha  occ. eigenvalues --   -0.50318  -0.50036  -0.49862  -0.49503  -0.49266
 Alpha  occ. eigenvalues --   -0.48798  -0.48584  -0.48068  -0.47747  -0.47717
 Alpha  occ. eigenvalues --   -0.46926  -0.46783  -0.46334  -0.45471  -0.45435
 Alpha  occ. eigenvalues --   -0.45133  -0.44314  -0.44207  -0.43640  -0.43322
 Alpha  occ. eigenvalues --   -0.42566  -0.41628  -0.41491  -0.41305  -0.40359
 Alpha  occ. eigenvalues --   -0.40104  -0.39412  -0.38628  -0.38051  -0.36360
 Alpha  occ. eigenvalues --   -0.35622  -0.34957  -0.34678  -0.34357  -0.33098
 Alpha  occ. eigenvalues --   -0.32454  -0.31571  -0.31195  -0.30921  -0.30826
 Alpha  occ. eigenvalues --   -0.30413
 Alpha virt. eigenvalues --   -0.12616  -0.12329  -0.09336  -0.07835  -0.07123
 Alpha virt. eigenvalues --   -0.06941  -0.06459  -0.05969  -0.05182  -0.03277
 Alpha virt. eigenvalues --   -0.03261  -0.02437  -0.01875  -0.00849   0.00204

 Mulliken charges:
               1
     1  N   -0.694429
     2  H    0.316784
     3  H    0.325063
     4  C   -0.084241
     5  H    0.133111
     6  C    0.594619
     7  C   -0.341253
     8  H    0.195750
     9  H    0.202051
    10  O   -0.513384
    11  C    0.625003
    12  N   -0.730313
    13  H    0.360623
    14  H    0.381859
    15  O   -0.570100
    16  N   -0.577105
    17  H    0.328133
    18  C   -0.072156
    19  H    0.191954
    20  C    0.651272
    21  C   -0.378936
    22  H    0.159390
    23  H    0.162092
    24  O   -0.575059
    25  C    0.195412
    26  C   -0.176933
    27  H    0.123515
    28  C   -0.182465
    29  H    0.115436
    30  C   -0.126221
    31  H    0.142776
    32  C   -0.130220
    33  H    0.139525
    34  C   -0.128486
    35  H    0.143850
    36  N   -0.613139
    37  H    0.363150
    38  C   -0.035992
    39  H    0.196148
    40  C    0.584550
    41  C   -0.401988
    42  H    0.215560
    43  H    0.237923
    44  O   -0.517857
    45  C    0.606835
    46  N   -0.722325
    47  H    0.374068
    48  H    0.440576
    49  O   -0.573291
    50  N   -0.590345
    51  H    0.329557
    52  C   -0.077708
    53  H    0.170569
    54  C    0.611012
    55  C   -0.273441
    56  H    0.137861
    57  H    0.153187
    58  O   -0.566407
    59  C   -0.255203
    60  H    0.181727
    61  H    0.154791
    62  C   -0.177707
    63  H    0.195681
    64  H    0.181593
    65  N   -0.588622
    66  H    0.358738
    67  N   -0.769432
    68  H    0.365899
    69  H    0.446740
    70  N   -0.757466
    71  H    0.377952
    72  H    0.374195
    73  C    0.772904
    74  O   -0.605965
    75  H    0.488754
 Sum of Mulliken charges =   1.00000

 Dipole moment (field-independent basis, Debye):
    X=              7.5799    Y=             12.3227    Z=            -15.1910  Tot=             20.9778
 Quadrupole moment (field-independent basis, Debye-Ang):
   XX=           -101.9223   YY=           -191.8464   ZZ=            -43.1406
   XY=             19.2417   XZ=           -130.9600   YZ=            -23.1527

 Normal termination of Gaussian 16 at Tue May 31 12:47:22 2022.
