 Gaussian 16, Revision C.01,
 Gaussian 16:  ES64L-G16RevC.01  3-Jul-2019

 ----------------------------------------------------------------------
 # B3LYP/6-31G* empiricaldispersion=gd3 guess=read geom=check nosymm in
 tegral(ultrafinegrid)
 ----------------------------------------------------------------------

 ------------------------------------------------------
 Candidate Structure: Conf:197 Charge calc in gas phase
 ------------------------------------------------------
 Structure from the checkpoint file:  "conf-197.chk"
 Charge =  1 Multiplicity = 1

                          Input orientation:
 ---------------------------------------------------------------------
 Center     Atomic      Atomic             Coordinates (Angstroms)
 Number     Number       Type             X           Y           Z
 ---------------------------------------------------------------------
      1          7           0       -6.286266    0.220394    3.569142
      2          1           0       -6.363091    1.223575    3.386637
      3          1           0       -6.574257   -0.226080    2.692785
      4          6           0       -4.866136   -0.142030    3.802752
      5          1           0       -4.450864    0.564283    4.528839
      6          6           0       -4.130597   -0.101144    2.449445
      7          6           0       -4.775247   -1.583080    4.351415
      8          1           0       -5.093164   -2.266224    3.549471
      9          1           0       -3.742413   -1.843903    4.597834
     10          8           0       -4.542588   -0.842332    1.556999
     11          6           0       -5.626880   -1.849632    5.552921
     12          7           0       -6.762076   -1.230789    5.702587
     13          1           0       -6.945800   -0.502466    4.925953
     14          1           0       -7.377852   -1.376512    6.497088
     15          8           0       -5.149126   -2.743877    6.387990
     16          7           0       -3.158275    0.812633    2.326432
     17          1           0       -2.745194    1.292604    3.122344
     18          6           0       -2.527642    1.133577    1.057387
     19          1           0       -2.602578    0.254515    0.412781
     20          6           0       -1.064668    1.491422    1.383029
     21          6           0       -3.220624    2.360306    0.380419
     22          1           0       -2.818186    3.272141    0.835961
     23          1           0       -2.927178    2.373454   -0.675289
     24          8           0       -0.775110    1.860906    2.526552
     25          6           0       -4.726423    2.347776    0.529515
     26          6           0       -5.344952    3.153493    1.495799
     27          1           0       -4.736980    3.827865    2.094851
     28          6           0       -5.527709    1.494941   -0.240130
     29          1           0       -5.063857    0.850760   -0.981930
     30          6           0       -6.730073    3.116747    1.685493
     31          1           0       -7.194093    3.773720    2.417337
     32          6           0       -6.909528    1.446057   -0.050325
     33          1           0       -7.512932    0.780140   -0.660845
     34          6           0       -7.516853    2.256594    0.912945
     35          1           0       -8.594969    2.232446    1.047286
     36          7           0       -0.216858    1.420058    0.351610
     37          1           0       -0.500728    1.110266   -0.579194
     38          6           0        1.196075    1.766078    0.406148
     39          1           0        1.317074    2.779703    0.801644
     40          6           0        1.698349    1.681950   -1.055517
     41          6           0        1.997658    0.811507    1.317534
     42          1           0        1.965645   -0.208433    0.917266
     43          1           0        1.525041    0.810813    2.303926
     44          8           0        0.967807    1.206776   -1.940844
     45          6           0        3.411807    1.382263    1.442635
     46          7           0        4.456836    0.559667    1.126142
     47          1           0        5.263893    1.057983    0.751583
     48          1           0        4.242002   -0.282192    0.607577
     49          8           0        3.558920    2.552423    1.771959
     50          7           0        2.944587    2.119718   -1.247465
     51          1           0        3.550206    2.398708   -0.469426
     52          6           0        3.744303    1.792086   -2.421994
     53          1           0        3.456152    0.798301   -2.779154
     54          6           0        5.265052    1.788546   -1.984161
     55          6           0        3.550911    2.786550   -3.578187
     56          1           0        4.090503    2.371468   -4.435419
     57          1           0        2.487154    2.872897   -3.833448
     58          8           0        6.066192    1.600912   -2.920311
     59          6           0        4.159317    4.147895   -3.227936
     60          1           0        3.664760    4.569462   -2.342541
     61          1           0        5.214227    3.977330   -2.985714
     62          6           0        4.098386    5.142822   -4.380549
     63          1           0        4.529385    4.695357   -5.284074
     64          1           0        3.069747    5.459293   -4.595767
     65          7           0        4.912482    6.330537   -4.024789
     66          1           0        5.193069    6.396153   -3.052809
     67          7           0        4.947723    7.293492   -6.132589
     68          1           0        5.499555    7.717226   -6.864293
     69          1           0        4.148396    6.745096   -6.415302
     70          7           0        6.388520    8.060720   -4.487530
     71          1           0        6.626978    8.873468   -5.036710
     72          1           0        6.937685    7.879794   -3.659166
     73          6           0        5.415200    7.213765   -4.874345
     74          8           0        5.466238    2.057221   -0.765394
     75          1           0       -5.736965   -2.936541    7.143482
 ---------------------------------------------------------------------

 SCF Done:  E(RB3LYP) =  -1917.37788832     A.U. after    1 cycles

 Alpha  occ. eigenvalues --  -19.38393 -19.21148 -19.17940 -19.15299 -19.13074
 Alpha  occ. eigenvalues --  -19.08295 -19.07189 -14.54011 -14.51219 -14.51068
 Alpha  occ. eigenvalues --  -14.50563 -14.46510 -14.45315 -14.41536 -14.37477
 Alpha  occ. eigenvalues --  -14.35444 -10.49762 -10.47249 -10.38563 -10.36178
 Alpha  occ. eigenvalues --  -10.35136 -10.34745 -10.32811 -10.32008 -10.31213
 Alpha  occ. eigenvalues --  -10.30617 -10.27650 -10.27470 -10.27205 -10.27074
 Alpha  occ. eigenvalues --  -10.26937 -10.26899 -10.26688 -10.26505 -10.26266
 Alpha  occ. eigenvalues --  -10.24831 -10.23072 -10.23020 -10.22163  -1.28063
 Alpha  occ. eigenvalues --   -1.15718  -1.13370  -1.11183  -1.09809  -1.06749
 Alpha  occ. eigenvalues --   -1.05082  -1.04652  -1.04070  -1.02643  -1.01761
 Alpha  occ. eigenvalues --   -1.01282  -0.98086  -0.94743  -0.93413  -0.92695
 Alpha  occ. eigenvalues --   -0.92662  -0.90965  -0.87349  -0.87048  -0.83613
 Alpha  occ. eigenvalues --   -0.82765  -0.82164  -0.80822  -0.79891  -0.77227
 Alpha  occ. eigenvalues --   -0.76867  -0.75701  -0.73858  -0.73653  -0.72317
 Alpha  occ. eigenvalues --   -0.70935  -0.70532  -0.69070  -0.68485  -0.67560
 Alpha  occ. eigenvalues --   -0.66026  -0.65802  -0.65046  -0.64634  -0.63839
 Alpha  occ. eigenvalues --   -0.63093  -0.62366  -0.62139  -0.59847  -0.59642
 Alpha  occ. eigenvalues --   -0.59195  -0.58913  -0.58836  -0.58325  -0.56924
 Alpha  occ. eigenvalues --   -0.56729  -0.55778  -0.55634  -0.54890  -0.54384
 Alpha  occ. eigenvalues --   -0.53785  -0.53707  -0.52960  -0.52833  -0.52442
 Alpha  occ. eigenvalues --   -0.52104  -0.50704  -0.50393  -0.49656  -0.49422
 Alpha  occ. eigenvalues --   -0.49096  -0.48176  -0.48041  -0.47898  -0.47828
 Alpha  occ. eigenvalues --   -0.47305  -0.47248  -0.46462  -0.45662  -0.44853
 Alpha  occ. eigenvalues --   -0.44087  -0.43765  -0.43443  -0.43394  -0.42383
 Alpha  occ. eigenvalues --   -0.42116  -0.41782  -0.41481  -0.41106  -0.40926
 Alpha  occ. eigenvalues --   -0.40567  -0.39670  -0.39317  -0.38850  -0.38500
 Alpha  occ. eigenvalues --   -0.37884  -0.37174  -0.35409  -0.35389  -0.35151
 Alpha  occ. eigenvalues --   -0.32721  -0.32593  -0.31729  -0.31334  -0.29468
 Alpha  occ. eigenvalues --   -0.29093  -0.27919  -0.26608  -0.23640  -0.22914
 Alpha  occ. eigenvalues --   -0.21469
 Alpha virt. eigenvalues --   -0.17545  -0.11222  -0.10181  -0.08812  -0.08147
 Alpha virt. eigenvalues --   -0.07627  -0.07190  -0.05254  -0.03762  -0.03382
 Alpha virt. eigenvalues --   -0.02221  -0.02165  -0.01774  -0.01457  -0.00316

 Mulliken charges:
               1
     1  N   -0.788628
     2  H    0.361370
     3  H    0.359623
     4  C   -0.081915
     5  H    0.172846
     6  C    0.646224
     7  C   -0.368111
     8  H    0.251788
     9  H    0.231445
    10  O   -0.533807
    11  C    0.615981
    12  N   -0.698862
    13  H    0.443533
    14  H    0.373731
    15  O   -0.511958
    16  N   -0.604802
    17  H    0.354321
    18  C   -0.057117
    19  H    0.191876
    20  C    0.632772
    21  C   -0.368275
    22  H    0.170094
    23  H    0.175994
    24  O   -0.552458
    25  C    0.171342
    26  C   -0.198051
    27  H    0.138667
    28  C   -0.149455
    29  H    0.148607
    30  C   -0.170489
    31  H    0.142656
    32  C   -0.139640
    33  H    0.148956
    34  C   -0.143287
    35  H    0.143922
    36  N   -0.634789
    37  H    0.356544
    38  C   -0.036769
    39  H    0.200972
    40  C    0.585995
    41  C   -0.343810
    42  H    0.138527
    43  H    0.196192
    44  O   -0.567116
    45  C    0.542265
    46  N   -0.714819
    47  H    0.387066
    48  H    0.316498
    49  O   -0.517438
    50  N   -0.622005
    51  H    0.392447
    52  C   -0.068953
    53  H    0.155522
    54  C    0.565249
    55  C   -0.257109
    56  H    0.160335
    57  H    0.139203
    58  O   -0.588019
    59  C   -0.328052
    60  H    0.158670
    61  H    0.200425
    62  C   -0.147540
    63  H    0.184175
    64  H    0.174815
    65  N   -0.595962
    66  H    0.374723
    67  N   -0.755215
    68  H    0.381466
    69  H    0.393197
    70  N   -0.764774
    71  H    0.381372
    72  H    0.389373
    73  C    0.826858
    74  O   -0.617723
    75  H    0.449314
 Sum of Mulliken charges =   1.00000

 Dipole moment (field-independent basis, Debye):
    X=            -18.2222    Y=             17.9115    Z=              4.4475  Tot=             25.9355
 Quadrupole moment (field-independent basis, Debye-Ang):
   XX=            -35.2335   YY=            -10.5752   ZZ=             -8.4392
   XY=            153.8715   XZ=           -221.0622   YZ=           -179.0513

 Normal termination of Gaussian 16 at Tue May 31 12:47:20 2022.
