 Gaussian 16, Revision C.01,
 Gaussian 16:  ES64L-G16RevC.01  3-Jul-2019

 ----------------------------------------------------------------------
 # B3LYP/6-31G* empiricaldispersion=gd3 guess=read geom=check nosymm in
 tegral(ultrafinegrid)
 ----------------------------------------------------------------------

 ------------------------------------------------------
 Candidate Structure: Conf:962 Charge calc in gas phase
 ------------------------------------------------------
 Structure from the checkpoint file:  "conf-962.chk"
 Charge =  1 Multiplicity = 1

                          Input orientation:
 ---------------------------------------------------------------------
 Center     Atomic      Atomic             Coordinates (Angstroms)
 Number     Number       Type             X           Y           Z
 ---------------------------------------------------------------------
      1          7           0       -4.687532   -1.044611    2.563966
      2          1           0       -5.150725   -1.196169    3.459622
      3          1           0       -4.845625   -0.071096    2.307880
      4          6           0       -3.234059   -1.325551    2.677722
      5          1           0       -2.785100   -0.937379    3.599961
      6          6           0       -2.515495   -0.701971    1.468243
      7          6           0       -2.971548   -2.841137    2.644127
      8          1           0       -1.903504   -3.012168    2.781400
      9          1           0       -3.517943   -3.337810    3.456291
     10          8           0       -2.194006   -1.410381    0.509451
     11          6           0       -3.400233   -3.464231    1.350970
     12          7           0       -4.573476   -3.181593    0.841523
     13          1           0       -5.043056   -2.360541    1.283570
     14          1           0       -4.883065   -3.532914   -0.058371
     15          8           0       -2.605026   -4.387262    0.873421
     16          7           0       -2.349898    0.640575    1.501300
     17          1           0       -2.412069    1.101835    2.402961
     18          6           0       -1.501754    1.317055    0.497970
     19          1           0       -1.578438    0.718226   -0.411649
     20          6           0       -0.066139    1.262460    1.060322
     21          6           0       -1.947084    2.755814    0.206644
     22          1           0       -3.037729    2.763973    0.100301
     23          1           0       -1.679438    3.386042    1.061124
     24          8           0        0.421898    2.199151    1.686607
     25          6           0       -1.293729    3.266970   -1.066118
     26          6           0        0.022953    3.748293   -1.067243
     27          1           0        0.596265    3.794951   -0.148281
     28          6           0       -1.989938    3.200851   -2.281737
     29          1           0       -3.013872    2.831683   -2.294867
     30          6           0        0.624761    4.158097   -2.259087
     31          1           0        1.647965    4.515744   -2.216041
     32          6           0       -1.390737    3.611683   -3.472848
     33          1           0       -1.949315    3.561083   -4.403927
     34          6           0       -0.078814    4.092079   -3.462992
     35          1           0        0.392573    4.417712   -4.386471
     36          7           0        0.551086    0.072243    0.884656
     37          1           0        0.062576   -0.671827    0.401840
     38          6           0        1.851211   -0.216841    1.475505
     39          1           0        2.021916    0.557819    2.229351
     40          6           0        2.920927   -0.092419    0.364269
     41          6           0        1.861851   -1.606377    2.128169
     42          1           0        2.893080   -1.863677    2.385302
     43          1           0        1.523585   -2.354778    1.405133
     44          8           0        3.442125   -1.084955   -0.140653
     45          6           0        0.938427   -1.623034    3.336267
     46          7           0        1.548828   -1.625027    4.546035
     47          1           0        0.980697   -1.571892    5.380561
     48          1           0        2.552788   -1.617902    4.648911
     49          8           0       -0.293264   -1.596715    3.232604
     50          7           0        3.141599    1.184675   -0.002808
     51          1           0        2.629372    1.953672    0.426529
     52          6           0        3.920277    1.581396   -1.171421
     53          1           0        4.877186    1.052656   -1.165185
     54          6           0        4.153603    3.108629   -1.045611
     55          6           0        3.124688    1.203807   -2.456272
     56          1           0        2.798653    0.171182   -2.298099
     57          1           0        2.219460    1.823604   -2.490156
     58          8           0        3.254769    3.783073   -0.510504
     59          6           0        3.865274    1.246682   -3.814569
     60          1           0        4.940290    1.074533   -3.671459
     61          1           0        3.510802    0.411496   -4.430214
     62          6           0        3.667795    2.511838   -4.666485
     63          1           0        4.061425    2.337601   -5.676485
     64          1           0        2.597078    2.736972   -4.753486
     65          7           0        4.358987    3.649589   -4.054339
     66          1           0        4.967305    3.416155   -3.243500
     67          7           0        2.986581    5.343745   -4.888085
     68          1           0        2.700401    6.311828   -4.861071
     69          1           0        2.971858    4.910613   -5.800438
     70          7           0        4.318116    5.674318   -2.981948
     71          1           0        3.985374    6.621532   -2.881372
     72          1           0        4.734125    5.168270   -2.166542
     73          6           0        3.889886    4.894183   -3.976136
     74          8           0        5.228753    3.558343   -1.574660
     75          1           0       -2.911701   -4.775898    0.032736
 ---------------------------------------------------------------------

 SCF Done:  E(RB3LYP) =  -1917.45174644     A.U. after    1 cycles

 Alpha  occ. eigenvalues --  -19.37222 -19.24590 -19.20865 -19.19831 -19.16806
 Alpha  occ. eigenvalues --  -19.14200 -19.13681 -14.53144 -14.48270 -14.47548
 Alpha  occ. eigenvalues --  -14.46749 -14.45150 -14.44278 -14.43727 -14.43453
 Alpha  occ. eigenvalues --  -14.40196 -10.49092 -10.41376 -10.41221 -10.38498
 Alpha  occ. eigenvalues --  -10.36900 -10.36664 -10.33966 -10.33690 -10.32614
 Alpha  occ. eigenvalues --  -10.31693 -10.31016 -10.30230 -10.27963 -10.27013
 Alpha  occ. eigenvalues --  -10.26637 -10.25977 -10.25597 -10.25119 -10.25025
 Alpha  occ. eigenvalues --  -10.24821 -10.24153 -10.23977 -10.23884  -1.27102
 Alpha  occ. eigenvalues --   -1.16312  -1.12388  -1.11868  -1.10245  -1.10108
 Alpha  occ. eigenvalues --   -1.08569  -1.07161  -1.04669  -1.03108  -1.00841
 Alpha  occ. eigenvalues --   -0.99751  -0.99689  -0.98342  -0.97856  -0.96595
 Alpha  occ. eigenvalues --   -0.92240  -0.91669  -0.87860  -0.86023  -0.85349
 Alpha  occ. eigenvalues --   -0.83281  -0.80630  -0.80054  -0.79986  -0.76702
 Alpha  occ. eigenvalues --   -0.76300  -0.74943  -0.73601  -0.72115  -0.71494
 Alpha  occ. eigenvalues --   -0.70798  -0.69911  -0.68120  -0.67350  -0.67141
 Alpha  occ. eigenvalues --   -0.66276  -0.65888  -0.65468  -0.64191  -0.63626
 Alpha  occ. eigenvalues --   -0.63248  -0.62822  -0.62150  -0.61753  -0.60707
 Alpha  occ. eigenvalues --   -0.60124  -0.59046  -0.58499  -0.58399  -0.57884
 Alpha  occ. eigenvalues --   -0.57587  -0.56982  -0.56739  -0.56194  -0.54583
 Alpha  occ. eigenvalues --   -0.54266  -0.53831  -0.53223  -0.52693  -0.52347
 Alpha  occ. eigenvalues --   -0.52106  -0.51770  -0.51301  -0.50840  -0.50789
 Alpha  occ. eigenvalues --   -0.50049  -0.49740  -0.49345  -0.48965  -0.48746
 Alpha  occ. eigenvalues --   -0.48215  -0.47894  -0.47309  -0.47067  -0.46767
 Alpha  occ. eigenvalues --   -0.46243  -0.46130  -0.45707  -0.45361  -0.44699
 Alpha  occ. eigenvalues --   -0.44338  -0.43800  -0.43238  -0.42101  -0.41687
 Alpha  occ. eigenvalues --   -0.40974  -0.40782  -0.40352  -0.39859  -0.39658
 Alpha  occ. eigenvalues --   -0.39010  -0.38648  -0.37780  -0.37167  -0.36428
 Alpha  occ. eigenvalues --   -0.35403  -0.33956  -0.33730  -0.33287  -0.30955
 Alpha  occ. eigenvalues --   -0.30649  -0.30481  -0.30046  -0.29536  -0.28328
 Alpha  occ. eigenvalues --   -0.27736
 Alpha virt. eigenvalues --   -0.16190  -0.11368  -0.09357  -0.07032  -0.06737
 Alpha virt. eigenvalues --   -0.06420  -0.06080  -0.05341  -0.04830  -0.03735
 Alpha virt. eigenvalues --   -0.03085  -0.02750  -0.01290  -0.00896  -0.00226

 Mulliken charges:
               1
     1  N   -0.767948
     2  H    0.344219
     3  H    0.345105
     4  C   -0.097065
     5  H    0.198291
     6  C    0.682176
     7  C   -0.360993
     8  H    0.261306
     9  H    0.206797
    10  O   -0.545267
    11  C    0.639026
    12  N   -0.687719
    13  H    0.426486
    14  H    0.372027
    15  O   -0.513009
    16  N   -0.611432
    17  H    0.350762
    18  C   -0.072393
    19  H    0.190649
    20  C    0.638398
    21  C   -0.361464
    22  H    0.144125
    23  H    0.181520
    24  O   -0.525733
    25  C    0.141189
    26  C   -0.198015
    27  H    0.193512
    28  C   -0.181528
    29  H    0.116482
    30  C   -0.146597
    31  H    0.157045
    32  C   -0.127956
    33  H    0.131160
    34  C   -0.139389
    35  H    0.116699
    36  N   -0.589018
    37  H    0.353926
    38  C   -0.081634
    39  H    0.197713
    40  C    0.637778
    41  C   -0.370187
    42  H    0.179177
    43  H    0.185444
    44  O   -0.541009
    45  C    0.607073
    46  N   -0.727807
    47  H    0.348965
    48  H    0.359030
    49  O   -0.556728
    50  N   -0.623236
    51  H    0.369052
    52  C   -0.016050
    53  H    0.167567
    54  C    0.581602
    55  C   -0.292395
    56  H    0.166684
    57  H    0.155086
    58  O   -0.556718
    59  C   -0.305155
    60  H    0.171108
    61  H    0.155297
    62  C   -0.149632
    63  H    0.160750
    64  H    0.166431
    65  N   -0.603698
    66  H    0.404288
    67  N   -0.753273
    68  H    0.361830
    69  H    0.368161
    70  N   -0.757595
    71  H    0.347413
    72  H    0.417441
    73  C    0.754347
    74  O   -0.638611
    75  H    0.446117
 Sum of Mulliken charges =   1.00000

 Dipole moment (field-independent basis, Debye):
    X=            -13.8037    Y=             -4.1867    Z=             -0.1312  Tot=             14.4253
 Quadrupole moment (field-independent basis, Debye-Ang):
   XX=           -160.5127   YY=           -140.3921   ZZ=           -122.2755
   XY=             53.0031   XZ=            -41.0014   YZ=            -65.3121

 Normal termination of Gaussian 16 at Tue May 31 12:47:29 2022.
