 Gaussian 16, Revision C.01,
 Gaussian 16:  ES64L-G16RevC.01  3-Jul-2019

 ----------------------------------------------------------------------
 # B3LYP/6-31G* empiricaldispersion=gd3 guess=read geom=check nosymm in
 tegral(ultrafinegrid)
 ----------------------------------------------------------------------

 ------------------------------------------------------
 Candidate Structure: Conf:883 Charge calc in gas phase
 ------------------------------------------------------
 Structure from the checkpoint file:  "conf-883.chk"
 Charge =  1 Multiplicity = 1

                          Input orientation:
 ---------------------------------------------------------------------
 Center     Atomic      Atomic             Coordinates (Angstroms)
 Number     Number       Type             X           Y           Z
 ---------------------------------------------------------------------
      1          7           0       -4.304621   -0.210268    4.675980
      2          1           0       -4.345022   -0.423318    5.671698
      3          1           0       -3.658115    0.566291    4.554550
      4          6           0       -3.864198   -1.391347    3.900825
      5          1           0       -3.026594   -1.922879    4.374993
      6          6           0       -3.452760   -0.928191    2.484813
      7          6           0       -5.042050   -2.376043    3.737667
      8          1           0       -4.707532   -3.306987    3.278147
      9          1           0       -5.475669   -2.612592    4.716833
     10          8           0       -4.101818   -1.305724    1.506166
     11          6           0       -6.108215   -1.787094    2.856430
     12          7           0       -6.509133   -0.557435    3.047554
     13          1           0       -5.922066   -0.012647    3.710020
     14          1           0       -7.045431   -0.038260    2.352742
     15          8           0       -6.669367   -2.607563    2.004316
     16          7           0       -2.441932   -0.047004    2.427777
     17          1           0       -1.756512    0.057173    3.178656
     18          6           0       -1.992368    0.559155    1.182462
     19          1           0       -2.195457   -0.133858    0.360480
     20          6           0       -0.476263    0.790898    1.362751
     21          6           0       -2.695857    1.919198    0.922323
     22          1           0       -2.338728    2.630604    1.675726
     23          1           0       -2.350467    2.292776   -0.049349
     24          8           0        0.015016    0.743448    2.494804
     25          6           0       -4.210467    1.872233    0.945970
     26          6           0       -4.930469    1.223000   -0.067267
     27          1           0       -4.393857    0.715077   -0.863856
     28          6           0       -4.925811    2.505702    1.970605
     29          1           0       -4.383902    3.022970    2.758861
     30          6           0       -6.324926    1.228550   -0.071714
     31          1           0       -6.862312    0.745425   -0.883690
     32          6           0       -6.324069    2.525405    1.969177
     33          1           0       -6.857994    3.056043    2.753144
     34          6           0       -7.030709    1.890364    0.942445
     35          1           0       -8.116582    1.943508    0.910925
     36          7           0        0.204287    1.082168    0.248069
     37          1           0       -0.229250    1.122497   -0.672906
     38          6           0        1.605157    1.473544    0.239535
     39          1           0        1.787089    2.216620    1.021884
     40          6           0        1.856450    2.080953   -1.159004
     41          6           0        2.545344    0.276051    0.525466
     42          1           0        2.460862   -0.471871   -0.271210
     43          1           0        2.219392   -0.177161    1.466765
     44          8           0        1.013918    1.934125   -2.057669
     45          6           0        3.969349    0.803956    0.712517
     46          7           0        4.959025    0.191354    0.006671
     47          1           0        5.784370    0.764692   -0.142559
     48          1           0        4.706680   -0.394826   -0.776908
     49          8           0        4.168848    1.764556    1.449481
     50          7           0        3.025981    2.713081   -1.328112
     51          1           0        3.725257    2.746449   -0.587779
     52          6           0        3.521953    3.091094   -2.644046
     53          1           0        3.182816    2.320115   -3.347400
     54          6           0        5.084435    2.998245   -2.619849
     55          6           0        2.948954    4.464424   -3.116604
     56          1           0        2.344463    4.859838   -2.295808
     57          1           0        3.764744    5.181829   -3.270958
     58          8           0        5.649064    3.293514   -3.735295
     59          6           0        2.060303    4.379673   -4.378015
     60          1           0        1.491887    3.443173   -4.341172
     61          1           0        1.326553    5.194947   -4.370799
     62          6           0        2.826013    4.489679   -5.710685
     63          1           0        2.166018    4.215372   -6.542297
     64          1           0        3.139966    5.527946   -5.874373
     65          7           0        4.022901    3.656768   -5.706045
     66          1           0        4.660906    3.694070   -4.837222
     67          7           0        3.848697    2.547896   -7.777599
     68          1           0        3.892799    1.638352   -8.213657
     69          1           0        3.108365    3.159240   -8.085642
     70          7           0        5.369012    1.857250   -6.155528
     71          1           0        5.987033    1.486810   -6.864827
     72          1           0        5.788117    2.074649   -5.242186
     73          6           0        4.390904    2.712751   -6.544864
     74          8           0        5.634357    2.625591   -1.579905
     75          1           0       -7.339408   -2.175165    1.442393
 ---------------------------------------------------------------------

 SCF Done:  E(RB3LYP) =  -1917.44447082     A.U. after    1 cycles

 Alpha  occ. eigenvalues --  -19.36523 -19.24195 -19.20750 -19.18448 -19.16203
 Alpha  occ. eigenvalues --  -19.14737 -19.13745 -14.51857 -14.47437 -14.47135
 Alpha  occ. eigenvalues --  -14.46642 -14.44281 -14.44135 -14.43745 -14.41194
 Alpha  occ. eigenvalues --  -14.39952 -10.48513 -10.41506 -10.41115 -10.37829
 Alpha  occ. eigenvalues --  -10.37076 -10.35227 -10.34579 -10.34027 -10.33800
 Alpha  occ. eigenvalues --  -10.32284 -10.30848 -10.30562 -10.30127 -10.29631
 Alpha  occ. eigenvalues --  -10.29570 -10.29523 -10.29488 -10.29280 -10.29088
 Alpha  occ. eigenvalues --  -10.27531 -10.26053 -10.25550 -10.24616  -1.26451
 Alpha  occ. eigenvalues --   -1.16119  -1.12712  -1.10199  -1.10033  -1.09426
 Alpha  occ. eigenvalues --   -1.08135  -1.07437  -1.04577  -1.02807  -1.00902
 Alpha  occ. eigenvalues --   -1.00157  -0.98845  -0.98058  -0.97626  -0.95908
 Alpha  occ. eigenvalues --   -0.95044  -0.92143  -0.89581  -0.86364  -0.85470
 Alpha  occ. eigenvalues --   -0.84682  -0.83925  -0.82117  -0.80110  -0.77615
 Alpha  occ. eigenvalues --   -0.76056  -0.74711  -0.73971  -0.73213  -0.71705
 Alpha  occ. eigenvalues --   -0.70926  -0.70275  -0.69507  -0.68322  -0.67450
 Alpha  occ. eigenvalues --   -0.66973  -0.66547  -0.65634  -0.64126  -0.63090
 Alpha  occ. eigenvalues --   -0.62909  -0.62757  -0.61662  -0.61461  -0.61204
 Alpha  occ. eigenvalues --   -0.59547  -0.59463  -0.58977  -0.57961  -0.57903
 Alpha  occ. eigenvalues --   -0.57584  -0.57192  -0.56388  -0.55907  -0.55740
 Alpha  occ. eigenvalues --   -0.55228  -0.54784  -0.54070  -0.53793  -0.53127
 Alpha  occ. eigenvalues --   -0.52779  -0.52223  -0.52125  -0.51881  -0.51836
 Alpha  occ. eigenvalues --   -0.51264  -0.50665  -0.50206  -0.50067  -0.49571
 Alpha  occ. eigenvalues --   -0.49265  -0.48787  -0.48220  -0.47632  -0.47073
 Alpha  occ. eigenvalues --   -0.46668  -0.46441  -0.45998  -0.45546  -0.45170
 Alpha  occ. eigenvalues --   -0.44737  -0.44356  -0.44155  -0.43869  -0.42766
 Alpha  occ. eigenvalues --   -0.42173  -0.41554  -0.41136  -0.40857  -0.40241
 Alpha  occ. eigenvalues --   -0.39334  -0.38150  -0.37758  -0.37255  -0.35549
 Alpha  occ. eigenvalues --   -0.35169  -0.34412  -0.34114  -0.34039  -0.32633
 Alpha  occ. eigenvalues --   -0.32286  -0.31512  -0.30127  -0.29753  -0.29053
 Alpha  occ. eigenvalues --   -0.27832
 Alpha virt. eigenvalues --   -0.15701  -0.11698  -0.10843  -0.10313  -0.08015
 Alpha virt. eigenvalues --   -0.06536  -0.06363  -0.04754  -0.04417  -0.03058
 Alpha virt. eigenvalues --   -0.02506  -0.01211  -0.00820  -0.00440   0.00147

 Mulliken charges:
               1
     1  N   -0.762471
     2  H    0.343985
     3  H    0.346299
     4  C   -0.115005
     5  H    0.195810
     6  C    0.660416
     7  C   -0.336355
     8  H    0.229215
     9  H    0.212518
    10  O   -0.524377
    11  C    0.624310
    12  N   -0.685322
    13  H    0.424492
    14  H    0.369081
    15  O   -0.516445
    16  N   -0.626636
    17  H    0.365256
    18  C   -0.063727
    19  H    0.190135
    20  C    0.635935
    21  C   -0.364575
    22  H    0.170789
    23  H    0.182765
    24  O   -0.542563
    25  C    0.181784
    26  C   -0.141719
    27  H    0.147971
    28  C   -0.199772
    29  H    0.143315
    30  C   -0.146799
    31  H    0.151139
    32  C   -0.141996
    33  H    0.156198
    34  C   -0.197680
    35  H    0.154936
    36  N   -0.629855
    37  H    0.357499
    38  C   -0.044857
    39  H    0.214079
    40  C    0.594737
    41  C   -0.348829
    42  H    0.141028
    43  H    0.205561
    44  O   -0.564608
    45  C    0.570983
    46  N   -0.717297
    47  H    0.377282
    48  H    0.327226
    49  O   -0.507251
    50  N   -0.619256
    51  H    0.385532
    52  C   -0.056923
    53  H    0.156601
    54  C    0.597419
    55  C   -0.294974
    56  H    0.165285
    57  H    0.166677
    58  O   -0.635977
    59  C   -0.277896
    60  H    0.174158
    61  H    0.149076
    62  C   -0.156386
    63  H    0.137552
    64  H    0.180474
    65  N   -0.613826
    66  H    0.437974
    67  N   -0.757449
    68  H    0.364679
    69  H    0.366568
    70  N   -0.778473
    71  H    0.350835
    72  H    0.403042
    73  C    0.751243
    74  O   -0.539089
    75  H    0.446530
 Sum of Mulliken charges =   1.00000

 Dipole moment (field-independent basis, Debye):
    X=            -21.0127    Y=             -1.4280    Z=             -3.6044  Tot=             21.3674
 Quadrupole moment (field-independent basis, Debye-Ang):
   XX=            -98.8683   YY=           -203.9346   ZZ=            -59.5604
   XY=              2.1361   XZ=           -120.6223   YZ=            -45.7117

 Normal termination of Gaussian 16 at Tue May 31 12:47:24 2022.
