 Gaussian 16, Revision C.01,
 Gaussian 16:  ES64L-G16RevC.01  3-Jul-2019

 ----------------------------------------------------------------------
 # B3LYP/6-31G* empiricaldispersion=gd3 guess=read geom=check nosymm in
 tegral(ultrafinegrid)
 ----------------------------------------------------------------------

 ------------------------------------------------------
 Candidate Structure: Conf:497 Charge calc in gas phase
 ------------------------------------------------------
 Structure from the checkpoint file:  "conf-497.chk"
 Charge =  1 Multiplicity = 1

                          Input orientation:
 ---------------------------------------------------------------------
 Center     Atomic      Atomic             Coordinates (Angstroms)
 Number     Number       Type             X           Y           Z
 ---------------------------------------------------------------------
      1          7           0       -5.727136    0.120411    4.030973
      2          1           0       -5.631592   -0.892225    4.061257
      3          1           0       -6.183246    0.451308    4.876047
      4          6           0       -4.458724    0.744844    3.792256
      5          1           0       -4.604449    1.807009    3.571146
      6          6           0       -3.767618    0.031098    2.619086
      7          6           0       -3.434832    0.672231    5.029113
      8          1           0       -3.675150    1.471577    5.734260
      9          1           0       -3.542776   -0.298035    5.518603
     10          8           0       -3.649295   -1.190527    2.623748
     11          6           0       -2.067229    0.851890    4.482140
     12          7           0       -1.255984   -0.178541    4.333265
     13          1           0       -1.582169   -1.113759    4.544855
     14          1           0       -0.432469   -0.083745    3.742968
     15          8           0       -1.768189    2.010408    3.991814
     16          7           0       -3.190561    0.854955    1.704210
     17          1           0       -3.374501    1.849952    1.747843
     18          6           0       -2.343956    0.395653    0.620955
     19          1           0       -2.393725   -0.698862    0.637883
     20          6           0       -0.868779    0.786349    0.887133
     21          6           0       -2.882436    0.910647   -0.745744
     22          1           0       -2.304518    0.464154   -1.561732
     23          1           0       -3.901551    0.522082   -0.842198
     24          8           0       -0.458373    1.248784    1.986445
     25          6           0       -2.869792    2.421407   -0.848345
     26          6           0       -3.941897    3.175912   -0.345755
     27          1           0       -4.824847    2.666466    0.036096
     28          6           0       -1.771526    3.094620   -1.403816
     29          1           0       -0.952009    2.527807   -1.837473
     30          6           0       -3.905441    4.571802   -0.369280
     31          1           0       -4.747205    5.140833    0.015367
     32          6           0       -1.738039    4.489388   -1.430024
     33          1           0       -0.884108    4.996478   -1.870395
     34          6           0       -2.798267    5.231615   -0.905052
     35          1           0       -2.769806    6.317116   -0.929353
     36          7           0       -0.019971    0.557989   -0.101421
     37          1           0       -0.334856    0.270333   -1.028393
     38          6           0        1.378496    0.970245   -0.111616
     39          1           0        1.506200    1.845957    0.528352
     40          6           0        1.685587    1.289096   -1.589141
     41          6           0        2.297831   -0.159419    0.395927
     42          1           0        2.323284   -0.981836   -0.323436
     43          1           0        1.885675   -0.538694    1.339756
     44          8           0        0.907702    0.902625   -2.466960
     45          6           0        3.707135    0.351285    0.695189
     46          7           0        4.684505   -0.599603    0.687599
     47          1           0        5.619384   -0.219157    0.786785
     48          1           0        4.604558   -1.300013   -0.042164
     49          8           0        3.907314    1.524642    1.008059
     50          7           0        2.833202    1.956307   -1.826618
     51          1           0        3.434194    2.084266   -1.016809
     52          6           0        3.517965    1.746156   -3.105191
     53          1           0        2.783969    1.899648   -3.899736
     54          6           0        4.015341    0.259244   -3.185203
     55          6           0        4.659768    2.793043   -3.224073
     56          1           0        4.331433    3.667748   -2.652718
     57          1           0        5.553220    2.415414   -2.707520
     58          8           0        4.054111   -0.405943   -2.139594
     59          6           0        5.030239    3.278562   -4.651813
     60          1           0        4.231140    3.024212   -5.359036
     61          1           0        5.098487    4.371981   -4.655552
     62          6           0        6.362628    2.753364   -5.205886
     63          1           0        6.566820    3.222835   -6.177191
     64          1           0        7.186291    3.013967   -4.527843
     65          7           0        6.282969    1.300847   -5.348810
     66          1           0        5.342934    0.872272   -5.157052
     67          7           0        8.564850    0.819052   -5.299256
     68          1           0        9.314606    0.169503   -5.114516
     69          1           0        8.786184    1.624260   -5.865820
     70          7           0        6.969607   -0.806661   -4.761024
     71          1           0        7.613097   -1.572527   -4.891844
     72          1           0        5.977828   -0.978010   -4.510699
     73          6           0        7.273793    0.438112   -5.151414
     74          8           0        4.362853   -0.128721   -4.353414
     75          1           0       -1.163890    1.869680    3.152712
 ---------------------------------------------------------------------

 SCF Done:  E(RB3LYP) =  -1917.46074824     A.U. after    1 cycles

 Alpha  occ. eigenvalues --  -19.32243 -19.25481 -19.22901 -19.19898 -19.19128
 Alpha  occ. eigenvalues --  -19.15995 -19.15180 -14.52633 -14.47740 -14.47618
 Alpha  occ. eigenvalues --  -14.47229 -14.45224 -14.44454 -14.42615 -14.42370
 Alpha  occ. eigenvalues --  -14.41682 -10.46720 -10.42462 -10.41478 -10.40148
 Alpha  occ. eigenvalues --  -10.36519 -10.36518 -10.35369 -10.34962 -10.33402
 Alpha  occ. eigenvalues --  -10.33399 -10.32293 -10.31594 -10.29400 -10.28749
 Alpha  occ. eigenvalues --  -10.28124 -10.27829 -10.27345 -10.27104 -10.26836
 Alpha  occ. eigenvalues --  -10.26726 -10.26612 -10.26527 -10.26509  -1.23593
 Alpha  occ. eigenvalues --   -1.16186  -1.14900  -1.11766  -1.11205  -1.10647
 Alpha  occ. eigenvalues --   -1.08667  -1.08391  -1.04304  -1.03830  -1.01084
 Alpha  occ. eigenvalues --   -1.00494  -0.99960  -0.99150  -0.99058  -0.97061
 Alpha  occ. eigenvalues --   -0.93669  -0.90601  -0.89458  -0.87544  -0.86346
 Alpha  occ. eigenvalues --   -0.83112  -0.82191  -0.81508  -0.79220  -0.77692
 Alpha  occ. eigenvalues --   -0.76074  -0.75196  -0.73563  -0.72812  -0.72512
 Alpha  occ. eigenvalues --   -0.70468  -0.70145  -0.68687  -0.68632  -0.68262
 Alpha  occ. eigenvalues --   -0.67426  -0.66550  -0.66204  -0.65182  -0.64881
 Alpha  occ. eigenvalues --   -0.63958  -0.62952  -0.62168  -0.60533  -0.60121
 Alpha  occ. eigenvalues --   -0.60055  -0.59763  -0.58949  -0.58908  -0.57905
 Alpha  occ. eigenvalues --   -0.57160  -0.57038  -0.56209  -0.55846  -0.55672
 Alpha  occ. eigenvalues --   -0.55154  -0.55025  -0.54446  -0.54063  -0.53605
 Alpha  occ. eigenvalues --   -0.53489  -0.52908  -0.52563  -0.51894  -0.51064
 Alpha  occ. eigenvalues --   -0.50653  -0.50487  -0.50033  -0.49744  -0.49313
 Alpha  occ. eigenvalues --   -0.49209  -0.49037  -0.48444  -0.47995  -0.47754
 Alpha  occ. eigenvalues --   -0.47472  -0.47340  -0.47071  -0.46867  -0.45712
 Alpha  occ. eigenvalues --   -0.45290  -0.44638  -0.43653  -0.43546  -0.43228
 Alpha  occ. eigenvalues --   -0.42734  -0.42257  -0.41902  -0.41651  -0.40790
 Alpha  occ. eigenvalues --   -0.39583  -0.38231  -0.37727  -0.37223  -0.36952
 Alpha  occ. eigenvalues --   -0.35246  -0.35051  -0.34510  -0.34326  -0.33561
 Alpha  occ. eigenvalues --   -0.32876  -0.32451  -0.32387  -0.31192  -0.29791
 Alpha  occ. eigenvalues --   -0.29322
 Alpha virt. eigenvalues --   -0.15985  -0.10691  -0.09497  -0.08298  -0.08191
 Alpha virt. eigenvalues --   -0.07210  -0.06176  -0.05557  -0.04609  -0.03613
 Alpha virt. eigenvalues --   -0.02022  -0.01439  -0.01389  -0.00330   0.00021

 Mulliken charges:
               1
     1  N   -0.697518
     2  H    0.335620
     3  H    0.324988
     4  C   -0.034606
     5  H    0.172712
     6  C    0.583508
     7  C   -0.355237
     8  H    0.218898
     9  H    0.184698
    10  O   -0.524138
    11  C    0.583100
    12  N   -0.672005
    13  H    0.395648
    14  H    0.397457
    15  O   -0.554530
    16  N   -0.595138
    17  H    0.352651
    18  C   -0.080468
    19  H    0.221843
    20  C    0.654083
    21  C   -0.384520
    22  H    0.182715
    23  H    0.187536
    24  O   -0.635446
    25  C    0.148810
    26  C   -0.216799
    27  H    0.138632
    28  C   -0.197758
    29  H    0.164036
    30  C   -0.126582
    31  H    0.148140
    32  C   -0.131341
    33  H    0.148747
    34  C   -0.125869
    35  H    0.150364
    36  N   -0.586703
    37  H    0.380232
    38  C   -0.074476
    39  H    0.212176
    40  C    0.637059
    41  C   -0.343278
    42  H    0.197102
    43  H    0.167339
    44  O   -0.546424
    45  C    0.594432
    46  N   -0.721753
    47  H    0.336027
    48  H    0.364460
    49  O   -0.525320
    50  N   -0.608401
    51  H    0.361519
    52  C   -0.054476
    53  H    0.184006
    54  C    0.609075
    55  C   -0.307613
    56  H    0.168134
    57  H    0.150379
    58  O   -0.574090
    59  C   -0.303923
    60  H    0.173672
    61  H    0.164584
    62  C   -0.147933
    63  H    0.166590
    64  H    0.163925
    65  N   -0.610337
    66  H    0.414311
    67  N   -0.756073
    68  H    0.365084
    69  H    0.372797
    70  N   -0.779755
    71  H    0.350105
    72  H    0.415783
    73  C    0.769786
    74  O   -0.629400
    75  H    0.489143
 Sum of Mulliken charges =   1.00000

 Dipole moment (field-independent basis, Debye):
    X=              9.0365    Y=              4.8876    Z=              1.6306  Tot=             10.4022
 Quadrupole moment (field-independent basis, Debye-Ang):
   XX=            -31.0749   YY=           -198.1335   ZZ=           -113.5911
   XY=             -1.5823   XZ=           -137.1778   YZ=            -19.2193

 Normal termination of Gaussian 16 at Tue May 31 12:47:23 2022.
