 Gaussian 16, Revision C.01,
 Gaussian 16:  ES64L-G16RevC.01  3-Jul-2019

 ----------------------------------------------------------------------
 # B3LYP/6-31G* empiricaldispersion=gd3 guess=read geom=check nosymm in
 tegral(ultrafinegrid)
 ----------------------------------------------------------------------

 ------------------------------------------------------
 Candidate Structure: Conf:553 Charge calc in gas phase
 ------------------------------------------------------
 Structure from the checkpoint file:  "conf-553.chk"
 Charge =  1 Multiplicity = 1

                          Input orientation:
 ---------------------------------------------------------------------
 Center     Atomic      Atomic             Coordinates (Angstroms)
 Number     Number       Type             X           Y           Z
 ---------------------------------------------------------------------
      1          7           0       -6.255075    0.081959    2.552907
      2          1           0       -6.542924    0.936615    2.038572
      3          1           0       -6.172435   -0.663640    1.821140
      4          1           0       -6.943173   -0.152633    3.272985
      5          6           0       -4.839371    0.228081    3.063455
      6          1           0       -4.715527    1.256799    3.404435
      7          6           0       -4.022154   -0.030929    1.771175
      8          6           0       -4.537281   -0.782547    4.179065
      9          1           0       -5.102087   -0.527637    5.084890
     10          1           0       -4.803930   -1.793188    3.859395
     11          8           0       -4.539097   -0.755928    0.914639
     12          6           0       -3.017389   -0.792654    4.435318
     13          7           0       -2.524011    0.367121    4.987064
     14          1           0       -1.530951    0.365156    5.194774
     15          1           0       -3.098125    0.926660    5.605171
     16          8           0       -2.317424   -1.699482    4.035537
     17          7           0       -2.867514    0.619258    1.661449
     18          1           0       -2.424479    1.086752    2.451350
     19          6           0       -2.166252    0.759849    0.396313
     20          1           0       -2.327469   -0.145165   -0.193994
     21          6           0       -0.683183    0.967101    0.747365
     22          6           0       -2.698402    2.015734   -0.378317
     23          1           0       -2.243304    2.905157    0.071877
     24          1           0       -2.339008    1.955436   -1.411015
     25          8           0       -0.371527    1.377386    1.869104
     26          6           0       -4.206186    2.136104   -0.327180
     27          6           0       -4.816534    2.887020    0.687357
     28          1           0       -4.196391    3.459335    1.373519
     29          6           0       -5.025870    1.434818   -1.222390
     30          1           0       -4.570088    0.843583   -2.012032
     31          6           0       -6.211305    2.928575    0.816174
     32          1           0       -6.666259    3.559431    1.576891
     33          6           0       -6.414614    1.466883   -1.101112
     34          1           0       -7.030264    0.920173   -1.809207
     35          6           0       -7.015957    2.210655   -0.079013
     36          1           0       -8.099176    2.263762   -0.006007
     37          7           0        0.179132    0.734510   -0.249931
     38          1           0       -0.110701    0.401962   -1.169166
     39          6           0        1.601842    1.025058   -0.171153
     40          1           0        1.752507    2.011624    0.276986
     41          6           0        2.093549    1.003266   -1.635761
     42          6           0        2.336254   -0.027161    0.690878
     43          1           0        2.449804   -0.961250    0.127451
     44          1           0        1.712707   -0.238948    1.566596
     45          8           0        1.388695    0.501386   -2.515500
     46          6           0        3.706962    0.442002    1.177219
     47          7           0        4.321124   -0.393222    2.050308
     48          1           0        5.239859   -0.143463    2.390193
     49          1           0        3.913677   -1.266261    2.350092
     50          8           0        4.220425    1.503977    0.824722
     51          7           0        3.314366    1.522338   -1.849311
     52          1           0        3.861637    1.768072   -1.023590
     53          6           0        3.999240    1.300282   -3.114152
     54          1           0        3.356255    1.633566   -3.933100
     55          6           0        4.265325   -0.183480   -3.372072
     56          6           0        5.321467    2.094054   -3.129775
     57          1           0        5.084277    3.118339   -2.814846
     58          1           0        5.994046    1.675362   -2.366877
     59          8           0        4.422464   -0.667601   -4.467153
     60          6           0        6.007315    2.133138   -4.498267
     61          1           0        6.215298    1.116150   -4.851299
     62          1           0        5.340774    2.602671   -5.228789
     63          6           0        7.310210    2.944493   -4.448939
     64          1           0        7.104918    3.950378   -4.072400
     65          1           0        8.028833    2.472401   -3.766630
     66          7           0        7.964522    3.097580   -5.742517
     67          1           0        8.303678    2.231412   -6.146102
     68          7           0        8.068940    3.871460   -7.918626
     69          1           0        7.806471    4.593798   -8.577968
     70          1           0        9.077615    3.783058   -7.849112
     71          7           0        6.410311    4.709390   -6.380874
     72          1           0        6.209483    5.373509   -7.129687
     73          6           0        7.412902    3.963914   -6.681685
     74          8           0        4.379511   -0.905574   -2.223406
     75          1           0        4.588089   -1.815680   -2.507292
 ---------------------------------------------------------------------

 SCF Done:  E(RB3LYP) =  -1917.43279285     A.U. after    1 cycles

 Alpha  occ. eigenvalues --  -19.26119 -19.25717 -19.24116 -19.21591 -19.20022
 Alpha  occ. eigenvalues --  -19.19581 -19.19339 -14.60112 -14.48980 -14.48224
 Alpha  occ. eigenvalues --  -14.45252 -14.43992 -14.42189 -14.38248 -14.37971
 Alpha  occ. eigenvalues --  -14.31842 -10.43193 -10.42051 -10.41362 -10.38791
 Alpha  occ. eigenvalues --  -10.37758 -10.37622 -10.36094 -10.35051 -10.34874
 Alpha  occ. eigenvalues --  -10.32005 -10.31386 -10.31055 -10.30982 -10.30721
 Alpha  occ. eigenvalues --  -10.30605 -10.30526 -10.30145 -10.29995 -10.29684
 Alpha  occ. eigenvalues --  -10.28350 -10.25088 -10.24784 -10.22034  -1.18993
 Alpha  occ. eigenvalues --   -1.16297  -1.16115  -1.14098  -1.13480  -1.11801
 Alpha  occ. eigenvalues --   -1.11053  -1.07278  -1.06003  -1.03002  -1.01950
 Alpha  occ. eigenvalues --   -1.00841  -0.99588  -0.98721  -0.97021  -0.94138
 Alpha  occ. eigenvalues --   -0.92100  -0.90324  -0.87505  -0.87391  -0.85785
 Alpha  occ. eigenvalues --   -0.85497  -0.84505  -0.82371  -0.79127  -0.77862
 Alpha  occ. eigenvalues --   -0.76221  -0.74704  -0.73543  -0.71991  -0.71906
 Alpha  occ. eigenvalues --   -0.71422  -0.70730  -0.69549  -0.68969  -0.68156
 Alpha  occ. eigenvalues --   -0.66744  -0.66431  -0.65767  -0.65148  -0.63848
 Alpha  occ. eigenvalues --   -0.63378  -0.62453  -0.62195  -0.61697  -0.61373
 Alpha  occ. eigenvalues --   -0.59894  -0.59186  -0.59012  -0.57930  -0.57580
 Alpha  occ. eigenvalues --   -0.57161  -0.56789  -0.56398  -0.55868  -0.55272
 Alpha  occ. eigenvalues --   -0.55057  -0.54502  -0.54160  -0.53196  -0.53110
 Alpha  occ. eigenvalues --   -0.52971  -0.52715  -0.52584  -0.52407  -0.51979
 Alpha  occ. eigenvalues --   -0.51430  -0.50824  -0.50534  -0.50326  -0.49528
 Alpha  occ. eigenvalues --   -0.49224  -0.48565  -0.48044  -0.47895  -0.47482
 Alpha  occ. eigenvalues --   -0.47309  -0.46960  -0.46257  -0.45942  -0.45313
 Alpha  occ. eigenvalues --   -0.44997  -0.44732  -0.44033  -0.43136  -0.42823
 Alpha  occ. eigenvalues --   -0.41541  -0.40918  -0.39997  -0.39967  -0.39443
 Alpha  occ. eigenvalues --   -0.39118  -0.38382  -0.37500  -0.36973  -0.36408
 Alpha  occ. eigenvalues --   -0.36317  -0.35862  -0.35334  -0.35077  -0.34595
 Alpha  occ. eigenvalues --   -0.33629  -0.33189  -0.31332  -0.29936  -0.28799
 Alpha  occ. eigenvalues --   -0.26067
 Alpha virt. eigenvalues --   -0.13192  -0.12279  -0.11838  -0.11181  -0.09750
 Alpha virt. eigenvalues --   -0.07285  -0.05760  -0.05676  -0.05375  -0.04298
 Alpha virt. eigenvalues --   -0.03427  -0.02331  -0.01779  -0.01188  -0.00105

 Mulliken charges:
               1
     1  N   -0.754936
     2  H    0.410633
     3  H    0.427053
     4  H    0.406091
     5  C   -0.114663
     6  H    0.207449
     7  C    0.667302
     8  C   -0.373012
     9  H    0.181495
    10  H    0.215640
    11  O   -0.538683
    12  C    0.562151
    13  N   -0.738524
    14  H    0.374160
    15  H    0.346141
    16  O   -0.438918
    17  N   -0.595722
    18  H    0.374752
    19  C   -0.064003
    20  H    0.202415
    21  C    0.642617
    22  C   -0.368141
    23  H    0.179235
    24  H    0.187763
    25  O   -0.553627
    26  C    0.165848
    27  C   -0.188934
    28  H    0.145628
    29  C   -0.143449
    30  H    0.159895
    31  C   -0.201360
    32  H    0.156235
    33  C   -0.125245
    34  H    0.166225
    35  C   -0.166400
    36  H    0.160648
    37  N   -0.630760
    38  H    0.364707
    39  C   -0.041502
    40  H    0.202237
    41  C    0.614781
    42  C   -0.386884
    43  H    0.193688
    44  H    0.196319
    45  O   -0.545296
    46  C    0.635149
    47  N   -0.743863
    48  H    0.359115
    49  H    0.349776
    50  O   -0.525645
    51  N   -0.639104
    52  H    0.390419
    53  C   -0.009797
    54  H    0.200690
    55  C    0.598151
    56  C   -0.316131
    57  H    0.169132
    58  H    0.149050
    59  O   -0.451264
    60  C   -0.275651
    61  H    0.149545
    62  H    0.181601
    63  C   -0.124522
    64  H    0.176459
    65  H    0.133277
    66  N   -0.593725
    67  H    0.318570
    68  N   -0.756796
    69  H    0.322690
    70  H    0.326334
    71  N   -0.653812
    72  H    0.267087
    73  C    0.591423
    74  O   -0.582950
    75  H    0.413740
 Sum of Mulliken charges =   1.00000

 Dipole moment (field-independent basis, Debye):
    X=            -16.4505    Y=              2.8784    Z=             12.5533  Tot=             20.8923
 Quadrupole moment (field-independent basis, Debye-Ang):
   XX=            -13.6759   YY=           -218.4364   ZZ=           -145.2850
   XY=            -17.0260   XZ=            -88.3253   YZ=             -9.0571

 Normal termination of Gaussian 16 at Tue May 31 12:47:29 2022.
