 Gaussian 16, Revision C.01,
 Gaussian 16:  ES64L-G16RevC.01  3-Jul-2019

 ----------------------------------------------------------------------
 # B3LYP/6-31G* empiricaldispersion=gd3 guess=read geom=check nosymm in
 tegral(ultrafinegrid)
 ----------------------------------------------------------------------

 ------------------------------------------------------
 Candidate Structure: Conf:364 Charge calc in gas phase
 ------------------------------------------------------
 Structure from the checkpoint file:  "conf-364.chk"
 Charge =  1 Multiplicity = 1

                          Input orientation:
 ---------------------------------------------------------------------
 Center     Atomic      Atomic             Coordinates (Angstroms)
 Number     Number       Type             X           Y           Z
 ---------------------------------------------------------------------
      1          7           0       -3.455986   -2.468362    3.147510
      2          1           0       -2.699927   -2.995001    2.716320
      3          1           0       -3.737004   -2.914633    4.015666
      4          6           0       -3.099167   -1.087129    3.309434
      5          1           0       -3.976042   -0.523950    3.641310
      6          6           0       -2.601066   -0.556636    1.955989
      7          6           0       -1.938724   -0.818958    4.398533
      8          1           0       -2.406787   -0.589527    5.359485
      9          1           0       -1.332944   -1.721673    4.502885
     10          8           0       -1.630641   -1.074328    1.403381
     11          6           0       -1.111426    0.329715    3.948204
     12          7           0        0.128060    0.163603    3.529875
     13          1           0        0.516357   -0.767294    3.445124
     14          1           0        0.583400    0.910225    3.011901
     15          8           0       -1.700008    1.476872    3.840234
     16          7           0       -3.186605    0.578235    1.507434
     17          1           0       -4.051939    0.901971    1.922853
     18          6           0       -2.697802    1.288252    0.341102
     19          1           0       -2.784949    0.643937   -0.541923
     20          6           0       -1.226870    1.690442    0.518380
     21          6           0       -3.529249    2.583087    0.124596
     22          1           0       -3.290969    3.283226    0.933508
     23          1           0       -3.186667    3.041044   -0.809706
     24          8           0       -0.764402    2.141034    1.600149
     25          6           0       -5.015684    2.308132    0.083916
     26          6           0       -5.594853    1.683930   -1.029294
     27          1           0       -4.978703    1.441195   -1.892609
     28          6           0       -5.825958    2.622988    1.183323
     29          1           0       -5.393729    3.133533    2.042359
     30          6           0       -6.955266    1.381382   -1.042928
     31          1           0       -7.393751    0.904698   -1.914784
     32          6           0       -7.190138    2.318512    1.171969
     33          1           0       -7.808625    2.578071    2.026290
     34          6           0       -7.755602    1.695548    0.059621
     35          1           0       -8.816006    1.461983    0.046040
     36          7           0       -0.486247    1.650786   -0.581949
     37          1           0       -0.835727    1.233794   -1.442594
     38          6           0        0.893840    2.104842   -0.680875
     39          1           0        1.007960    3.009906   -0.078907
     40          6           0        1.164710    2.368539   -2.173139
     41          6           0        1.872746    0.993172   -0.187298
     42          1           0        1.543520    0.036370   -0.596379
     43          1           0        1.828905    0.944500    0.906641
     44          8           0        0.661452    1.596130   -3.003621
     45          6           0        3.296866    1.252690   -0.689044
     46          7           0        4.003254    2.202856   -0.033212
     47          1           0        4.673883    2.729132   -0.606332
     48          1           0        3.537618    2.760128    0.671229
     49          8           0        3.729697    0.662509   -1.680165
     50          7           0        2.012102    3.369112   -2.447701
     51          1           0        2.503658    3.850590   -1.688843
     52          6           0        2.891050    3.291910   -3.616935
     53          1           0        2.909864    2.240134   -3.857076
     54          6           0        4.349981    3.620431   -3.168513
     55          6           0        2.457931    4.086218   -4.863614
     56          1           0        1.824123    4.926819   -4.559814
     57          1           0        3.361356    4.507860   -5.316373
     58          8           0        5.214163    3.347494   -4.042023
     59          6           0        1.729148    3.248212   -5.927473
     60          1           0        0.775370    2.874760   -5.530973
     61          1           0        1.481729    3.896068   -6.777151
     62          6           0        2.539253    2.057169   -6.485806
     63          1           0        2.138568    1.759319   -7.460571
     64          1           0        3.588497    2.323582   -6.632716
     65          7           0        2.473523    0.868289   -5.615260
     66          1           0        1.544513    0.672662   -5.258128
     67          7           0        4.694761    0.844502   -4.858499
     68          1           0        5.364092    0.314492   -4.312836
     69          1           0        4.868906    1.886538   -4.797367
     70          7           0        3.198169   -0.772869   -4.134568
     71          1           0        3.494864   -0.682643   -3.161758
     72          1           0        2.272045   -1.168676   -4.236792
     73          6           0        3.462063    0.341420   -4.875308
     74          8           0        4.502821    4.076194   -2.009469
     75          1           0       -1.372696    1.956498    2.972039
 ---------------------------------------------------------------------

 SCF Done:  E(RB3LYP) =  -1917.44374828     A.U. after    1 cycles

 Alpha  occ. eigenvalues --  -19.33870 -19.27759 -19.24858 -19.22231 -19.21550
 Alpha  occ. eigenvalues --  -19.14934 -19.14679 -14.54478 -14.50200 -14.49241
 Alpha  occ. eigenvalues --  -14.47041 -14.45283 -14.44381 -14.44349 -14.44062
 Alpha  occ. eigenvalues --  -14.43850 -10.48529 -10.43734 -10.41986 -10.41762
 Alpha  occ. eigenvalues --  -10.39008 -10.38966 -10.37078 -10.37038 -10.36057
 Alpha  occ. eigenvalues --  -10.35076 -10.32913 -10.31677 -10.31351 -10.31299
 Alpha  occ. eigenvalues --  -10.30008 -10.28859 -10.28633 -10.28411 -10.28330
 Alpha  occ. eigenvalues --  -10.28232 -10.28103 -10.26606 -10.25249  -1.25245
 Alpha  occ. eigenvalues --   -1.18532  -1.16731  -1.13805  -1.12798  -1.10732
 Alpha  occ. eigenvalues --   -1.10190  -1.08118  -1.06622  -1.05900  -1.02159
 Alpha  occ. eigenvalues --   -1.01479  -1.00523  -0.99716  -0.99310  -0.97849
 Alpha  occ. eigenvalues --   -0.95536  -0.92166  -0.91688  -0.89358  -0.86990
 Alpha  occ. eigenvalues --   -0.84948  -0.83950  -0.81958  -0.81223  -0.79863
 Alpha  occ. eigenvalues --   -0.77913  -0.76372  -0.74845  -0.74357  -0.72629
 Alpha  occ. eigenvalues --   -0.71879  -0.71727  -0.70796  -0.70140  -0.68915
 Alpha  occ. eigenvalues --   -0.68238  -0.67730  -0.66919  -0.66172  -0.66041
 Alpha  occ. eigenvalues --   -0.65664  -0.64130  -0.63726  -0.63576  -0.62241
 Alpha  occ. eigenvalues --   -0.61810  -0.60270  -0.60065  -0.59721  -0.59374
 Alpha  occ. eigenvalues --   -0.58421  -0.58213  -0.57773  -0.57523  -0.57171
 Alpha  occ. eigenvalues --   -0.56805  -0.55766  -0.55593  -0.55413  -0.55177
 Alpha  occ. eigenvalues --   -0.54971  -0.54234  -0.53710  -0.52854  -0.52471
 Alpha  occ. eigenvalues --   -0.51915  -0.51667  -0.51470  -0.50892  -0.50800
 Alpha  occ. eigenvalues --   -0.50705  -0.50303  -0.49919  -0.49611  -0.49471
 Alpha  occ. eigenvalues --   -0.48663  -0.48142  -0.48077  -0.47503  -0.47294
 Alpha  occ. eigenvalues --   -0.46657  -0.46581  -0.45336  -0.45141  -0.44144
 Alpha  occ. eigenvalues --   -0.44006  -0.43592  -0.42396  -0.42112  -0.41345
 Alpha  occ. eigenvalues --   -0.40735  -0.40335  -0.39046  -0.38672  -0.37560
 Alpha  occ. eigenvalues --   -0.36817  -0.36307  -0.35989  -0.35614  -0.34903
 Alpha  occ. eigenvalues --   -0.34628  -0.34620  -0.34143  -0.30349  -0.29318
 Alpha  occ. eigenvalues --   -0.28970
 Alpha virt. eigenvalues --   -0.17901  -0.13125  -0.11490  -0.10070  -0.09573
 Alpha virt. eigenvalues --   -0.08980  -0.08593  -0.07970  -0.06821  -0.04645
 Alpha virt. eigenvalues --   -0.03562  -0.03180  -0.02369  -0.01845  -0.01472

 Mulliken charges:
               1
     1  N   -0.696377
     2  H    0.332239
     3  H    0.329602
     4  C   -0.033104
     5  H    0.174570
     6  C    0.605159
     7  C   -0.357133
     8  H    0.224762
     9  H    0.180753
    10  O   -0.543959
    11  C    0.591722
    12  N   -0.670953
    13  H    0.393758
    14  H    0.399492
    15  O   -0.557901
    16  N   -0.607515
    17  H    0.359079
    18  C   -0.025727
    19  H    0.184622
    20  C    0.685530
    21  C   -0.400094
    22  H    0.177146
    23  H    0.185854
    24  O   -0.642427
    25  C    0.161226
    26  C   -0.174096
    27  H    0.134269
    28  C   -0.214491
    29  H    0.137746
    30  C   -0.124142
    31  H    0.157185
    32  C   -0.124099
    33  H    0.155241
    34  C   -0.124581
    35  H    0.159039
    36  N   -0.584255
    37  H    0.369750
    38  C   -0.046606
    39  H    0.182098
    40  C    0.595083
    41  C   -0.344576
    42  H    0.186430
    43  H    0.140191
    44  O   -0.575872
    45  C    0.582648
    46  N   -0.716409
    47  H    0.400507
    48  H    0.326869
    49  O   -0.532887
    50  N   -0.582311
    51  H    0.345030
    52  C   -0.072725
    53  H    0.153481
    54  C    0.615943
    55  C   -0.270647
    56  H    0.154015
    57  H    0.182872
    58  O   -0.583057
    59  C   -0.289291
    60  H    0.151815
    61  H    0.161048
    62  C   -0.163239
    63  H    0.180106
    64  H    0.203009
    65  N   -0.561711
    66  H    0.358151
    67  N   -0.733674
    68  H    0.363412
    69  H    0.416843
    70  N   -0.749188
    71  H    0.390626
    72  H    0.341347
    73  C    0.686943
    74  O   -0.597880
    75  H    0.483716
 Sum of Mulliken charges =   1.00000

 Dipole moment (field-independent basis, Debye):
    X=            -10.7517    Y=             -0.9800    Z=              6.2160  Tot=             12.4579
 Quadrupole moment (field-independent basis, Debye-Ang):
   XX=           -200.1418   YY=           -225.8417   ZZ=           -134.5380
   XY=            -30.4175   XZ=            -13.1930   YZ=             -4.3755

 Normal termination of Gaussian 16 at Tue May 31 12:47:24 2022.
