 Gaussian 16, Revision C.01,
 Gaussian 16:  ES64L-G16RevC.01  3-Jul-2019

 ----------------------------------------------------------------------
 # B3LYP/6-31G* empiricaldispersion=gd3 guess=read geom=check nosymm in
 tegral(ultrafinegrid)
 ----------------------------------------------------------------------

 ------------------------------------------------------
 Candidate Structure: Conf:474 Charge calc in gas phase
 ------------------------------------------------------
 Structure from the checkpoint file:  "conf-474.chk"
 Charge =  1 Multiplicity = 1

                          Input orientation:
 ---------------------------------------------------------------------
 Center     Atomic      Atomic             Coordinates (Angstroms)
 Number     Number       Type             X           Y           Z
 ---------------------------------------------------------------------
      1          7           0       -4.763951    1.400676    3.746813
      2          1           0       -4.761206    0.448966    4.089678
      3          1           0       -5.108148    1.978788    4.500682
      4          6           0       -3.394374    1.781581    3.453804
      5          1           0       -3.375023    2.864408    3.320458
      6          6           0       -2.960302    1.098455    2.162067
      7          6           0       -2.393888    1.376370    4.581050
      8          1           0       -2.197792    0.302949    4.531714
      9          1           0       -1.476736    1.936963    4.394394
     10          8           0       -2.800328   -0.122193    2.126523
     11          6           0       -3.009039    1.691021    5.851704
     12          7           0       -3.251164    2.950515    6.190572
     13          1           0       -2.912093    3.697906    5.586792
     14          1           0       -3.722348    3.271935    7.029739
     15          8           0       -3.462129    0.716222    6.620269
     16          7           0       -2.822830    1.898574    1.072266
     17          1           0       -2.663342    2.878817    1.236789
     18          6           0       -2.178656    1.350280   -0.118562
     19          1           0       -2.566629    0.336146   -0.237258
     20          6           0       -0.680658    1.319151    0.127990
     21          6           0       -2.489906    2.203375   -1.349495
     22          1           0       -3.569111    2.351378   -1.392261
     23          1           0       -2.024261    3.180414   -1.209951
     24          8           0       -0.046863    2.353477    0.316052
     25          6           0       -2.022494    1.547599   -2.626997
     26          6           0       -0.663838    1.454663   -2.938980
     27          1           0        0.062581    1.895030   -2.265509
     28          6           0       -2.942428    0.960619   -3.497124
     29          1           0       -3.998868    1.027087   -3.270607
     30          6           0       -0.232341    0.766839   -4.068567
     31          1           0        0.829947    0.657102   -4.246305
     32          6           0       -2.516309    0.296725   -4.645226
     33          1           0       -3.249999   -0.144832   -5.310697
     34          6           0       -1.156863    0.194030   -4.932751
     35          1           0       -0.828734   -0.333732   -5.823323
     36          7           0       -0.113313    0.093916    0.179728
     37          1           0       -0.557191   -0.660751   -0.313255
     38          6           0        1.310736   -0.047958    0.404018
     39          1           0        1.569355    0.579503    1.255470
     40          6           0        2.097533    0.466191   -0.817801
     41          6           0        1.636689   -1.519134    0.671907
     42          1           0        2.704966   -1.703652    0.578869
     43          1           0        1.146898   -2.098190   -0.111419
     44          8           0        1.783163    0.149838   -1.972867
     45          6           0        1.258789   -2.043881    2.055300
     46          7           0        0.015620   -1.775207    2.528466
     47          1           0       -0.170052   -2.119194    3.453850
     48          1           0       -0.657453   -1.164197    2.094356
     49          8           0        2.049904   -2.718832    2.693973
     50          7           0        3.166542    1.254567   -0.527521
     51          1           0        3.658856    1.196937    0.356583
     52          6           0        4.058702    1.674102   -1.568287
     53          1           0        3.953969    1.002232   -2.427309
     54          6           0        5.492826    1.567845   -0.972612
     55          6           0        3.846429    3.123647   -2.020035
     56          1           0        4.211315    3.801203   -1.246248
     57          1           0        4.475955    3.268973   -2.899068
     58          8           0        5.520422    1.337071    0.258571
     59          6           0        2.387076    3.422651   -2.327558
     60          1           0        1.959783    2.605816   -2.915969
     61          1           0        1.825809    3.449635   -1.395811
     62          6           0        2.179617    4.747964   -3.044664
     63          1           0        2.641151    4.724359   -4.033949
     64          1           0        1.113194    4.944647   -3.202180
     65          7           0        2.779900    5.898978   -2.345075
     66          1           0        3.755244    6.060322   -2.546977
     67          7           0        1.202817    5.885127   -0.612989
     68          1           0        0.707168    6.507093    0.008218
     69          1           0        0.608034    5.325294   -1.203248
     70          7           0        3.022352    7.341313   -0.521441
     71          1           0        2.905605    7.374226    0.481994
     72          1           0        3.972479    7.514793   -0.826508
     73          6           0        2.343065    6.357455   -1.169234
     74          8           0        6.432022    1.727731   -1.752468
     75          1           0       -3.906400    1.027449    7.436174
 ---------------------------------------------------------------------

 SCF Done:  E(RB3LYP) =  -1917.29824375     A.U. after    3 cycles

 Alpha  occ. eigenvalues --  -19.40429 -19.24127 -19.21312 -19.16334 -19.15826
 Alpha  occ. eigenvalues --  -19.09788 -19.08928 -14.58283 -14.52954 -14.52859
 Alpha  occ. eigenvalues --  -14.52855 -14.48314 -14.45755 -14.45028 -14.40815
 Alpha  occ. eigenvalues --  -14.38666 -10.51313 -10.49124 -10.41290 -10.38137
 Alpha  occ. eigenvalues --  -10.37888 -10.36374 -10.34605 -10.34015 -10.33334
 Alpha  occ. eigenvalues --  -10.33065 -10.30307 -10.28263 -10.26993 -10.26561
 Alpha  occ. eigenvalues --  -10.26320 -10.25590 -10.25129 -10.24867 -10.24632
 Alpha  occ. eigenvalues --  -10.24602 -10.24390 -10.24363 -10.24135  -1.29897
 Alpha  occ. eigenvalues --   -1.17608  -1.16128  -1.14100  -1.13462  -1.08240
 Alpha  occ. eigenvalues --   -1.07883  -1.06877  -1.06107  -1.04890  -1.04408
 Alpha  occ. eigenvalues --   -1.03466  -1.01777  -0.96448  -0.95615  -0.95114
 Alpha  occ. eigenvalues --   -0.93806  -0.92497  -0.89197  -0.88790  -0.85629
 Alpha  occ. eigenvalues --   -0.85157  -0.82342  -0.81582  -0.80439  -0.79266
 Alpha  occ. eigenvalues --   -0.79177  -0.78730  -0.75783  -0.74994  -0.74470
 Alpha  occ. eigenvalues --   -0.74182  -0.72338  -0.70926  -0.70255  -0.68432
 Alpha  occ. eigenvalues --   -0.67400  -0.66846  -0.66274  -0.65733  -0.65327
 Alpha  occ. eigenvalues --   -0.65028  -0.64805  -0.64347  -0.63571  -0.62637
 Alpha  occ. eigenvalues --   -0.61879  -0.60535  -0.59679  -0.59379  -0.59271
 Alpha  occ. eigenvalues --   -0.59005  -0.58804  -0.57865  -0.57420  -0.56852
 Alpha  occ. eigenvalues --   -0.56437  -0.55862  -0.55299  -0.53795  -0.53311
 Alpha  occ. eigenvalues --   -0.53199  -0.52461  -0.52138  -0.51869  -0.51357
 Alpha  occ. eigenvalues --   -0.51155  -0.50980  -0.49994  -0.49548  -0.49017
 Alpha  occ. eigenvalues --   -0.48164  -0.47862  -0.47267  -0.46786  -0.46540
 Alpha  occ. eigenvalues --   -0.45878  -0.45709  -0.45501  -0.44805  -0.44525
 Alpha  occ. eigenvalues --   -0.44246  -0.43200  -0.42654  -0.41980  -0.41705
 Alpha  occ. eigenvalues --   -0.41161  -0.40702  -0.40568  -0.40123  -0.39742
 Alpha  occ. eigenvalues --   -0.39498  -0.38933  -0.38582  -0.37237  -0.36927
 Alpha  occ. eigenvalues --   -0.35265  -0.34633  -0.31858  -0.31351  -0.30880
 Alpha  occ. eigenvalues --   -0.30469  -0.29750  -0.29242  -0.24743  -0.23793
 Alpha  occ. eigenvalues --   -0.22630
 Alpha virt. eigenvalues --   -0.21672  -0.14346  -0.13750  -0.11422  -0.09353
 Alpha virt. eigenvalues --   -0.09036  -0.08319  -0.07882  -0.06616  -0.05806
 Alpha virt. eigenvalues --   -0.05271  -0.04398  -0.04190  -0.03619  -0.03482

 Mulliken charges:
               1
     1  N   -0.669301
     2  H    0.332495
     3  H    0.304275
     4  C   -0.111083
     5  H    0.141807
     6  C    0.664486
     7  C   -0.374087
     8  H    0.245641
     9  H    0.213453
    10  O   -0.517757
    11  C    0.580072
    12  N   -0.703936
    13  H    0.397601
    14  H    0.393086
    15  O   -0.510496
    16  N   -0.580977
    17  H    0.328968
    18  C   -0.049282
    19  H    0.191018
    20  C    0.632855
    21  C   -0.370385
    22  H    0.165184
    23  H    0.131866
    24  O   -0.567449
    25  C    0.144090
    26  C   -0.197151
    27  H    0.147137
    28  C   -0.190099
    29  H    0.125245
    30  C   -0.126194
    31  H    0.165169
    32  C   -0.127059
    33  H    0.141674
    34  C   -0.132849
    35  H    0.145995
    36  N   -0.587469
    37  H    0.355641
    38  C   -0.062147
    39  H    0.167589
    40  C    0.620479
    41  C   -0.393163
    42  H    0.218954
    43  H    0.181143
    44  O   -0.552053
    45  C    0.580649
    46  N   -0.771163
    47  H    0.330240
    48  H    0.363586
    49  O   -0.490314
    50  N   -0.592798
    51  H    0.352275
    52  C   -0.073478
    53  H    0.173904
    54  C    0.582497
    55  C   -0.267417
    56  H    0.114351
    57  H    0.160497
    58  O   -0.589481
    59  C   -0.310498
    60  H    0.203768
    61  H    0.172372
    62  C   -0.211734
    63  H    0.203529
    64  H    0.173196
    65  N   -0.546751
    66  H    0.376075
    67  N   -0.710011
    68  H    0.370539
    69  H    0.390865
    70  N   -0.728750
    71  H    0.378361
    72  H    0.381752
    73  C    0.747275
    74  O   -0.529458
    75  H    0.453134
 Sum of Mulliken charges =   1.00000

 Dipole moment (field-independent basis, Debye):
    X=            -21.1173    Y=             31.9008    Z=             19.0513  Tot=             42.7382
 Quadrupole moment (field-independent basis, Debye-Ang):
   XX=           -252.4028   YY=            -51.1601   ZZ=            -56.2292
   XY=             13.9784   XZ=            -91.8572   YZ=             48.9317

 Normal termination of Gaussian 16 at Tue May 31 12:47:53 2022.
