 Gaussian 16, Revision C.01,
 Gaussian 16:  ES64L-G16RevC.01  3-Jul-2019

 ----------------------------------------------------------------------
 # B3LYP/6-31G* empiricaldispersion=gd3 guess=read geom=check nosymm in
 tegral(ultrafinegrid)
 ----------------------------------------------------------------------

 ------------------------------------------------------
 Candidate Structure: Conf:879 Charge calc in gas phase
 ------------------------------------------------------
 Structure from the checkpoint file:  "conf-879.chk"
 Charge =  1 Multiplicity = 1

                          Input orientation:
 ---------------------------------------------------------------------
 Center     Atomic      Atomic             Coordinates (Angstroms)
 Number     Number       Type             X           Y           Z
 ---------------------------------------------------------------------
      1          7           0       -3.416897   -2.912677    2.182366
      2          1           0       -3.862765   -3.635950    2.740976
      3          1           0       -3.541472   -3.128712    1.195396
      4          6           0       -3.969783   -1.592478    2.485375
      5          1           0       -5.067092   -1.578487    2.581942
      6          6           0       -3.577029   -0.649465    1.318423
      7          6           0       -3.381910   -1.086026    3.831378
      8          1           0       -3.822549   -0.131275    4.123112
      9          1           0       -3.625254   -1.795299    4.634624
     10          8           0       -2.952608   -1.061886    0.349092
     11          6           0       -1.885455   -0.896445    3.797203
     12          7           0       -1.144546   -1.631224    3.010436
     13          1           0       -1.629218   -2.381423    2.489428
     14          1           0       -0.152795   -1.410842    2.913272
     15          8           0       -1.392567    0.048873    4.526498
     16          7           0       -3.934558    0.652092    1.482822
     17          1           0       -4.649999    0.860362    2.169610
     18          6           0       -3.713075    1.653537    0.427498
     19          1           0       -3.769699    1.127157   -0.531242
     20          6           0       -2.299833    2.252349    0.608285
     21          6           0       -4.788049    2.751497    0.499001
     22          1           0       -4.584153    3.375792    1.374176
     23          1           0       -4.659548    3.396697   -0.376970
     24          8           0       -2.127352    3.330148    1.190811
     25          6           0       -6.183519    2.171193    0.554506
     26          6           0       -6.919788    2.196867    1.745690
     27          1           0       -6.511576    2.707553    2.616094
     28          6           0       -6.737432    1.534970   -0.565297
     29          1           0       -6.178863    1.510519   -1.498696
     30          6           0       -8.181951    1.599723    1.819784
     31          1           0       -8.744604    1.638484    2.748527
     32          6           0       -7.996189    0.940875   -0.495944
     33          1           0       -8.415377    0.458867   -1.374738
     34          6           0       -8.721398    0.968983    0.699301
     35          1           0       -9.704231    0.509429    0.751323
     36          7           0       -1.300005    1.480011    0.144343
     37          1           0       -1.515901    0.648532   -0.401279
     38          6           0        0.093257    1.891854    0.088477
     39          1           0        0.143078    2.981060    0.177441
     40          6           0        0.677488    1.418757   -1.263435
     41          6           0        0.945158    1.199254    1.177769
     42          1           0        2.003492    1.510049    1.080662
     43          1           0        0.933594    0.120581    0.991634
     44          8           0        0.149859    0.481095   -1.853707
     45          6           0        0.513960    1.400528    2.605076
     46          7           0       -0.114706    2.523211    2.959916
     47          1           0       -0.379765    2.642942    3.929280
     48          1           0       -0.583625    3.127047    2.277589
     49          8           0        0.775925    0.500650    3.454916
     50          7           0        1.823731    2.046774   -1.610085
     51          1           0        2.247624    2.592728   -0.849793
     52          6           0        2.941506    1.288597   -2.190072
     53          1           0        2.659838    0.230839   -2.220597
     54          6           0        4.170120    1.472450   -1.192806
     55          6           0        3.323295    1.719190   -3.610118
     56          1           0        4.069363    0.997605   -3.958270
     57          1           0        2.449925    1.664044   -4.272871
     58          8           0        5.260732    1.081169   -1.633554
     59          6           0        3.946499    3.119104   -3.643547
     60          1           0        3.212585    3.871429   -3.323582
     61          1           0        4.784712    3.122589   -2.938545
     62          6           0        4.485916    3.475588   -5.025174
     63          1           0        5.157771    2.683159   -5.375160
     64          1           0        3.677274    3.605021   -5.755913
     65          7           0        5.270868    4.729541   -4.936826
     66          1           0        5.143392    5.273520   -4.091757
     67          7           0        6.247384    4.592026   -7.036248
     68          1           0        7.091674    4.662223   -7.585878
     69          1           0        5.564626    3.908979   -7.330482
     70          7           0        7.034867    6.132376   -5.497974
     71          1           0        7.534228    6.641405   -6.212680
     72          1           0        7.146046    6.443862   -4.543675
     73          6           0        6.175641    5.144718   -5.812790
     74          8           0        3.883691    2.042976   -0.098932
     75          1           0       -0.395431    0.231778    4.248100
 ---------------------------------------------------------------------

 SCF Done:  E(RB3LYP) =  -1917.42545402     A.U. after    1 cycles

 Alpha  occ. eigenvalues --  -19.30490 -19.23155 -19.22448 -19.20572 -19.17493
 Alpha  occ. eigenvalues --  -19.10113 -19.09012 -14.52131 -14.52047 -14.51716
 Alpha  occ. eigenvalues --  -14.49255 -14.46434 -14.45334 -14.44057 -14.43957
 Alpha  occ. eigenvalues --  -14.39009 -10.48290 -10.44810 -10.39777 -10.39421
 Alpha  occ. eigenvalues --  -10.37432 -10.35207 -10.34110 -10.34012 -10.33100
 Alpha  occ. eigenvalues --  -10.32513 -10.31144 -10.27859 -10.27304 -10.27295
 Alpha  occ. eigenvalues --  -10.27277 -10.26441 -10.26345 -10.26306 -10.26199
 Alpha  occ. eigenvalues --  -10.26132 -10.26001 -10.24762 -10.23736  -1.21715
 Alpha  occ. eigenvalues --   -1.16727  -1.14529  -1.13989  -1.12175  -1.09140
 Alpha  occ. eigenvalues --   -1.06171  -1.05730  -1.05029  -1.03068  -1.02869
 Alpha  occ. eigenvalues --   -1.00871  -1.00791  -1.00214  -0.96750  -0.94142
 Alpha  occ. eigenvalues --   -0.92993  -0.89920  -0.88631  -0.87368  -0.86044
 Alpha  occ. eigenvalues --   -0.82110  -0.81714  -0.81651  -0.78730  -0.78580
 Alpha  occ. eigenvalues --   -0.77044  -0.74805  -0.73976  -0.73049  -0.71742
 Alpha  occ. eigenvalues --   -0.70112  -0.69607  -0.69026  -0.68616  -0.67970
 Alpha  occ. eigenvalues --   -0.67455  -0.66898  -0.66092  -0.65646  -0.65483
 Alpha  occ. eigenvalues --   -0.64617  -0.63972  -0.63174  -0.61034  -0.60562
 Alpha  occ. eigenvalues --   -0.60145  -0.60091  -0.59217  -0.58839  -0.57951
 Alpha  occ. eigenvalues --   -0.57739  -0.57519  -0.56974  -0.55699  -0.55212
 Alpha  occ. eigenvalues --   -0.55007  -0.54618  -0.53409  -0.53281  -0.52665
 Alpha  occ. eigenvalues --   -0.52620  -0.52368  -0.51309  -0.50922  -0.50335
 Alpha  occ. eigenvalues --   -0.49784  -0.49252  -0.49169  -0.49063  -0.48495
 Alpha  occ. eigenvalues --   -0.48410  -0.48058  -0.47775  -0.47344  -0.46946
 Alpha  occ. eigenvalues --   -0.46262  -0.45618  -0.44571  -0.44231  -0.43784
 Alpha  occ. eigenvalues --   -0.43374  -0.43152  -0.42855  -0.42540  -0.41403
 Alpha  occ. eigenvalues --   -0.41192  -0.41114  -0.40730  -0.40475  -0.39788
 Alpha  occ. eigenvalues --   -0.39016  -0.38199  -0.37625  -0.37343  -0.37062
 Alpha  occ. eigenvalues --   -0.36808  -0.36238  -0.34125  -0.33692  -0.32386
 Alpha  occ. eigenvalues --   -0.31722  -0.31575  -0.30681  -0.25397  -0.24751
 Alpha  occ. eigenvalues --   -0.23055
 Alpha virt. eigenvalues --   -0.13193  -0.12214  -0.09032  -0.08631  -0.08136
 Alpha virt. eigenvalues --   -0.07851  -0.07545  -0.06533  -0.04287  -0.03638
 Alpha virt. eigenvalues --   -0.03355  -0.03246  -0.02731  -0.00405   0.00331

 Mulliken charges:
               1
     1  N   -0.757137
     2  H    0.333118
     3  H    0.358375
     4  C   -0.107224
     5  H    0.185687
     6  C    0.621942
     7  C   -0.345504
     8  H    0.202581
     9  H    0.215657
    10  O   -0.510096
    11  C    0.605032
    12  N   -0.699688
    13  H    0.426826
    14  H    0.397856
    15  O   -0.568900
    16  N   -0.610393
    17  H    0.342299
    18  C   -0.047897
    19  H    0.190938
    20  C    0.633823
    21  C   -0.395807
    22  H    0.183569
    23  H    0.181832
    24  O   -0.556325
    25  C    0.163242
    26  C   -0.217463
    27  H    0.131933
    28  C   -0.177365
    29  H    0.137827
    30  C   -0.128999
    31  H    0.144949
    32  C   -0.128770
    33  H    0.148714
    34  C   -0.130724
    35  H    0.148107
    36  N   -0.595853
    37  H    0.378765
    38  C   -0.110385
    39  H    0.182124
    40  C    0.590002
    41  C   -0.373668
    42  H    0.270752
    43  H    0.174831
    44  O   -0.522178
    45  C    0.614816
    46  N   -0.731676
    47  H    0.354658
    48  H    0.406267
    49  O   -0.616504
    50  N   -0.583965
    51  H    0.337817
    52  C   -0.097888
    53  H    0.164462
    54  C    0.572408
    55  C   -0.247940
    56  H    0.161446
    57  H    0.134900
    58  O   -0.576858
    59  C   -0.325872
    60  H    0.151526
    61  H    0.199142
    62  C   -0.148646
    63  H    0.187155
    64  H    0.178106
    65  N   -0.597889
    66  H    0.370397
    67  N   -0.754248
    68  H    0.383889
    69  H    0.394230
    70  N   -0.764238
    71  H    0.383708
    72  H    0.387691
    73  C    0.829470
    74  O   -0.604099
    75  H    0.471323
 Sum of Mulliken charges =   1.00000

 Dipole moment (field-independent basis, Debye):
    X=              1.6184    Y=             15.1004    Z=            -11.0429  Tot=             18.7773
 Quadrupole moment (field-independent basis, Debye-Ang):
   XX=            -57.2309   YY=           -100.9029   ZZ=            -47.5189
   XY=            134.6383   XZ=           -174.2131   YZ=           -126.6517

 Normal termination of Gaussian 16 at Tue May 31 12:47:25 2022.
