 Gaussian 16, Revision C.01,
 Gaussian 16:  ES64L-G16RevC.01  3-Jul-2019

 ----------------------------------------------------------------------
 # B3LYP/6-31G* empiricaldispersion=gd3 guess=read geom=check nosymm in
 tegral(ultrafinegrid)
 ----------------------------------------------------------------------

 ------------------------------------------------------
 Candidate Structure: Conf:448 Charge calc in gas phase
 ------------------------------------------------------
 Structure from the checkpoint file:  "conf-448.chk"
 Charge =  1 Multiplicity = 1

                          Input orientation:
 ---------------------------------------------------------------------
 Center     Atomic      Atomic             Coordinates (Angstroms)
 Number     Number       Type             X           Y           Z
 ---------------------------------------------------------------------
      1          7           0       -4.587886    0.370095    3.980845
      2          1           0       -5.044261   -0.454377    3.596625
      3          1           0       -4.942177    0.522650    4.920770
      4          6           0       -3.142837    0.265324    3.945386
      5          1           0       -2.737877    1.124073    4.494859
      6          6           0       -2.609313    0.414751    2.510477
      7          6           0       -2.521919   -1.020301    4.572036
      8          1           0       -2.776521   -1.048578    5.637487
      9          1           0       -2.938923   -1.915133    4.099114
     10          8           0       -1.552996   -0.146478    2.186112
     11          6           0       -1.026681   -1.008143    4.449522
     12          7           0       -0.357658   -2.053975    3.980292
     13          1           0       -0.853065   -2.759393    3.451206
     14          1           0        0.626860   -1.932039    3.756684
     15          8           0       -0.411290    0.018578    4.915912
     16          7           0       -3.301885    1.225023    1.699017
     17          1           0       -4.196062    1.572557    2.033286
     18          6           0       -2.812670    1.626075    0.378149
     19          1           0       -2.816821    0.748392   -0.279974
     20          6           0       -1.378293    2.165831    0.541087
     21          6           0       -3.722353    2.724740   -0.207572
     22          1           0       -3.582902    3.627750    0.395291
     23          1           0       -3.354040    2.950657   -1.215018
     24          8           0       -1.170236    3.198657    1.192579
     25          6           0       -5.177229    2.313655   -0.246618
     26          6           0       -5.632784    1.388116   -1.195802
     27          1           0       -4.941803    0.999541   -1.941182
     28          6           0       -6.084002    2.812187    0.697723
     29          1           0       -5.749334    3.547597    1.426874
     30          6           0       -6.962578    0.969960   -1.200040
     31          1           0       -7.303038    0.258683   -1.947340
     32          6           0       -7.417060    2.392980    0.697755
     33          1           0       -8.109283    2.795611    1.431840
     34          6           0       -7.858321    1.470193   -0.250497
     35          1           0       -8.895533    1.147787   -0.257192
     36          7           0       -0.414733    1.434584   -0.035953
     37          1           0       -0.639904    0.577971   -0.532608
     38          6           0        1.013716    1.683923    0.046826
     39          1           0        1.178713    2.755764    0.187995
     40          6           0        1.617602    1.182393   -1.286684
     41          6           0        1.679822    0.855635    1.171372
     42          1           0        2.765782    1.015543    1.140853
     43          1           0        1.515398   -0.205698    0.965002
     44          8           0        1.112373    0.197792   -1.832676
     45          6           0        1.250193    1.088100    2.603645
     46          7           0        0.680237    2.234063    2.958479
     47          1           0        0.401372    2.348939    3.925619
     48          1           0        0.209223    2.842298    2.275056
     49          8           0        1.519169    0.185452    3.452234
     50          7           0        2.707823    1.831509   -1.703983
     51          1           0        3.059567    2.681402   -1.262790
     52          6           0        3.498754    1.467077   -2.877487
     53          1           0        3.664543    0.386296   -2.884366
     54          6           0        4.837474    2.236849   -2.732216
     55          6           0        2.751511    1.904528   -4.162669
     56          1           0        1.714877    1.566908   -4.056381
     57          1           0        2.731057    3.002278   -4.177280
     58          8           0        5.834356    1.723183   -3.335605
     59          6           0        3.265817    1.358551   -5.505551
     60          1           0        3.326407    0.263912   -5.461862
     61          1           0        2.506039    1.585685   -6.267804
     62          6           0        4.630684    1.858400   -6.005719
     63          1           0        5.414338    1.503989   -5.341502
     64          1           0        4.813359    1.469522   -7.014977
     65          7           0        4.695583    3.328668   -6.066464
     66          1           0        3.911064    3.788933   -6.509717
     67          7           0        6.621163    3.712359   -4.791700
     68          1           0        7.300821    4.393317   -4.480928
     69          1           0        6.450420    2.877489   -4.128169
     70          7           0        5.566461    5.456004   -5.935796
     71          1           0        6.232663    6.110598   -5.553478
     72          1           0        5.170713    5.706899   -6.830544
     73          6           0        5.646420    4.142461   -5.578093
     74          8           0        4.791832    3.322683   -2.125200
     75          1           0        0.569720    0.127421    4.433442
 ---------------------------------------------------------------------

 SCF Done:  E(RB3LYP) =  -1917.47129966     A.U. after    1 cycles

 Alpha  occ. eigenvalues --  -19.30498 -19.25494 -19.23106 -19.21710 -19.19041
 Alpha  occ. eigenvalues --  -19.14604 -19.14160 -14.50600 -14.46895 -14.46871
 Alpha  occ. eigenvalues --  -14.46670 -14.46619 -14.45794 -14.44168 -14.43465
 Alpha  occ. eigenvalues --  -14.42551 -10.45854 -10.42278 -10.41912 -10.39700
 Alpha  occ. eigenvalues --  -10.38795 -10.36374 -10.35187 -10.33682 -10.33402
 Alpha  occ. eigenvalues --  -10.33054 -10.32262 -10.30264 -10.29514 -10.28283
 Alpha  occ. eigenvalues --  -10.27798 -10.27685 -10.26655 -10.26569 -10.26480
 Alpha  occ. eigenvalues --  -10.26461 -10.26262 -10.26125 -10.25119  -1.21894
 Alpha  occ. eigenvalues --   -1.16075  -1.15011  -1.13397  -1.10963  -1.10692
 Alpha  occ. eigenvalues --   -1.07973  -1.06454  -1.03612  -1.02627  -1.02248
 Alpha  occ. eigenvalues --   -1.01002  -1.00384  -1.00072  -0.98523  -0.97834
 Alpha  occ. eigenvalues --   -0.93326  -0.89985  -0.89131  -0.87595  -0.86284
 Alpha  occ. eigenvalues --   -0.82795  -0.81933  -0.81355  -0.79250  -0.78708
 Alpha  occ. eigenvalues --   -0.75140  -0.74799  -0.72787  -0.71955  -0.71073
 Alpha  occ. eigenvalues --   -0.69894  -0.69566  -0.68548  -0.68214  -0.68146
 Alpha  occ. eigenvalues --   -0.67743  -0.66897  -0.66105  -0.65655  -0.64764
 Alpha  occ. eigenvalues --   -0.64324  -0.63668  -0.62564  -0.61615  -0.60322
 Alpha  occ. eigenvalues --   -0.60064  -0.59565  -0.59299  -0.58325  -0.58131
 Alpha  occ. eigenvalues --   -0.57866  -0.57382  -0.56530  -0.55818  -0.55189
 Alpha  occ. eigenvalues --   -0.55089  -0.54379  -0.53688  -0.53506  -0.53322
 Alpha  occ. eigenvalues --   -0.52859  -0.52750  -0.52220  -0.51579  -0.50952
 Alpha  occ. eigenvalues --   -0.50706  -0.50152  -0.49749  -0.49714  -0.49457
 Alpha  occ. eigenvalues --   -0.49135  -0.48884  -0.48509  -0.48140  -0.47756
 Alpha  occ. eigenvalues --   -0.47320  -0.46726  -0.46486  -0.46080  -0.45296
 Alpha  occ. eigenvalues --   -0.44991  -0.44072  -0.43607  -0.43250  -0.43172
 Alpha  occ. eigenvalues --   -0.42227  -0.41620  -0.41515  -0.40845  -0.40018
 Alpha  occ. eigenvalues --   -0.39588  -0.39328  -0.38106  -0.37576  -0.37391
 Alpha  occ. eigenvalues --   -0.36145  -0.35642  -0.34763  -0.34661  -0.33108
 Alpha  occ. eigenvalues --   -0.32693  -0.32605  -0.32060  -0.30143  -0.29069
 Alpha  occ. eigenvalues --   -0.28455
 Alpha virt. eigenvalues --   -0.13708  -0.10720  -0.09286  -0.08569  -0.07905
 Alpha virt. eigenvalues --   -0.07089  -0.06791  -0.05073  -0.04128  -0.03872
 Alpha virt. eigenvalues --   -0.02195  -0.01279  -0.00618  -0.00166   0.00405

 Mulliken charges:
               1
     1  N   -0.728684
     2  H    0.325161
     3  H    0.333930
     4  C   -0.081706
     5  H    0.204582
     6  C    0.647852
     7  C   -0.352148
     8  H    0.209407
     9  H    0.171821
    10  O   -0.571927
    11  C    0.658860
    12  N   -0.696765
    13  H    0.378104
    14  H    0.391633
    15  O   -0.584490
    16  N   -0.607926
    17  H    0.377268
    18  C   -0.013253
    19  H    0.167041
    20  C    0.640116
    21  C   -0.399491
    22  H    0.191149
    23  H    0.176401
    24  O   -0.572589
    25  C    0.157601
    26  C   -0.178551
    27  H    0.132411
    28  C   -0.204967
    29  H    0.138028
    30  C   -0.127896
    31  H    0.147733
    32  C   -0.126165
    33  H    0.146665
    34  C   -0.129608
    35  H    0.148650
    36  N   -0.561930
    37  H    0.359499
    38  C   -0.100707
    39  H    0.185058
    40  C    0.633210
    41  C   -0.339931
    42  H    0.217500
    43  H    0.199833
    44  O   -0.552986
    45  C    0.646923
    46  N   -0.742709
    47  H    0.356242
    48  H    0.416247
    49  O   -0.621271
    50  N   -0.612759
    51  H    0.352377
    52  C   -0.021666
    53  H    0.164841
    54  C    0.582258
    55  C   -0.269967
    56  H    0.166010
    57  H    0.135635
    58  O   -0.622498
    59  C   -0.290459
    60  H    0.168682
    61  H    0.136421
    62  C   -0.160874
    63  H    0.234610
    64  H    0.163787
    65  N   -0.601462
    66  H    0.341788
    67  N   -0.756420
    68  H    0.345563
    69  H    0.437771
    70  N   -0.765022
    71  H    0.364595
    72  H    0.359228
    73  C    0.783209
    74  O   -0.571112
    75  H    0.472240
 Sum of Mulliken charges =   1.00000

 Dipole moment (field-independent basis, Debye):
    X=             -3.3769    Y=              7.2908    Z=              0.0182  Tot=              8.0349
 Quadrupole moment (field-independent basis, Debye-Ang):
   XX=           -136.4967   YY=           -160.9797   ZZ=            -79.3897
   XY=             53.0033   XZ=            -88.5497   YZ=            -74.7994

 Normal termination of Gaussian 16 at Tue May 31 12:47:22 2022.
