 Gaussian 16, Revision C.01,
 Gaussian 16:  ES64L-G16RevC.01  3-Jul-2019

 ----------------------------------------------------------------------
 # B3LYP/6-31G* empiricaldispersion=gd3 guess=read geom=check nosymm in
 tegral(ultrafinegrid)
 ----------------------------------------------------------------------

 ------------------------------------------------------
 Candidate Structure: Conf:156 Charge calc in gas phase
 ------------------------------------------------------
 Structure from the checkpoint file:  "conf-156.chk"
 Charge =  1 Multiplicity = 1

                          Input orientation:
 ---------------------------------------------------------------------
 Center     Atomic      Atomic             Coordinates (Angstroms)
 Number     Number       Type             X           Y           Z
 ---------------------------------------------------------------------
      1          7           0       -4.663892    0.609325    3.377602
      2          1           0       -5.023837    0.294000    2.454617
      3          1           0       -4.255996   -0.252884    3.872135
      4          1           0       -5.390220    1.059734    3.936716
      5          6           0       -3.479636    1.493096    3.081153
      6          1           0       -3.792470    2.539321    3.138996
      7          6           0       -3.083226    1.125414    1.623104
      8          6           0       -2.347011    1.194098    4.090450
      9          1           0       -1.484469    1.831186    3.882194
     10          1           0       -2.687928    1.434584    5.103436
     11          8           0       -3.792011    0.343775    0.992942
     12          6           0       -2.005494   -0.299350    4.042810
     13          7           0       -0.755986   -0.642735    3.746250
     14          1           0       -0.512835   -1.617561    3.570149
     15          1           0       -0.081162    0.041776    3.418702
     16          8           0       -2.925853   -1.116463    4.253638
     17          7           0       -1.944614    1.682181    1.176510
     18          1           0       -1.373564    2.222144    1.817473
     19          6           0       -1.162721    1.106600    0.083936
     20          1           0       -1.762637    0.305420   -0.354897
     21          6           0        0.116360    0.561017    0.738404
     22          6           0       -0.811742    2.160335   -0.992061
     23          1           0       -0.228970    2.968127   -0.535172
     24          1           0       -0.153830    1.693684   -1.734491
     25          8           0        0.585091    1.123520    1.741206
     26          6           0       -2.050638    2.706051   -1.662273
     27          6           0       -2.560006    2.102296   -2.819534
     28          1           0       -2.041684    1.248692   -3.251285
     29          6           0       -2.723717    3.814077   -1.128812
     30          1           0       -2.328299    4.301257   -0.240827
     31          6           0       -3.712544    2.596108   -3.433760
     32          1           0       -4.089948    2.121429   -4.335003
     33          6           0       -3.876315    4.310452   -1.740163
     34          1           0       -4.377757    5.179407   -1.323246
     35          6           0       -4.373877    3.701692   -2.894296
     36          1           0       -5.265922    4.091558   -3.375709
     37          7           0        0.677559   -0.517741    0.167235
     38          1           0        0.300664   -0.864920   -0.706813
     39          6           0        1.975912   -1.048630    0.607684
     40          1           0        2.065878   -0.786615    1.662777
     41          6           0        3.064137   -0.349123   -0.230573
     42          6           0        2.022946   -2.563131    0.461142
     43          1           0        3.040926   -2.900726    0.690988
     44          1           0        1.843902   -2.857524   -0.578985
     45          8           0        3.544721   -0.875746   -1.227232
     46          6           0        1.055895   -3.245958    1.427346
     47          7           0        0.678487   -4.501984    1.088939
     48          1           0        0.133284   -5.035310    1.753664
     49          1           0        1.088210   -4.994536    0.308056
     50          8           0        0.657226   -2.689524    2.449737
     51          7           0        3.361345    0.901925    0.203513
     52          1           0        2.837702    1.297868    0.976666
     53          6           0        4.171829    1.805105   -0.606848
     54          1           0        4.949898    1.211061   -1.091197
     55          6           0        4.866354    2.843995    0.258425
     56          6           0        3.313045    2.503033   -1.691346
     57          1           0        2.768646    1.707862   -2.215881
     58          1           0        2.568196    3.139421   -1.197418
     59          8           0        5.899446    3.395662   -0.035246
     60          6           0        4.126769    3.316846   -2.702652
     61          1           0        4.720275    4.080244   -2.185073
     62          1           0        4.848905    2.663531   -3.210224
     63          6           0        3.242216    3.995102   -3.759567
     64          1           0        3.879955    4.507207   -4.490104
     65          1           0        2.667125    3.240917   -4.304207
     66          7           0        2.305304    4.962815   -3.185943
     67          1           0        2.706196    5.573693   -2.482551
     68          7           0        0.329869    3.893661   -3.831830
     69          1           0       -0.673968    3.844429   -3.703504
     70          1           0        0.574487    4.098847   -4.795271
     71          7           0        0.475565    5.161510   -1.791884
     72          1           0       -0.540889    5.071235   -1.808362
     73          6           0        0.982367    4.693281   -2.883579
     74          8           0        4.148887    3.147068    1.370596
     75          1           0        4.638471    3.849343    1.839604
 ---------------------------------------------------------------------

 SCF Done:  E(RB3LYP) =  -1917.46549578     A.U. after    3 cycles

 Alpha  occ. eigenvalues --  -19.27919 -19.26799 -19.24978 -19.24790 -19.22395
 Alpha  occ. eigenvalues --  -19.21788 -19.20557 -14.57232 -14.49925 -14.49252
 Alpha  occ. eigenvalues --  -14.46991 -14.46247 -14.44758 -14.41343 -14.40544
 Alpha  occ. eigenvalues --  -14.34555 -10.43861 -10.42376 -10.41652 -10.41041
 Alpha  occ. eigenvalues --  -10.40067 -10.40010 -10.37827 -10.35959 -10.35105
 Alpha  occ. eigenvalues --  -10.34484 -10.34129 -10.31790 -10.30402 -10.29749
 Alpha  occ. eigenvalues --  -10.29116 -10.28525 -10.28073 -10.28064 -10.27916
 Alpha  occ. eigenvalues --  -10.27881 -10.27670 -10.26618 -10.25395  -1.19200
 Alpha  occ. eigenvalues --   -1.18567  -1.16581  -1.16490  -1.14038  -1.12513
 Alpha  occ. eigenvalues --   -1.11878  -1.09589  -1.06896  -1.05239  -1.03739
 Alpha  occ. eigenvalues --   -1.02795  -1.01423  -1.01024  -0.95178  -0.94877
 Alpha  occ. eigenvalues --   -0.93612  -0.90660  -0.90477  -0.88663  -0.87084
 Alpha  occ. eigenvalues --   -0.84416  -0.83395  -0.82123  -0.81763  -0.78526
 Alpha  occ. eigenvalues --   -0.76102  -0.74913  -0.73585  -0.73279  -0.72803
 Alpha  occ. eigenvalues --   -0.71425  -0.69948  -0.69730  -0.69413  -0.68901
 Alpha  occ. eigenvalues --   -0.68201  -0.67507  -0.66844  -0.66201  -0.65889
 Alpha  occ. eigenvalues --   -0.65107  -0.64243  -0.63303  -0.62675  -0.61089
 Alpha  occ. eigenvalues --   -0.60678  -0.60135  -0.59674  -0.59321  -0.59044
 Alpha  occ. eigenvalues --   -0.58770  -0.57939  -0.57072  -0.56596  -0.55936
 Alpha  occ. eigenvalues --   -0.55446  -0.55254  -0.55035  -0.54893  -0.54638
 Alpha  occ. eigenvalues --   -0.54360  -0.53724  -0.53516  -0.53172  -0.52722
 Alpha  occ. eigenvalues --   -0.52533  -0.51621  -0.51299  -0.50895  -0.50652
 Alpha  occ. eigenvalues --   -0.50333  -0.50049  -0.49712  -0.49525  -0.49122
 Alpha  occ. eigenvalues --   -0.48502  -0.47704  -0.47484  -0.47357  -0.46920
 Alpha  occ. eigenvalues --   -0.46305  -0.45427  -0.45044  -0.44679  -0.43402
 Alpha  occ. eigenvalues --   -0.43159  -0.42982  -0.41719  -0.41144  -0.41082
 Alpha  occ. eigenvalues --   -0.40499  -0.39608  -0.39489  -0.39134  -0.38893
 Alpha  occ. eigenvalues --   -0.38294  -0.37472  -0.36438  -0.35979  -0.34270
 Alpha  occ. eigenvalues --   -0.34116  -0.33628  -0.33286  -0.32505  -0.31893
 Alpha  occ. eigenvalues --   -0.28586
 Alpha virt. eigenvalues --   -0.13103  -0.11574  -0.10803  -0.09302  -0.09112
 Alpha virt. eigenvalues --   -0.08250  -0.07856  -0.07356  -0.06443  -0.04784
 Alpha virt. eigenvalues --   -0.03844  -0.02888  -0.01901  -0.01778  -0.00681

 Mulliken charges:
               1
     1  N   -0.762920
     2  H    0.423313
     3  H    0.444830
     4  H    0.402245
     5  C   -0.130927
     6  H    0.226500
     7  C    0.643352
     8  C   -0.391831
     9  H    0.198907
    10  H    0.215981
    11  O   -0.506533
    12  C    0.618681
    13  N   -0.749500
    14  H    0.405959
    15  H    0.387023
    16  O   -0.548712
    17  N   -0.577550
    18  H    0.357831
    19  C   -0.092459
    20  H    0.199857
    21  C    0.656613
    22  C   -0.382194
    23  H    0.200463
    24  H    0.175625
    25  O   -0.579000
    26  C    0.161205
    27  C   -0.193515
    28  H    0.133517
    29  C   -0.190737
    30  H    0.133201
    31  C   -0.128435
    32  H    0.153321
    33  C   -0.132028
    34  H    0.148627
    35  C   -0.128028
    36  H    0.154197
    37  N   -0.586525
    38  H    0.350544
    39  C   -0.074211
    40  H    0.203514
    41  C    0.636598
    42  C   -0.399065
    43  H    0.217697
    44  H    0.181466
    45  O   -0.519781
    46  C    0.626357
    47  N   -0.739893
    48  H    0.360358
    49  H    0.358369
    50  O   -0.537615
    51  N   -0.627361
    52  H    0.368187
    53  C   -0.040699
    54  H    0.209420
    55  C    0.590337
    56  C   -0.288701
    57  H    0.158155
    58  H    0.170831
    59  O   -0.443935
    60  C   -0.283886
    61  H    0.166480
    62  H    0.155383
    63  C   -0.150622
    64  H    0.162406
    65  H    0.158024
    66  N   -0.569508
    67  H    0.330931
    68  N   -0.762587
    69  H    0.337713
    70  H    0.333365
    71  N   -0.677202
    72  H    0.273052
    73  C    0.560813
    74  O   -0.579584
    75  H    0.424295
 Sum of Mulliken charges =   1.00000

 Dipole moment (field-independent basis, Debye):
    X=            -11.2041    Y=              2.4511    Z=              6.7135  Tot=             13.2895
 Quadrupole moment (field-independent basis, Debye-Ang):
   XX=           -167.9659   YY=           -184.7921   ZZ=           -165.6751
   XY=            -28.6077   XZ=            -29.7454   YZ=              8.4903

 Normal termination of Gaussian 16 at Tue May 31 12:28:31 2022.
