 Gaussian 16, Revision C.01,
 Gaussian 16:  ES64L-G16RevC.01  3-Jul-2019

 ----------------------------------------------------------------------
 # B3LYP/6-31G* empiricaldispersion=gd3 guess=read geom=check nosymm in
 tegral(ultrafinegrid)
 ----------------------------------------------------------------------

 ------------------------------------------------------
 Candidate Structure: Conf:291 Charge calc in gas phase
 ------------------------------------------------------
 Structure from the checkpoint file:  "conf-291.chk"
 Charge =  1 Multiplicity = 1

                          Input orientation:
 ---------------------------------------------------------------------
 Center     Atomic      Atomic             Coordinates (Angstroms)
 Number     Number       Type             X           Y           Z
 ---------------------------------------------------------------------
      1          7           0       -5.124937   -2.147355    3.923422
      2          1           0       -6.067905   -1.775061    3.821870
      3          1           0       -5.022980   -2.850779    3.189333
      4          6           0       -4.156650   -1.096483    3.662735
      5          1           0       -4.442372   -0.205860    4.237305
      6          6           0       -4.007762   -0.750549    2.166657
      7          6           0       -2.771113   -1.606457    4.170975
      8          1           0       -2.861534   -1.823719    5.239895
      9          1           0       -2.528380   -2.531583    3.643433
     10          8           0       -4.035877   -1.635285    1.322587
     11          6           0       -1.651675   -0.636341    3.924817
     12          7           0       -1.549011    0.462662    4.658134
     13          1           0       -2.194807    0.645233    5.414020
     14          1           0       -0.890735    1.189521    4.390753
     15          8           0       -0.826554   -0.883157    2.983171
     16          7           0       -3.788259    0.568195    1.896737
     17          1           0       -3.623169    1.196516    2.673442
     18          6           0       -3.218651    1.017291    0.639383
     19          1           0       -3.202087    0.148427   -0.024618
     20          6           0       -1.790793    1.496476    0.935438
     21          6           0       -4.059773    2.146196   -0.008535
     22          1           0       -4.050069    3.015060    0.661191
     23          1           0       -3.560910    2.454155   -0.935864
     24          8           0       -1.469168    1.897990    2.059969
     25          6           0       -5.475983    1.697126   -0.283359
     26          6           0       -5.759983    0.896361   -1.396618
     27          1           0       -4.961290    0.633105   -2.087365
     28          6           0       -6.515266    2.025292    0.594084
     29          1           0       -6.307428    2.649536    1.460338
     30          6           0       -7.054815    0.434418   -1.629643
     31          1           0       -7.259816   -0.183212   -2.499491
     32          6           0       -7.813628    1.567532    0.363456
     33          1           0       -8.612159    1.838011    1.049062
     34          6           0       -8.085858    0.769430   -0.748802
     35          1           0       -9.095981    0.414036   -0.931586
     36          7           0       -0.919999    1.466938   -0.094022
     37          1           0       -1.167646    1.117839   -1.015029
     38          6           0        0.459725    1.854313    0.079958
     39          1           0        0.488727    2.732896    0.730746
     40          6           0        1.065797    2.166015   -1.295003
     41          6           0        1.330781    0.696994    0.709152
     42          1           0        2.227574    0.533101    0.104981
     43          1           0        0.744559   -0.223883    0.699548
     44          8           0        0.624844    1.640818   -2.310407
     45          6           0        1.753230    1.011463    2.126525
     46          7           0        2.861478    1.731050    2.266477
     47          1           0        3.170080    1.961330    3.203181
     48          1           0        3.475042    1.948453    1.465763
     49          8           0        1.079811    0.650209    3.130154
     50          7           0        2.159715    2.968247   -1.225862
     51          1           0        2.486291    3.190650   -0.289506
     52          6           0        3.297280    2.804549   -2.131281
     53          1           0        3.019756    2.047881   -2.870495
     54          6           0        4.481424    2.258284   -1.266787
     55          6           0        3.614425    4.141720   -2.863759
     56          1           0        2.655398    4.660809   -2.945250
     57          1           0        4.243996    4.771968   -2.220714
     58          8           0        5.475902    1.801294   -1.903681
     59          6           0        4.228091    4.036061   -4.286422
     60          1           0        4.103314    3.020030   -4.681842
     61          1           0        3.675073    4.690618   -4.968600
     62          6           0        5.707276    4.430415   -4.400592
     63          1           0        6.019091    4.395433   -5.452364
     64          1           0        5.857438    5.455934   -4.038454
     65          7           0        6.514173    3.507303   -3.601210
     66          1           0        6.004356    2.693422   -3.196911
     67          7           0        8.388010    4.856669   -3.286935
     68          1           0        9.182138    5.133379   -2.729437
     69          1           0        8.326824    5.228800   -4.222805
     70          7           0        7.924470    3.082782   -1.838978
     71          1           0        8.865791    3.051346   -1.477204
     72          1           0        7.218133    2.405861   -1.514542
     73          6           0        7.613982    3.811510   -2.920505
     74          8           0        4.374662    2.327790   -0.019610
     75          1           0        0.014239   -0.176101    2.949041
 ---------------------------------------------------------------------

 SCF Done:  E(RB3LYP) =  -1917.48099432     A.U. after    1 cycles

 Alpha  occ. eigenvalues --  -19.30142 -19.25267 -19.21594 -19.20765 -19.20127
 Alpha  occ. eigenvalues --  -19.18627 -19.18543 -14.50791 -14.48947 -14.46760
 Alpha  occ. eigenvalues --  -14.46290 -14.46027 -14.45856 -14.44790 -14.43693
 Alpha  occ. eigenvalues --  -14.40156 -10.44941 -10.43885 -10.41394 -10.38493
 Alpha  occ. eigenvalues --  -10.37689 -10.37039 -10.36449 -10.33908 -10.33075
 Alpha  occ. eigenvalues --  -10.32687 -10.32102 -10.31135 -10.30514 -10.30404
 Alpha  occ. eigenvalues --  -10.28228 -10.27490 -10.27486 -10.25974 -10.25002
 Alpha  occ. eigenvalues --  -10.24906 -10.24807 -10.24723 -10.24605  -1.21381
 Alpha  occ. eigenvalues --   -1.15804  -1.13741  -1.12773  -1.12499  -1.11999
 Alpha  occ. eigenvalues --   -1.11541  -1.06390  -1.03600  -1.02531  -1.01886
 Alpha  occ. eigenvalues --   -1.01639  -1.01485  -1.00655  -1.00592  -0.98187
 Alpha  occ. eigenvalues --   -0.91718  -0.89265  -0.88363  -0.87977  -0.86186
 Alpha  occ. eigenvalues --   -0.83051  -0.81323  -0.80255  -0.78791  -0.77317
 Alpha  occ. eigenvalues --   -0.75885  -0.74345  -0.74039  -0.72165  -0.71465
 Alpha  occ. eigenvalues --   -0.69904  -0.69145  -0.68816  -0.68549  -0.67866
 Alpha  occ. eigenvalues --   -0.67321  -0.66826  -0.66253  -0.66196  -0.64896
 Alpha  occ. eigenvalues --   -0.64432  -0.64220  -0.61834  -0.61414  -0.61038
 Alpha  occ. eigenvalues --   -0.60090  -0.59635  -0.59123  -0.58194  -0.57892
 Alpha  occ. eigenvalues --   -0.57146  -0.56976  -0.56931  -0.56344  -0.55577
 Alpha  occ. eigenvalues --   -0.55328  -0.54381  -0.53653  -0.52824  -0.52653
 Alpha  occ. eigenvalues --   -0.52524  -0.51997  -0.51843  -0.51729  -0.51359
 Alpha  occ. eigenvalues --   -0.51189  -0.50828  -0.50382  -0.49769  -0.49474
 Alpha  occ. eigenvalues --   -0.49327  -0.48736  -0.48549  -0.48140  -0.47863
 Alpha  occ. eigenvalues --   -0.47044  -0.46844  -0.46719  -0.46516  -0.45452
 Alpha  occ. eigenvalues --   -0.45062  -0.44529  -0.44095  -0.43852  -0.43370
 Alpha  occ. eigenvalues --   -0.42826  -0.42186  -0.41535  -0.40341  -0.39967
 Alpha  occ. eigenvalues --   -0.39517  -0.39481  -0.38780  -0.36717  -0.36471
 Alpha  occ. eigenvalues --   -0.35943  -0.35757  -0.35206  -0.34352  -0.34049
 Alpha  occ. eigenvalues --   -0.33871  -0.32711  -0.32237  -0.32013  -0.30778
 Alpha  occ. eigenvalues --   -0.30306
 Alpha virt. eigenvalues --   -0.13412  -0.10639  -0.08465  -0.07716  -0.06919
 Alpha virt. eigenvalues --   -0.06376  -0.05875  -0.05457  -0.04848  -0.04554
 Alpha virt. eigenvalues --   -0.03870  -0.00971  -0.00514   0.00185   0.00697

 Mulliken charges:
               1
     1  N   -0.696101
     2  H    0.322314
     3  H    0.330283
     4  C   -0.086054
     5  H    0.138348
     6  C    0.596696
     7  C   -0.342481
     8  H    0.206051
     9  H    0.219843
    10  O   -0.505000
    11  C    0.620461
    12  N   -0.705336
    13  H    0.379254
    14  H    0.409397
    15  O   -0.565715
    16  N   -0.577344
    17  H    0.329680
    18  C   -0.080826
    19  H    0.200752
    20  C    0.641311
    21  C   -0.370471
    22  H    0.157296
    23  H    0.163824
    24  O   -0.581061
    25  C    0.190851
    26  C   -0.172835
    27  H    0.125016
    28  C   -0.179868
    29  H    0.116369
    30  C   -0.125293
    31  H    0.143815
    32  C   -0.131600
    33  H    0.138141
    34  C   -0.127948
    35  H    0.143425
    36  N   -0.612702
    37  H    0.362840
    38  C   -0.038252
    39  H    0.196641
    40  C    0.578118
    41  C   -0.393133
    42  H    0.210420
    43  H    0.200789
    44  O   -0.510259
    45  C    0.631224
    46  N   -0.750050
    47  H    0.357844
    48  H    0.438678
    49  O   -0.609296
    50  N   -0.577310
    51  H    0.331744
    52  C   -0.092131
    53  H    0.190594
    54  C    0.610486
    55  C   -0.277320
    56  H    0.177678
    57  H    0.145530
    58  O   -0.604350
    59  C   -0.308425
    60  H    0.174060
    61  H    0.171334
    62  C   -0.150086
    63  H    0.171756
    64  H    0.166463
    65  N   -0.609992
    66  H    0.411889
    67  N   -0.756794
    68  H    0.369719
    69  H    0.376941
    70  N   -0.778893
    71  H    0.356034
    72  H    0.414624
    73  C    0.777470
    74  O   -0.583393
    75  H    0.504314
 Sum of Mulliken charges =   1.00000

 Dipole moment (field-independent basis, Debye):
    X=             12.6845    Y=             14.4649    Z=              2.8912  Tot=             19.4548
 Quadrupole moment (field-independent basis, Debye-Ang):
   XX=            -23.3886   YY=           -166.4520   ZZ=           -142.7555
   XY=             90.5348   XZ=            -79.0051   YZ=            -32.9990

 Normal termination of Gaussian 16 at Tue May 31 12:47:22 2022.
