 Gaussian 16, Revision C.01,
 Gaussian 16:  ES64L-G16RevC.01  3-Jul-2019

 ----------------------------------------------------------------------
 # B3LYP/6-31G* empiricaldispersion=gd3 guess=read geom=check nosymm in
 tegral(ultrafinegrid)
 ----------------------------------------------------------------------

 ------------------------------------------------------
 Candidate Structure: Conf:727 Charge calc in gas phase
 ------------------------------------------------------
 Structure from the checkpoint file:  "conf-727.chk"
 Charge =  1 Multiplicity = 1

                          Input orientation:
 ---------------------------------------------------------------------
 Center     Atomic      Atomic             Coordinates (Angstroms)
 Number     Number       Type             X           Y           Z
 ---------------------------------------------------------------------
      1          7           0       -4.795354    0.237306    3.227998
      2          1           0       -5.555207    0.823142    2.851034
      3          1           0       -4.936801   -0.709389    2.838180
      4          1           0       -4.745394    0.259464    4.277101
      5          6           0       -3.466775    0.720357    2.715122
      6          1           0       -3.493905    1.811589    2.734487
      7          6           0       -3.395183    0.196148    1.269219
      8          6           0       -2.312520    0.200142    3.580843
      9          1           0       -2.270078   -0.895557    3.519439
     10          1           0       -1.386348    0.599545    3.153873
     11          8           0       -4.051360   -0.800180    0.967058
     12          6           0       -2.494482    0.588231    5.047649
     13          7           0       -1.383987    0.922378    5.725448
     14          1           0       -1.463860    1.154873    6.707695
     15          1           0       -0.479547    0.995476    5.282215
     16          8           0       -3.616362    0.568469    5.575291
     17          7           0       -2.619822    0.919637    0.452400
     18          1           0       -2.030364    1.648117    0.860600
     19          6           0       -2.687938    0.815112   -1.005835
     20          1           0       -2.954444   -0.220846   -1.239820
     21          6           0       -1.268583    1.139659   -1.520627
     22          6           0       -3.756796    1.784374   -1.579777
     23          1           0       -3.322819    2.787909   -1.611009
     24          1           0       -3.956227    1.495864   -2.617206
     25          8           0       -1.046297    2.098333   -2.259359
     26          6           0       -5.021873    1.774448   -0.748090
     27          6           0       -6.000821    0.786813   -0.920465
     28          1           0       -5.890178    0.059369   -1.720394
     29          6           0       -5.183359    2.697090    0.295369
     30          1           0       -4.443707    3.483156    0.430734
     31          6           0       -7.098963    0.706901   -0.064426
     32          1           0       -7.846202   -0.066356   -0.216962
     33          6           0       -6.281995    2.625735    1.159402
     34          1           0       -6.406562    3.372796    1.940027
     35          6           0       -7.242421    1.621697    0.984621
     36          1           0       -8.112946    1.576899    1.634097
     37          7           0       -0.306569    0.349555   -0.982435
     38          1           0       -0.572164   -0.466630   -0.445136
     39          6           0        1.077502    0.763214   -0.877549
     40          1           0        1.198942    1.618398   -1.535705
     41          6           0        2.014377   -0.372048   -1.296989
     42          6           0        1.415092    1.197599    0.573409
     43          1           0        2.477942    1.458204    0.621271
     44          1           0        1.236427    0.363219    1.257126
     45          8           0        1.734226   -1.547202   -1.091120
     46          6           0        0.549897    2.374008    1.008990
     47          7           0        0.899514    3.569713    0.504550
     48          1           0        0.292605    4.354698    0.705557
     49          1           0        1.540339    3.660867   -0.294744
     50          8           0       -0.431516    2.224092    1.763913
     51          7           0        3.162578    0.065072   -1.863768
     52          1           0        3.311569    1.058477   -2.015405
     53          6           0        4.200382   -0.826686   -2.330748
     54          1           0        3.735727   -1.667772   -2.856547
     55          6           0        5.030855   -1.455324   -1.211473
     56          6           0        5.139730   -0.067095   -3.291817
     57          1           0        5.683395    0.694187   -2.715376
     58          1           0        5.887656   -0.782605   -3.642943
     59          8           0        5.768310   -2.395452   -1.389980
     60          6           0        4.403700    0.593435   -4.484404
     61          1           0        4.899212    0.314479   -5.421456
     62          1           0        3.380112    0.207798   -4.549915
     63          6           0        4.374657    2.133865   -4.442081
     64          1           0        5.402280    2.505022   -4.383058
     65          1           0        3.968616    2.523678   -5.387332
     66          7           0        3.662958    2.708514   -3.290689
     67          1           0        4.157034    3.437173   -2.791030
     68          7           0        1.526968    2.233680   -4.144054
     69          1           0        0.522814    2.322405   -4.057884
     70          1           0        1.883458    1.990970   -5.056124
     71          7           0        1.820648    3.672183   -2.283484
     72          1           0        0.807009    3.747479   -2.380030
     73          6           0        2.290025    2.937940   -3.246117
     74          8           0        4.899367   -0.819324   -0.023452
     75          1           0        5.484376   -1.293173    0.598289
 ---------------------------------------------------------------------

 SCF Done:  E(RB3LYP) =  -1917.48177621     A.U. after    1 cycles

 Alpha  occ. eigenvalues --  -19.26969 -19.25201 -19.24567 -19.22693 -19.22317
 Alpha  occ. eigenvalues --  -19.20792 -19.19668 -14.56237 -14.48704 -14.47670
 Alpha  occ. eigenvalues --  -14.46231 -14.44838 -14.44639 -14.44145 -14.43782
 Alpha  occ. eigenvalues --  -14.37697 -10.42742 -10.41584 -10.39750 -10.39560
 Alpha  occ. eigenvalues --  -10.39001 -10.38868 -10.38123 -10.36826 -10.34513
 Alpha  occ. eigenvalues --  -10.33618 -10.32667 -10.31840 -10.31638 -10.29610
 Alpha  occ. eigenvalues --  -10.29600 -10.29377 -10.29109 -10.29053 -10.28960
 Alpha  occ. eigenvalues --  -10.28715 -10.28548 -10.27805 -10.27628  -1.17633
 Alpha  occ. eigenvalues --   -1.17267  -1.16540  -1.14354  -1.13259  -1.11614
 Alpha  occ. eigenvalues --   -1.10991  -1.08614  -1.07258  -1.05249  -1.03611
 Alpha  occ. eigenvalues --   -1.02751  -1.01122  -1.00041  -0.98140  -0.95516
 Alpha  occ. eigenvalues --   -0.93543  -0.92533  -0.89434  -0.88580  -0.87240
 Alpha  occ. eigenvalues --   -0.84405  -0.84223  -0.82908  -0.80849  -0.78379
 Alpha  occ. eigenvalues --   -0.76294  -0.75024  -0.73168  -0.71585  -0.71053
 Alpha  occ. eigenvalues --   -0.70884  -0.70112  -0.69835  -0.69284  -0.68694
 Alpha  occ. eigenvalues --   -0.68349  -0.68070  -0.67631  -0.67041  -0.66510
 Alpha  occ. eigenvalues --   -0.64728  -0.63450  -0.63001  -0.62126  -0.61637
 Alpha  occ. eigenvalues --   -0.61110  -0.60723  -0.59986  -0.58656  -0.58189
 Alpha  occ. eigenvalues --   -0.57917  -0.57669  -0.57124  -0.56744  -0.56129
 Alpha  occ. eigenvalues --   -0.55693  -0.55354  -0.55133  -0.54939  -0.54664
 Alpha  occ. eigenvalues --   -0.54271  -0.53612  -0.53470  -0.53155  -0.52916
 Alpha  occ. eigenvalues --   -0.52082  -0.51715  -0.51408  -0.51176  -0.50489
 Alpha  occ. eigenvalues --   -0.49903  -0.49735  -0.49650  -0.49374  -0.48828
 Alpha  occ. eigenvalues --   -0.48538  -0.48350  -0.47815  -0.47655  -0.46570
 Alpha  occ. eigenvalues --   -0.46161  -0.45941  -0.45702  -0.44453  -0.43673
 Alpha  occ. eigenvalues --   -0.43533  -0.43403  -0.42891  -0.42551  -0.39929
 Alpha  occ. eigenvalues --   -0.39647  -0.38800  -0.38669  -0.38535  -0.37485
 Alpha  occ. eigenvalues --   -0.37270  -0.36550  -0.36190  -0.36097  -0.35743
 Alpha  occ. eigenvalues --   -0.35165  -0.34688  -0.34211  -0.33288  -0.32476
 Alpha  occ. eigenvalues --   -0.31375
 Alpha virt. eigenvalues --   -0.11473  -0.10770  -0.10508  -0.09919  -0.09662
 Alpha virt. eigenvalues --   -0.08710  -0.06194  -0.05823  -0.05205  -0.04595
 Alpha virt. eigenvalues --   -0.02968  -0.02159  -0.01970  -0.00841  -0.00062

 Mulliken charges:
               1
     1  N   -0.754849
     2  H    0.403460
     3  H    0.408904
     4  H    0.435201
     5  C   -0.121493
     6  H    0.213147
     7  C    0.646498
     8  C   -0.415097
     9  H    0.212440
    10  H    0.230271
    11  O   -0.528747
    12  C    0.643945
    13  N   -0.728781
    14  H    0.375160
    15  H    0.370163
    16  O   -0.540022
    17  N   -0.632607
    18  H    0.391420
    19  C   -0.066584
    20  H    0.205349
    21  C    0.597840
    22  C   -0.351262
    23  H    0.177741
    24  H    0.178090
    25  O   -0.532960
    26  C    0.154665
    27  C   -0.147311
    28  H    0.150095
    29  C   -0.188868
    30  H    0.137386
    31  C   -0.123420
    32  H    0.159481
    33  C   -0.179964
    34  H    0.152417
    35  C   -0.167977
    36  H    0.156181
    37  N   -0.564544
    38  H    0.348177
    39  C   -0.121499
    40  H    0.208700
    41  C    0.650789
    42  C   -0.347044
    43  H    0.190651
    44  H    0.170433
    45  O   -0.529705
    46  C    0.581303
    47  N   -0.730934
    48  H    0.342948
    49  H    0.396315
    50  O   -0.573937
    51  N   -0.638363
    52  H    0.381497
    53  C   -0.029492
    54  H    0.202334
    55  C    0.599053
    56  C   -0.311522
    57  H    0.151929
    58  H    0.193659
    59  O   -0.452235
    60  C   -0.278850
    61  H    0.166895
    62  H    0.163609
    63  C   -0.167554
    64  H    0.175106
    65  H    0.156827
    66  N   -0.597673
    67  H    0.349088
    68  N   -0.757450
    69  H    0.370115
    70  H    0.346364
    71  N   -0.710394
    72  H    0.309912
    73  C    0.589360
    74  O   -0.571675
    75  H    0.417897
 Sum of Mulliken charges =   1.00000

 Dipole moment (field-independent basis, Debye):
    X=             -6.5190    Y=              8.5597    Z=              4.6653  Tot=             11.7273
 Quadrupole moment (field-independent basis, Debye-Ang):
   XX=           -133.2179   YY=           -221.1007   ZZ=           -138.6729
   XY=             12.3381   XZ=            -44.4311   YZ=             -6.5747

 Normal termination of Gaussian 16 at Tue May 31 12:47:27 2022.
