 Gaussian 16, Revision C.01,
 Gaussian 16:  ES64L-G16RevC.01  3-Jul-2019

 ----------------------------------------------------------------------
 # B3LYP/6-31G* empiricaldispersion=gd3 guess=read geom=check nosymm in
 tegral(ultrafinegrid)
 ----------------------------------------------------------------------

 ------------------------------------------------------
 Candidate Structure: Conf:304 Charge calc in gas phase
 ------------------------------------------------------
 Structure from the checkpoint file:  "conf-304.chk"
 Charge =  1 Multiplicity = 1

                          Input orientation:
 ---------------------------------------------------------------------
 Center     Atomic      Atomic             Coordinates (Angstroms)
 Number     Number       Type             X           Y           Z
 ---------------------------------------------------------------------
      1          7           0       -4.057223   -1.000058    4.563038
      2          1           0       -4.200277   -1.633453    3.744548
      3          1           0       -3.146499   -1.274191    5.034916
      4          1           0       -4.841221   -1.046350    5.216235
      5          6           0       -3.838625    0.365452    3.960929
      6          1           0       -4.762970    0.941872    4.053156
      7          6           0       -3.541449    0.076045    2.461756
      8          6           0       -2.667068    1.076737    4.670852
      9          1           0       -2.497132    2.058954    4.224788
     10          1           0       -2.919924    1.243305    5.723335
     11          8           0       -3.672624   -1.072927    2.041913
     12          6           0       -1.425743    0.184083    4.632502
     13          7           0       -0.348535    0.638841    3.983889
     14          1           0        0.454244    0.022782    3.930712
     15          1           0       -0.394486    1.426606    3.335023
     16          8           0       -1.485881   -0.927241    5.188056
     17          7           0       -3.128553    1.133672    1.754425
     18          1           0       -2.917125    1.998724    2.236305
     19          6           0       -2.494430    1.040235    0.446674
     20          1           0       -2.352305   -0.022669    0.229580
     21          6           0       -1.122235    1.738165    0.588633
     22          6           0       -3.381235    1.673739   -0.656385
     23          1           0       -3.447678    2.753410   -0.476630
     24          1           0       -2.880320    1.544392   -1.622674
     25          8           0       -0.809896    2.315713    1.646009
     26          6           0       -4.757946    1.049502   -0.679025
     27          6           0       -4.954220   -0.211898   -1.255057
     28          1           0       -4.119265   -0.722578   -1.730407
     29          6           0       -5.844221    1.693158   -0.075100
     30          1           0       -5.706299    2.678444    0.365259
     31          6           0       -6.210166   -0.816986   -1.230490
     32          1           0       -6.348709   -1.792178   -1.688414
     33          6           0       -7.104115    1.091718   -0.050300
     34          1           0       -7.942032    1.610386    0.407706
     35          6           0       -7.288873   -0.166123   -0.626738
     36          1           0       -8.269726   -0.632829   -0.615433
     37          7           0       -0.336175    1.696108   -0.487391
     38          1           0       -0.616108    1.238024   -1.353830
     39          6           0        0.952394    2.364416   -0.585827
     40          1           0        0.896894    3.348101   -0.112585
     41          6           0        1.254278    2.463259   -2.093086
     42          6           0        2.065920    1.541540    0.107915
     43          1           0        2.165343    0.572368   -0.389837
     44          1           0        1.748605    1.365976    1.142872
     45          8           0        0.687287    1.721732   -2.893195
     46          6           0        3.407812    2.282064    0.157753
     47          7           0        4.511512    1.499984    0.180854
     48          1           0        5.418216    1.961496    0.061564
     49          1           0        4.444431    0.583060   -0.240841
     50          8           0        3.451709    3.514618    0.227981
     51          7           0        2.235843    3.337131   -2.409229
     52          1           0        2.668010    3.803510   -1.614937
     53          6           0        3.110425    3.122934   -3.559048
     54          1           0        2.610099    3.396208   -4.491570
     55          6           0        3.509618    1.642803   -3.632943
     56          6           0        4.370869    3.982046   -3.310125
     57          1           0        4.063364    5.035959   -3.315191
     58          1           0        4.687939    3.747662   -2.287102
     59          8           0        3.679431    0.921960   -2.671409
     60          6           0        5.558803    3.759096   -4.248365
     61          1           0        5.725242    2.693584   -4.412825
     62          1           0        5.376524    4.216347   -5.228370
     63          6           0        6.861568    4.337836   -3.659050
     64          1           0        7.702099    4.034948   -4.289203
     65          1           0        6.832580    5.432866   -3.644643
     66          7           0        7.153600    3.914957   -2.287650
     67          1           0        6.699537    4.455069   -1.562343
     68          7           0        7.396020    2.355079   -0.577486
     69          1           0        7.850295    1.474242   -0.354510
     70          1           0        7.862310    3.103535   -0.068651
     71          7           0        7.447184    1.692643   -2.899874
     72          1           0        7.693490    0.780627   -2.514622
     73          6           0        7.353446    2.583313   -1.982575
     74          8           0        3.709549    1.253815   -4.901412
     75          1           0        4.039617    0.335276   -4.876702
 ---------------------------------------------------------------------

 SCF Done:  E(RB3LYP) =  -1917.46432534     A.U. after    2 cycles

 Alpha  occ. eigenvalues --  -19.27094 -19.26619 -19.25575 -19.23808 -19.21587
 Alpha  occ. eigenvalues --  -19.20762 -19.19495 -14.57730 -14.49715 -14.48302
 Alpha  occ. eigenvalues --  -14.47057 -14.43557 -14.42890 -14.42157 -14.41496
 Alpha  occ. eigenvalues --  -14.35377 -10.43646 -10.43093 -10.41149 -10.40687
 Alpha  occ. eigenvalues --  -10.39554 -10.37410 -10.37163 -10.35455 -10.35382
 Alpha  occ. eigenvalues --  -10.35091 -10.33028 -10.31458 -10.29881 -10.28775
 Alpha  occ. eigenvalues --  -10.28215 -10.27887 -10.27238 -10.27057 -10.26994
 Alpha  occ. eigenvalues --  -10.26841 -10.26753 -10.26460 -10.24229  -1.19084
 Alpha  occ. eigenvalues --   -1.18135  -1.17150  -1.15366  -1.12615  -1.12281
 Alpha  occ. eigenvalues --   -1.10999  -1.09085  -1.06758  -1.04570  -1.03806
 Alpha  occ. eigenvalues --   -1.03437  -1.01076  -0.97624  -0.95784  -0.94517
 Alpha  occ. eigenvalues --   -0.93497  -0.91223  -0.89920  -0.87892  -0.85948
 Alpha  occ. eigenvalues --   -0.83988  -0.82431  -0.81855  -0.80926  -0.77629
 Alpha  occ. eigenvalues --   -0.75875  -0.74650  -0.73876  -0.73227  -0.72702
 Alpha  occ. eigenvalues --   -0.71225  -0.69720  -0.69426  -0.68572  -0.67945
 Alpha  occ. eigenvalues --   -0.67013  -0.66384  -0.65871  -0.65759  -0.64895
 Alpha  occ. eigenvalues --   -0.63818  -0.63059  -0.61731  -0.60778  -0.60513
 Alpha  occ. eigenvalues --   -0.60346  -0.59637  -0.59472  -0.59110  -0.58951
 Alpha  occ. eigenvalues --   -0.58626  -0.58020  -0.57693  -0.55902  -0.55462
 Alpha  occ. eigenvalues --   -0.55308  -0.55014  -0.54351  -0.54170  -0.53879
 Alpha  occ. eigenvalues --   -0.53530  -0.53157  -0.52966  -0.52580  -0.52275
 Alpha  occ. eigenvalues --   -0.51831  -0.51765  -0.51091  -0.50777  -0.50048
 Alpha  occ. eigenvalues --   -0.49894  -0.49234  -0.49023  -0.48809  -0.48557
 Alpha  occ. eigenvalues --   -0.47879  -0.47695  -0.47537  -0.46525  -0.45954
 Alpha  occ. eigenvalues --   -0.44790  -0.44254  -0.44019  -0.43858  -0.42590
 Alpha  occ. eigenvalues --   -0.42118  -0.41846  -0.41238  -0.41139  -0.40370
 Alpha  occ. eigenvalues --   -0.40272  -0.39632  -0.39215  -0.38838  -0.37936
 Alpha  occ. eigenvalues --   -0.37073  -0.36274  -0.34642  -0.34588  -0.33906
 Alpha  occ. eigenvalues --   -0.33783  -0.33052  -0.32990  -0.32550  -0.32534
 Alpha  occ. eigenvalues --   -0.29318
 Alpha virt. eigenvalues --   -0.12866  -0.11316  -0.10169  -0.08487  -0.08123
 Alpha virt. eigenvalues --   -0.07947  -0.07452  -0.06436  -0.05582  -0.04581
 Alpha virt. eigenvalues --   -0.03200  -0.01874  -0.01784  -0.01349  -0.00904

 Mulliken charges:
               1
     1  N   -0.765556
     2  H    0.427156
     3  H    0.441575
     4  H    0.405615
     5  C   -0.129068
     6  H    0.231119
     7  C    0.644454
     8  C   -0.391810
     9  H    0.203510
    10  H    0.219113
    11  O   -0.511201
    12  C    0.612574
    13  N   -0.747953
    14  H    0.366158
    15  H    0.412585
    16  O   -0.535373
    17  N   -0.573595
    18  H    0.352677
    19  C   -0.090389
    20  H    0.211699
    21  C    0.641711
    22  C   -0.371919
    23  H    0.165574
    24  H    0.180050
    25  O   -0.582129
    26  C    0.181083
    27  C   -0.169915
    28  H    0.132373
    29  C   -0.191162
    30  H    0.122483
    31  C   -0.126653
    32  H    0.149502
    33  C   -0.135148
    34  H    0.142349
    35  C   -0.130037
    36  H    0.148074
    37  N   -0.613075
    38  H    0.370712
    39  C   -0.055369
    40  H    0.206237
    41  C    0.622813
    42  C   -0.353240
    43  H    0.179066
    44  H    0.174109
    45  O   -0.536630
    46  C    0.607007
    47  N   -0.756649
    48  H    0.391077
    49  H    0.347504
    50  O   -0.546340
    51  N   -0.632335
    52  H    0.378924
    53  C   -0.000025
    54  H    0.192755
    55  C    0.606292
    56  C   -0.324447
    57  H    0.162318
    58  H    0.154679
    59  O   -0.497086
    60  C   -0.284739
    61  H    0.195680
    62  H    0.148392
    63  C   -0.132214
    64  H    0.185269
    65  H    0.147807
    66  N   -0.588045
    67  H    0.327032
    68  N   -0.786786
    69  H    0.332060
    70  H    0.336931
    71  N   -0.636114
    72  H    0.273128
    73  C    0.590949
    74  O   -0.549196
    75  H    0.422026
 Sum of Mulliken charges =   1.00000

 Dipole moment (field-independent basis, Debye):
    X=             -6.3557    Y=              3.8421    Z=             11.9374  Tot=             14.0591
 Quadrupole moment (field-independent basis, Debye-Ang):
   XX=            -92.3815   YY=           -202.9363   ZZ=           -160.4447
   XY=             17.1736   XZ=            -63.1734   YZ=             -3.5272

 Normal termination of Gaussian 16 at Tue May 31 12:28:16 2022.
