 Gaussian 16, Revision C.01,
 Gaussian 16:  ES64L-G16RevC.01  3-Jul-2019

 -------------------------------------------------------------------
 # B3LYP/6-31G* guess=read geom=check nosymm integral(ultrafinegrid)
 -------------------------------------------------------------------

 ------------------------------------------------------
 Candidate Structure: Conf:156 Charge calc in gas phase
 ------------------------------------------------------
 Structure from the checkpoint file:  "conf-156.chk"
 Charge =  1 Multiplicity = 1

                          Input orientation:
 ---------------------------------------------------------------------
 Center     Atomic      Atomic             Coordinates (Angstroms)
 Number     Number       Type             X           Y           Z
 ---------------------------------------------------------------------
      1          7           0       -6.564282    0.193069    2.352751
      2          1           0       -6.709601    1.128067    1.939627
      3          1           0       -6.581690   -0.481253    1.568826
      4          1           0       -7.261132   -0.036742    3.106222
      5          6           0       -5.193841    0.071666    2.971943
      6          1           0       -5.022253    0.976607    3.559482
      7          6           0       -4.260036   -0.036109    1.746337
      8          6           0       -5.144809   -1.184401    3.856811
      9          1           0       -5.257517   -2.072555    3.220399
     10          1           0       -4.151363   -1.246627    4.312723
     11          8           0       -4.658861   -0.724574    0.805067
     12          6           0       -6.249622   -1.202298    4.918662
     13          7           0       -5.962349   -1.818548    6.077047
     14          1           0       -6.690921   -1.901341    6.775933
     15          1           0       -5.066512   -2.244714    6.266199
     16          8           0       -7.356716   -0.692095    4.697388
     17          7           0       -3.132049    0.679118    1.779157
     18          1           0       -2.789277    1.144030    2.617907
     19          6           0       -2.300759    0.914750    0.606662
     20          1           0       -2.380847    0.047368   -0.052579
     21          6           0       -0.869265    1.112732    1.143724
     22          6           0       -2.756314    2.214037   -0.142868
     23          1           0       -2.379149    3.073685    0.422824
     24          1           0       -2.258170    2.228875   -1.118612
     25          8           0       -0.713572    1.497752    2.306603
     26          6           0       -4.257513    2.338935   -0.301662
     27          6           0       -4.939238    1.704736   -1.349646
     28          1           0       -4.378230    1.139529   -2.089594
     29          6           0       -5.006092    3.068795    0.633868
     30          1           0       -4.491616    3.601756    1.430717
     31          6           0       -6.328379    1.781749   -1.453800
     32          1           0       -6.834630    1.288819   -2.278686
     33          6           0       -6.401202    3.151667    0.536348
     34          1           0       -6.957828    3.765088    1.241715
     35          6           0       -7.066835    2.500791   -0.509202
     36          1           0       -8.146211    2.581712   -0.605372
     37          7           0        0.119172    0.894227    0.266484
     38          1           0       -0.050475    0.569734   -0.685027
     39          6           0        1.527643    1.154558    0.531809
     40          1           0        1.642614    2.130286    1.012643
     41          6           0        2.206805    1.136379   -0.854525
     42          6           0        2.136481    0.078422    1.461928
     43          1           0        2.214122   -0.877983    0.934042
     44          1           0        1.453010   -0.053953    2.308844
     45          8           0        1.616681    0.656620   -1.824133
     46          6           0        3.497571    0.481107    2.028445
     47          7           0        4.155933   -0.496512    2.704751
     48          1           0        5.110178   -0.285986    2.969949
     49          1           0        3.956482   -1.466378    2.500816
     50          8           0        3.930339    1.631880    1.950547
     51          7           0        3.462487    1.639719   -0.898249
     52          1           0        3.872569    1.853855    0.011512
     53          6           0        4.375843    1.193446   -1.939498
     54          1           0        3.830875    1.219083   -2.884885
     55          6           0        4.787997   -0.283144   -1.676758
     56          6           0        5.612528    2.114769   -1.996930
     57          1           0        5.961118    2.281179   -0.969342
     58          1           0        6.425941    1.583948   -2.500259
     59          8           0        5.371646   -0.922763   -2.681649
     60          6           0        5.379894    3.476924   -2.673800
     61          1           0        4.535205    3.989666   -2.195401
     62          1           0        6.263805    4.103912   -2.496400
     63          6           0        5.110404    3.429384   -4.191956
     64          1           0        4.161152    2.926628   -4.401446
     65          1           0        4.994613    4.449585   -4.571125
     66          7           0        6.163146    2.789282   -4.977108
     67          1           0        6.971281    3.351167   -5.209605
     68          7           0        5.354873    0.543886   -4.978253
     69          1           0        5.362260   -0.413740   -3.560258
     70          1           0        4.438424    0.979239   -5.071947
     71          7           0        7.596596    0.997701   -5.302262
     72          1           0        7.690299   -0.006085   -5.389141
     73          1           0        8.357045    1.458275   -4.819455
     74          6           0        6.310163    1.425810   -5.068348
     75          8           0        4.606594   -0.808711   -0.594591
 ---------------------------------------------------------------------

 SCF Done:  E(RB3LYP) =  -1917.37457123     A.U. after    1 cycles

 Alpha  occ. eigenvalues --  -19.26401 -19.24903 -19.21696 -19.21120 -19.19379
 Alpha  occ. eigenvalues --  -19.18727 -19.17640 -14.57011 -14.49781 -14.48676
 Alpha  occ. eigenvalues --  -14.44875 -14.42842 -14.42185 -14.41976 -14.41826
 Alpha  occ. eigenvalues --  -14.36092 -10.44037 -10.42377 -10.40229 -10.38354
 Alpha  occ. eigenvalues --  -10.36387 -10.36325 -10.36062 -10.36052 -10.35421
 Alpha  occ. eigenvalues --  -10.34402 -10.31411 -10.30024 -10.29880 -10.29798
 Alpha  occ. eigenvalues --  -10.29704 -10.29618 -10.29488 -10.29351 -10.28974
 Alpha  occ. eigenvalues --  -10.28919 -10.27175 -10.26242 -10.25926  -1.18294
 Alpha  occ. eigenvalues --   -1.17279  -1.13258  -1.13117  -1.11690  -1.11093
 Alpha  occ. eigenvalues --   -1.10316  -1.05490  -1.05197  -1.05000  -1.04733
 Alpha  occ. eigenvalues --   -1.01427  -0.99265  -0.97188  -0.96298  -0.95827
 Alpha  occ. eigenvalues --   -0.93425  -0.91474  -0.89581  -0.87093  -0.85712
 Alpha  occ. eigenvalues --   -0.84578  -0.84420  -0.81682  -0.80412  -0.77170
 Alpha  occ. eigenvalues --   -0.75871  -0.74335  -0.73787  -0.72327  -0.71313
 Alpha  occ. eigenvalues --   -0.70463  -0.70145  -0.68440  -0.68027  -0.67862
 Alpha  occ. eigenvalues --   -0.67562  -0.66541  -0.65461  -0.65087  -0.64458
 Alpha  occ. eigenvalues --   -0.63716  -0.63066  -0.62816  -0.62143  -0.61109
 Alpha  occ. eigenvalues --   -0.60470  -0.59677  -0.58876  -0.58754  -0.58409
 Alpha  occ. eigenvalues --   -0.57878  -0.56863  -0.56501  -0.56249  -0.55502
 Alpha  occ. eigenvalues --   -0.55056  -0.54833  -0.54762  -0.54299  -0.53962
 Alpha  occ. eigenvalues --   -0.52972  -0.52550  -0.52009  -0.51804  -0.51686
 Alpha  occ. eigenvalues --   -0.51158  -0.50823  -0.50702  -0.50151  -0.49934
 Alpha  occ. eigenvalues --   -0.49450  -0.48881  -0.48770  -0.47958  -0.47372
 Alpha  occ. eigenvalues --   -0.46903  -0.46634  -0.46224  -0.45997  -0.45489
 Alpha  occ. eigenvalues --   -0.45149  -0.44074  -0.43916  -0.43817  -0.42997
 Alpha  occ. eigenvalues --   -0.42483  -0.42126  -0.41026  -0.40642  -0.40588
 Alpha  occ. eigenvalues --   -0.40533  -0.39430  -0.38383  -0.35690  -0.35292
 Alpha  occ. eigenvalues --   -0.35129  -0.34932  -0.34796  -0.34334  -0.34303
 Alpha  occ. eigenvalues --   -0.33135  -0.33004  -0.32734  -0.32220  -0.30969
 Alpha  occ. eigenvalues --   -0.29918
 Alpha virt. eigenvalues --   -0.12568  -0.11490  -0.10897  -0.10623  -0.06880
 Alpha virt. eigenvalues --   -0.06649  -0.05172  -0.04832  -0.04124  -0.03818
 Alpha virt. eigenvalues --   -0.03717  -0.02739  -0.01463  -0.00536  -0.00461

 Mulliken charges:
               1
     1  N   -0.758015
     2  H    0.405920
     3  H    0.411493
     4  H    0.438248
     5  C   -0.117533
     6  H    0.206731
     7  C    0.656796
     8  C   -0.395737
     9  H    0.229069
    10  H    0.201814
    11  O   -0.528066
    12  C    0.644045
    13  N   -0.728514
    14  H    0.380563
    15  H    0.369335
    16  O   -0.534629
    17  N   -0.603941
    18  H    0.360345
    19  C   -0.063203
    20  H    0.196842
    21  C    0.636810
    22  C   -0.368026
    23  H    0.177484
    24  H    0.182286
    25  O   -0.549542
    26  C    0.172540
    27  C   -0.151501
    28  H    0.152742
    29  C   -0.201860
    30  H    0.142810
    31  C   -0.130006
    32  H    0.161188
    33  C   -0.194234
    34  H    0.155915
    35  C   -0.146628
    36  H    0.158436
    37  N   -0.631453
    38  H    0.363117
    39  C   -0.047138
    40  H    0.204033
    41  C    0.610803
    42  C   -0.376681
    43  H    0.190279
    44  H    0.200344
    45  O   -0.542577
    46  C    0.629171
    47  N   -0.729521
    48  H    0.351499
    49  H    0.350878
    50  O   -0.531767
    51  N   -0.610336
    52  H    0.380915
    53  C   -0.083754
    54  H    0.171042
    55  C    0.609518
    56  C   -0.294877
    57  H    0.164447
    58  H    0.156517
    59  O   -0.603456
    60  C   -0.256753
    61  H    0.158903
    62  H    0.144312
    63  C   -0.160284
    64  H    0.161929
    65  H    0.168745
    66  N   -0.584062
    67  H    0.331618
    68  N   -0.736059
    69  H    0.465913
    70  H    0.299289
    71  N   -0.741230
    72  H    0.358739
    73  H    0.332484
    74  C    0.652606
    75  O   -0.497130
 Sum of Mulliken charges =   1.00000

 Dipole moment (field-independent basis, Debye):
    X=            -13.7130    Y=              3.7388    Z=              9.1098  Tot=             16.8823
 Quadrupole moment (field-independent basis, Debye-Ang):
   XX=            -23.0942   YY=           -200.5471   ZZ=           -142.9299
   XY=             29.4547   XZ=            -97.6755   YZ=            -48.2719

 Normal termination of Gaussian 16 at Tue Jun  7 03:07:42 2022.
