 Gaussian 16, Revision C.01,
 Gaussian 16:  ES64L-G16RevC.01  3-Jul-2019

 ----------------------------------------------------------------------
 # B3LYP/6-31G* empiricaldispersion=gd3 guess=read geom=check nosymm in
 tegral(ultrafinegrid)
 ----------------------------------------------------------------------

 ------------------------------------------------------
 Candidate Structure: Conf:684 Charge calc in gas phase
 ------------------------------------------------------
 Structure from the checkpoint file:  "conf-684.chk"
 Charge =  1 Multiplicity = 1

                          Input orientation:
 ---------------------------------------------------------------------
 Center     Atomic      Atomic             Coordinates (Angstroms)
 Number     Number       Type             X           Y           Z
 ---------------------------------------------------------------------
      1          7           0       -4.711862    3.005484    1.967851
      2          1           0       -4.136238    3.430923    1.225016
      3          1           0       -5.357415    2.342739    1.515942
      4          1           0       -5.234077    3.730843    2.528044
      5          6           0       -3.877633    2.230076    2.963635
      6          1           0       -3.010731    2.852863    3.197834
      7          6           0       -3.520009    0.927718    2.218526
      8          6           0       -4.717148    1.946909    4.216336
      9          1           0       -5.541062    1.276655    3.937999
     10          1           0       -4.091200    1.401125    4.929656
     11          8           0       -4.450959    0.280742    1.739991
     12          6           0       -5.301760    3.219163    4.834405
     13          7           0       -5.461040    3.228105    6.167171
     14          1           0       -5.898084    4.034271    6.597545
     15          1           0       -5.201384    2.451009    6.757827
     16          8           0       -5.632450    4.180136    4.123025
     17          7           0       -2.215887    0.664178    2.081386
     18          1           0       -1.509972    1.326310    2.409124
     19          6           0       -1.679466   -0.207869    1.042352
     20          1           0       -1.838284   -1.257974    1.307964
     21          6           0       -0.167304    0.098057    1.005450
     22          6           0       -2.329058    0.043120   -0.360957
     23          1           0       -1.593858   -0.258567   -1.115924
     24          1           0       -3.194214   -0.616416   -0.454260
     25          8           0        0.266096    1.134488    1.522959
     26          6           0       -2.779382    1.467911   -0.631420
     27          6           0       -4.033252    1.687262   -1.222283
     28          1           0       -4.659261    0.833549   -1.468273
     29          6           0       -2.000421    2.588207   -0.296809
     30          1           0       -1.026741    2.454293    0.162564
     31          6           0       -4.497587    2.978601   -1.483869
     32          1           0       -5.468632    3.119055   -1.951026
     33          6           0       -2.469191    3.885180   -0.537048
     34          1           0       -1.847767    4.736084   -0.269508
     35          6           0       -3.719358    4.087960   -1.134828
     36          1           0       -4.077220    5.094843   -1.331718
     37          7           0        0.584519   -0.799494    0.352465
     38          1           0        0.153564   -1.566086   -0.163390
     39          6           0        1.893821   -0.438112   -0.165705
     40          1           0        2.366843    0.234782    0.553761
     41          6           0        1.735521    0.310727   -1.520971
     42          6           0        2.771861   -1.693145   -0.333337
     43          1           0        2.837252   -2.210741    0.631806
     44          1           0        3.784835   -1.386740   -0.609592
     45          8           0        0.605791    0.333734   -2.083605
     46          6           0        2.186013   -2.678182   -1.345289
     47          7           0        3.081487   -3.376543   -2.081328
     48          1           0        2.739084   -4.074083   -2.728579
     49          1           0        4.077913   -3.233104   -2.009662
     50          8           0        0.968601   -2.839070   -1.462892
     51          7           0        2.857376    0.844230   -1.952612
     52          1           0        3.690441    0.984657   -1.318482
     53          6           0        3.229664    1.638494   -3.131684
     54          1           0        3.684095    0.954645   -3.861296
     55          6           0        4.390559    2.589228   -2.576107
     56          6           0        2.128261    2.427953   -3.823515
     57          1           0        2.616889    2.942385   -4.655336
     58          1           0        1.391275    1.733558   -4.241046
     59          8           0        4.611961    3.601630   -3.251739
     60          6           0        1.456602    3.475569   -2.918514
     61          1           0        1.452726    3.136224   -1.873321
     62          1           0        2.044441    4.397396   -2.935569
     63          6           0        0.008119    3.752940   -3.335195
     64          1           0       -0.463825    4.510757   -2.701833
     65          1           0       -0.038622    4.097814   -4.374210
     66          7           0       -0.751269    2.489252   -3.209051
     67          1           0       -0.362469    1.870632   -2.487899
     68          7           0       -1.884900    2.406967   -5.252431
     69          1           0       -1.957154    1.940755   -6.145304
     70          1           0       -1.968939    3.412864   -5.255293
     71          7           0       -1.248689    0.454550   -4.154057
     72          1           0       -1.802819   -0.115723   -4.774720
     73          1           0       -0.563817    0.023778   -3.525023
     74          6           0       -1.279013    1.793767   -4.212630
     75          8           0        4.907696    2.156507   -1.505612
 ---------------------------------------------------------------------

 SCF Done:  E(RB3LYP) =  -1917.44525887     A.U. after    1 cycles

 Alpha  occ. eigenvalues --  -19.26599 -19.25190 -19.22473 -19.20481 -19.20382
 Alpha  occ. eigenvalues --  -19.10190 -19.09119 -14.57410 -14.49934 -14.49807
 Alpha  occ. eigenvalues --  -14.48755 -14.48290 -14.47369 -14.45083 -14.44542
 Alpha  occ. eigenvalues --  -14.41855 -10.44988 -10.44177 -10.42507 -10.40380
 Alpha  occ. eigenvalues --  -10.39233 -10.38120 -10.36824 -10.35311 -10.35164
 Alpha  occ. eigenvalues --  -10.32421 -10.32278 -10.31586 -10.31032 -10.30977
 Alpha  occ. eigenvalues --  -10.30911 -10.30600 -10.30291 -10.30229 -10.28893
 Alpha  occ. eigenvalues --  -10.28024 -10.26110 -10.25650 -10.24097  -1.18462
 Alpha  occ. eigenvalues --   -1.17472  -1.14348  -1.13683  -1.12154  -1.12096
 Alpha  occ. eigenvalues --   -1.10764  -1.05501  -1.04888  -1.03470  -1.02884
 Alpha  occ. eigenvalues --   -1.02238  -1.01789  -0.99228  -0.98561  -0.97398
 Alpha  occ. eigenvalues --   -0.94666  -0.93626  -0.90422  -0.87742  -0.86773
 Alpha  occ. eigenvalues --   -0.86147  -0.85466  -0.82104  -0.81312  -0.78227
 Alpha  occ. eigenvalues --   -0.77030  -0.75542  -0.74345  -0.73400  -0.72671
 Alpha  occ. eigenvalues --   -0.72074  -0.71307  -0.70659  -0.70468  -0.69568
 Alpha  occ. eigenvalues --   -0.68848  -0.68011  -0.67762  -0.67598  -0.66876
 Alpha  occ. eigenvalues --   -0.65368  -0.63494  -0.63243  -0.62751  -0.62519
 Alpha  occ. eigenvalues --   -0.62326  -0.62132  -0.60837  -0.60134  -0.59783
 Alpha  occ. eigenvalues --   -0.58406  -0.58048  -0.57304  -0.57028  -0.56957
 Alpha  occ. eigenvalues --   -0.56878  -0.56238  -0.55346  -0.54871  -0.54440
 Alpha  occ. eigenvalues --   -0.54095  -0.54062  -0.53801  -0.52984  -0.52377
 Alpha  occ. eigenvalues --   -0.52238  -0.51938  -0.51635  -0.51015  -0.50855
 Alpha  occ. eigenvalues --   -0.50567  -0.49557  -0.49412  -0.48773  -0.48218
 Alpha  occ. eigenvalues --   -0.47855  -0.47747  -0.47275  -0.46667  -0.45506
 Alpha  occ. eigenvalues --   -0.45288  -0.44526  -0.44240  -0.44068  -0.41975
 Alpha  occ. eigenvalues --   -0.41191  -0.41164  -0.40840  -0.40657  -0.40210
 Alpha  occ. eigenvalues --   -0.39535  -0.39267  -0.38842  -0.37807  -0.37506
 Alpha  occ. eigenvalues --   -0.36715  -0.36661  -0.36265  -0.35824  -0.35510
 Alpha  occ. eigenvalues --   -0.34776  -0.33637  -0.32864  -0.25340  -0.25069
 Alpha  occ. eigenvalues --   -0.23252
 Alpha virt. eigenvalues --   -0.13481  -0.12426  -0.12254  -0.11180  -0.09918
 Alpha virt. eigenvalues --   -0.08393  -0.06842  -0.06797  -0.05719  -0.05417
 Alpha virt. eigenvalues --   -0.04279  -0.04157  -0.01927  -0.01618  -0.01143

 Mulliken charges:
               1
     1  N   -0.766239
     2  H    0.415519
     3  H    0.407035
     4  H    0.438481
     5  C   -0.112625
     6  H    0.207612
     7  C    0.643169
     8  C   -0.395531
     9  H    0.231962
    10  H    0.203119
    11  O   -0.529663
    12  C    0.643442
    13  N   -0.727963
    14  H    0.380535
    15  H    0.370429
    16  O   -0.538679
    17  N   -0.611421
    18  H    0.366526
    19  C   -0.039371
    20  H    0.199975
    21  C    0.621589
    22  C   -0.382234
    23  H    0.204841
    24  H    0.186221
    25  O   -0.543966
    26  C    0.139875
    27  C   -0.190780
    28  H    0.156507
    29  C   -0.225107
    30  H    0.193461
    31  C   -0.153617
    32  H    0.159216
    33  C   -0.179793
    34  H    0.166028
    35  C   -0.170633
    36  H    0.161637
    37  N   -0.595719
    38  H    0.378454
    39  C   -0.093955
    40  H    0.215343
    41  C    0.630614
    42  C   -0.377605
    43  H    0.201002
    44  H    0.188341
    45  O   -0.637481
    46  C    0.613877
    47  N   -0.736901
    48  H    0.356645
    49  H    0.360261
    50  O   -0.534445
    51  N   -0.595177
    52  H    0.376382
    53  C   -0.084746
    54  H    0.155976
    55  C    0.605053
    56  C   -0.259408
    57  H    0.181770
    58  H    0.103398
    59  O   -0.568370
    60  C   -0.301804
    61  H    0.152631
    62  H    0.206773
    63  C   -0.172839
    64  H    0.166504
    65  H    0.157310
    66  N   -0.582021
    67  H    0.401790
    68  N   -0.750111
    69  H    0.371482
    70  H    0.375921
    71  N   -0.781188
    72  H    0.359306
    73  H    0.427431
    74  C    0.764488
    75  O   -0.608540
 Sum of Mulliken charges =   1.00000

 Dipole moment (field-independent basis, Debye):
    X=            -25.7282    Y=              4.2966    Z=              2.9267  Tot=             26.2482
 Quadrupole moment (field-independent basis, Debye-Ang):
   XX=           -185.8695   YY=           -191.2152   ZZ=            -89.3494
   XY=           -107.7501   XZ=            -21.8925   YZ=             29.0979

 Normal termination of Gaussian 16 at Tue May 31 12:09:36 2022.
