 Gaussian 16, Revision C.01,
 Gaussian 16:  ES64L-G16RevC.01  3-Jul-2019

 -------------------------------------------------------------------
 # B3LYP/6-31G* guess=read geom=check nosymm integral(ultrafinegrid)
 -------------------------------------------------------------------

 ------------------------------------------------------
 Candidate Structure: Conf:669 Charge calc in gas phase
 ------------------------------------------------------
 Structure from the checkpoint file:  "conf-669.chk"
 Charge =  1 Multiplicity = 1

                          Input orientation:
 ---------------------------------------------------------------------
 Center     Atomic      Atomic             Coordinates (Angstroms)
 Number     Number       Type             X           Y           Z
 ---------------------------------------------------------------------
      1          7           0       -3.624985    3.913584    3.320923
      2          1           0       -4.175752    3.050836    3.521158
      3          1           0       -2.755491    3.948639    3.944449
      4          1           0       -4.190995    4.756332    3.429455
      5          6           0       -3.094691    3.713538    1.920684
      6          1           0       -3.804140    4.166392    1.221005
      7          6           0       -3.173178    2.171944    1.721304
      8          6           0       -1.714209    4.370451    1.788274
      9          1           0       -1.313328    4.223081    0.780985
     10          1           0       -1.816919    5.451066    1.948357
     11          8           0       -3.939328    1.544899    2.460670
     12          6           0       -0.764959    3.823188    2.854025
     13          7           0        0.407188    3.359413    2.420619
     14          1           0        1.005082    2.890845    3.090564
     15          1           0        0.529300    3.175375    1.418224
     16          8           0       -1.116008    3.833394    4.053097
     17          7           0       -2.451013    1.646330    0.724686
     18          1           0       -1.714050    2.192365    0.258912
     19          6           0       -2.477039    0.207966    0.452575
     20          1           0       -3.011453   -0.252558    1.289233
     21          6           0       -1.009278   -0.282412    0.525925
     22          6           0       -3.234253   -0.100400   -0.863129
     23          1           0       -2.666803    0.312887   -1.706961
     24          1           0       -3.267908   -1.191051   -0.988343
     25          8           0       -0.269395    0.138088    1.409609
     26          6           0       -4.647819    0.444590   -0.890747
     27          6           0       -5.687203   -0.231295   -0.238156
     28          1           0       -5.480424   -1.163896    0.282392
     29          6           0       -4.939906    1.640227   -1.559295
     30          1           0       -4.145699    2.170795   -2.080407
     31          6           0       -6.986330    0.275574   -0.251428
     32          1           0       -7.780767   -0.264709    0.255714
     33          6           0       -6.239660    2.150538   -1.575592
     34          1           0       -6.450842    3.073663   -2.109049
     35          6           0       -7.266447    1.468970   -0.920600
     36          1           0       -8.280004    1.859787   -0.938095
     37          7           0       -0.577671   -1.139559   -0.442589
     38          1           0       -1.193614   -1.368249   -1.210147
     39          6           0        0.844958   -1.463281   -0.609747
     40          1           0        1.289649   -1.330576    0.381706
     41          6           0        1.503598   -0.435554   -1.588215
     42          6           0        1.018766   -2.921669   -1.072180
     43          1           0        0.864807   -2.989832   -2.154851
     44          1           0        0.270220   -3.531331   -0.562513
     45          8           0        2.189886   -0.799479   -2.555610
     46          6           0        2.379430   -3.520688   -0.680406
     47          7           0        3.405690   -3.215859   -1.527374
     48          1           0        4.335419   -3.472459   -1.222849
     49          1           0        3.288270   -2.431112   -2.160512
     50          8           0        2.501279   -4.226045    0.309404
     51          7           0        1.211169    0.841497   -1.287990
     52          1           0        0.695921    1.045936   -0.432951
     53          6           0        1.485370    2.075033   -2.021651
     54          1           0        2.519761    2.396553   -1.820682
     55          6           0        0.531592    3.180952   -1.434277
     56          6           0        1.312458    1.922698   -3.544655
     57          1           0        1.781897    0.976144   -3.828889
     58          1           0        0.241724    1.847717   -3.780049
     59          8           0        0.424984    4.237664   -2.058518
     60          6           0        1.926801    3.082869   -4.337066
     61          1           0        1.401360    4.007595   -4.083066
     62          1           0        2.974242    3.223353   -4.026867
     63          6           0        1.860342    2.863643   -5.850987
     64          1           0        0.827594    2.706132   -6.175134
     65          1           0        2.235602    3.725698   -6.412048
     66          7           0        2.613668    1.673170   -6.312077
     67          1           0        2.152202    0.777426   -6.213216
     68          7           0        4.689582    2.718372   -6.424308
     69          1           0        5.590156    2.795652   -6.874930
     70          1           0        4.389589    3.483912   -5.838372
     71          7           0        4.453957    0.540164   -7.159008
     72          1           0        5.449080    0.373511   -7.106875
     73          1           0        3.874648   -0.231270   -7.458907
     74          6           0        3.909094    1.644464   -6.614367
     75          8           0       -0.051178    2.859166   -0.331637
 ---------------------------------------------------------------------

 SCF Done:  E(RB3LYP) =  -1917.36356849     A.U. after    3 cycles

 Alpha  occ. eigenvalues --  -19.22045 -19.21139 -19.19845 -19.19572 -19.17113
 Alpha  occ. eigenvalues --  -19.15818 -19.15762 -14.53517 -14.53397 -14.53307
 Alpha  occ. eigenvalues --  -14.52996 -14.45035 -14.44717 -14.43194 -14.42649
 Alpha  occ. eigenvalues --  -14.39703 -10.49786 -10.39174 -10.38224 -10.37170
 Alpha  occ. eigenvalues --  -10.36738 -10.36438 -10.35944 -10.34555 -10.33735
 Alpha  occ. eigenvalues --  -10.32055 -10.31395 -10.30185 -10.29506 -10.28844
 Alpha  occ. eigenvalues --  -10.28113 -10.27357 -10.26812 -10.25826 -10.25802
 Alpha  occ. eigenvalues --  -10.25657 -10.25590 -10.25467 -10.25410  -1.18166
 Alpha  occ. eigenvalues --   -1.14472  -1.12462  -1.11994  -1.10940  -1.09571
 Alpha  occ. eigenvalues --   -1.07648  -1.07625  -1.07250  -1.06388  -1.01946
 Alpha  occ. eigenvalues --   -1.01470  -1.00931  -0.98960  -0.98617  -0.94784
 Alpha  occ. eigenvalues --   -0.92425  -0.90659  -0.89186  -0.86823  -0.85132
 Alpha  occ. eigenvalues --   -0.83992  -0.81040  -0.80923  -0.80781  -0.77930
 Alpha  occ. eigenvalues --   -0.77360  -0.75749  -0.74250  -0.73221  -0.72096
 Alpha  occ. eigenvalues --   -0.69590  -0.69252  -0.68573  -0.68457  -0.67501
 Alpha  occ. eigenvalues --   -0.67040  -0.67005  -0.66451  -0.65414  -0.64711
 Alpha  occ. eigenvalues --   -0.64585  -0.63152  -0.62613  -0.61840  -0.61124
 Alpha  occ. eigenvalues --   -0.60469  -0.59445  -0.58826  -0.58517  -0.57824
 Alpha  occ. eigenvalues --   -0.57469  -0.56610  -0.56250  -0.55887  -0.55351
 Alpha  occ. eigenvalues --   -0.55239  -0.54839  -0.54380  -0.53889  -0.52574
 Alpha  occ. eigenvalues --   -0.52187  -0.51627  -0.51077  -0.50636  -0.50208
 Alpha  occ. eigenvalues --   -0.49950  -0.49597  -0.48986  -0.48685  -0.48577
 Alpha  occ. eigenvalues --   -0.48313  -0.47549  -0.47330  -0.47148  -0.46798
 Alpha  occ. eigenvalues --   -0.46340  -0.45952  -0.45749  -0.45393  -0.45031
 Alpha  occ. eigenvalues --   -0.44687  -0.44226  -0.43929  -0.43595  -0.43186
 Alpha  occ. eigenvalues --   -0.42728  -0.42436  -0.41793  -0.41487  -0.41067
 Alpha  occ. eigenvalues --   -0.40677  -0.36761  -0.36172  -0.35636  -0.34975
 Alpha  occ. eigenvalues --   -0.34816  -0.33891  -0.33503  -0.32429  -0.32037
 Alpha  occ. eigenvalues --   -0.31868  -0.31571  -0.31363  -0.30966  -0.29446
 Alpha  occ. eigenvalues --   -0.29209
 Alpha virt. eigenvalues --   -0.13810  -0.09556  -0.08708  -0.07681  -0.06914
 Alpha virt. eigenvalues --   -0.06732  -0.06394  -0.06019  -0.05178  -0.04871
 Alpha virt. eigenvalues --   -0.04157  -0.04001  -0.02384  -0.02028  -0.00330

 Mulliken charges:
               1
     1  N   -0.763989
     2  H    0.418364
     3  H    0.439212
     4  H    0.391484
     5  C   -0.131028
     6  H    0.220705
     7  C    0.658839
     8  C   -0.416711
     9  H    0.242664
    10  H    0.191547
    11  O   -0.537437
    12  C    0.622007
    13  N   -0.735457
    14  H    0.357397
    15  H    0.406725
    16  O   -0.560346
    17  N   -0.617951
    18  H    0.404961
    19  C   -0.060212
    20  H    0.221512
    21  C    0.606816
    22  C   -0.396297
    23  H    0.150106
    24  H    0.160933
    25  O   -0.521903
    26  C    0.177213
    27  C   -0.165890
    28  H    0.134703
    29  C   -0.192160
    30  H    0.125335
    31  C   -0.128791
    32  H    0.146230
    33  C   -0.136491
    34  H    0.137251
    35  C   -0.130168
    36  H    0.143063
    37  N   -0.606359
    38  H    0.340302
    39  C   -0.073964
    40  H    0.222717
    41  C    0.620300
    42  C   -0.362909
    43  H    0.157274
    44  H    0.185032
    45  O   -0.573818
    46  C    0.552902
    47  N   -0.751423
    48  H    0.333242
    49  H    0.363579
    50  O   -0.488204
    51  N   -0.647209
    52  H    0.394306
    53  C   -0.032435
    54  H    0.156582
    55  C    0.582639
    56  C   -0.290168
    57  H    0.158449
    58  H    0.140401
    59  O   -0.527878
    60  C   -0.278483
    61  H    0.226891
    62  H    0.123022
    63  C   -0.197196
    64  H    0.198496
    65  H    0.181688
    66  N   -0.576688
    67  H    0.372566
    68  N   -0.753874
    69  H    0.386619
    70  H    0.397921
    71  N   -0.758317
    72  H    0.385714
    73  H    0.386087
    74  C    0.823897
    75  O   -0.633935
 Sum of Mulliken charges =   1.00000

 Dipole moment (field-independent basis, Debye):
    X=              5.0281    Y=             13.5282    Z=            -22.3128  Tot=             26.5736
 Quadrupole moment (field-independent basis, Debye-Ang):
   XX=            -98.6182   YY=           -196.6192   ZZ=            -46.3140
   XY=             -1.9995   XZ=           -127.3047   YZ=             -3.5679

 Normal termination of Gaussian 16 at Tue Jun  7 03:13:27 2022.
