 Gaussian 16, Revision C.01,
 Gaussian 16:  ES64L-G16RevC.01  3-Jul-2019

 ----------------------------------------------------------------------
 # B3LYP/6-31G* empiricaldispersion=gd3 guess=read geom=check nosymm in
 tegral(ultrafinegrid)
 ----------------------------------------------------------------------

 ------------------------------------------------------
 Candidate Structure: Conf:549 Charge calc in gas phase
 ------------------------------------------------------
 Structure from the checkpoint file:  "conf-549.chk"
 Charge =  1 Multiplicity = 1

                          Input orientation:
 ---------------------------------------------------------------------
 Center     Atomic      Atomic             Coordinates (Angstroms)
 Number     Number       Type             X           Y           Z
 ---------------------------------------------------------------------
      1          7           0       -4.828611   -2.015286    3.255922
      2          1           0       -5.705748   -1.635564    3.621131
      3          1           0       -5.004279   -2.368706    2.302479
      4          1           0       -4.412280   -2.758219    3.919441
      5          6           0       -3.747361   -0.975676    3.149918
      6          1           0       -3.803483   -0.341920    4.038264
      7          6           0       -3.940193   -0.226959    1.820855
      8          6           0       -2.380460   -1.691218    3.058380
      9          1           0       -2.321286   -2.202878    2.088109
     10          1           0       -1.585759   -0.939670    3.067534
     11          8           0       -4.419573   -0.847580    0.876698
     12          6           0       -2.162983   -2.740233    4.152095
     13          7           0       -0.896062   -3.050778    4.404977
     14          1           0       -0.713203   -3.796709    5.065343
     15          1           0       -0.113397   -2.657117    3.866139
     16          8           0       -3.138342   -3.278371    4.721436
     17          7           0       -3.423901    1.027114    1.771873
     18          1           0       -2.944481    1.320818    2.621824
     19          6           0       -2.630158    1.419385    0.596108
     20          1           0       -2.892670    0.729665   -0.210207
     21          6           0       -1.166887    1.179275    1.045761
     22          6           0       -2.892438    2.864525    0.121270
     23          1           0       -3.979296    3.000955    0.095062
     24          1           0       -2.491981    3.571661    0.856483
     25          8           0       -0.900567    1.134187    2.251049
     26          6           0       -2.295599    3.110135   -1.251217
     27          6           0       -1.123337    3.854876   -1.420345
     28          1           0       -0.612037    4.291557   -0.567173
     29          6           0       -2.905278    2.543310   -2.383160
     30          1           0       -3.820557    1.965684   -2.267162
     31          6           0       -0.581817    4.046312   -2.694898
     32          1           0        0.331047    4.623259   -2.781733
     33          6           0       -2.361954    2.726115   -3.654488
     34          1           0       -2.851252    2.285950   -4.518981
     35          6           0       -1.197677    3.484572   -3.812727
     36          1           0       -0.773676    3.637497   -4.801957
     37          7           0       -0.232886    0.958571    0.096081
     38          1           0       -0.493528    0.986538   -0.882411
     39          6           0        1.051847    0.374376    0.490688
     40          1           0        1.290018    0.816216    1.463234
     41          6           0        2.176735    0.772879   -0.483690
     42          6           0        0.924640   -1.163547    0.653665
     43          1           0        1.197889   -1.654330   -0.285697
     44          1           0       -0.110170   -1.409125    0.895233
     45          8           0        3.057813   -0.037545   -0.800038
     46          6           0        1.777104   -1.704376    1.799258
     47          7           0        3.103809   -1.645409    1.591407
     48          1           0        3.732166   -1.947435    2.323346
     49          1           0        3.461070   -1.238289    0.728116
     50          8           0        1.271582   -2.137285    2.841818
     51          7           0        2.124244    2.038251   -0.912051
     52          1           0        1.430688    2.701540   -0.569169
     53          6           0        3.112232    2.666745   -1.782355
     54          1           0        4.114321    2.332772   -1.497279
     55          6           0        2.981543    4.198583   -1.550094
     56          6           0        2.821835    2.224331   -3.245383
     57          1           0        2.720545    1.135371   -3.200301
     58          1           0        1.834901    2.615005   -3.528040
     59          8           0        3.936210    4.921190   -1.981612
     60          6           0        3.874540    2.565244   -4.327440
     61          1           0        4.838002    2.809381   -3.863376
     62          1           0        4.054192    1.680832   -4.949169
     63          6           0        3.480026    3.702225   -5.285125
     64          1           0        4.205410    3.772120   -6.104218
     65          1           0        2.495546    3.497271   -5.722681
     66          7           0        3.443589    4.971815   -4.554099
     67          1           0        3.972165    4.952104   -3.657642
     68          7           0        1.513817    5.884112   -5.512488
     69          1           0        0.816443    6.615081   -5.496767
     70          1           0        1.800803    5.588843   -6.435308
     71          7           0        2.333139    6.644452   -3.450133
     72          1           0        1.579979    7.310954   -3.369676
     73          1           0        2.839547    6.347256   -2.597285
     74          6           0        2.432780    5.835275   -4.510396
     75          8           0        1.928559    4.610291   -1.019139
 ---------------------------------------------------------------------

 SCF Done:  E(RB3LYP) =  -1917.49164164     A.U. after    1 cycles

 Alpha  occ. eigenvalues --  -19.25689 -19.24394 -19.23173 -19.20441 -19.20080
 Alpha  occ. eigenvalues --  -19.16167 -19.16025 -14.56463 -14.48429 -14.48013
 Alpha  occ. eigenvalues --  -14.47349 -14.45913 -14.45893 -14.45361 -14.43215
 Alpha  occ. eigenvalues --  -14.43155 -10.43178 -10.42482 -10.41502 -10.40030
 Alpha  occ. eigenvalues --  -10.39429 -10.37800 -10.37283 -10.34811 -10.34024
 Alpha  occ. eigenvalues --  -10.33383 -10.33183 -10.31973 -10.29258 -10.29176
 Alpha  occ. eigenvalues --  -10.28588 -10.28392 -10.27390 -10.27291 -10.27185
 Alpha  occ. eigenvalues --  -10.27124 -10.26743 -10.26584 -10.26368  -1.17838
 Alpha  occ. eigenvalues --   -1.15789  -1.15215  -1.12004  -1.11872  -1.11500
 Alpha  occ. eigenvalues --   -1.11119  -1.09470  -1.05218  -1.03646  -1.01744
 Alpha  occ. eigenvalues --   -1.01725  -1.00646  -0.99870  -0.99332  -0.98420
 Alpha  occ. eigenvalues --   -0.94162  -0.92251  -0.89194  -0.87614  -0.86726
 Alpha  occ. eigenvalues --   -0.83246  -0.82449  -0.82309  -0.80385  -0.78059
 Alpha  occ. eigenvalues --   -0.75591  -0.74351  -0.73265  -0.72183  -0.71767
 Alpha  occ. eigenvalues --   -0.70943  -0.69485  -0.69288  -0.69126  -0.68459
 Alpha  occ. eigenvalues --   -0.68033  -0.67075  -0.66915  -0.65720  -0.65502
 Alpha  occ. eigenvalues --   -0.65100  -0.64359  -0.62522  -0.62174  -0.61508
 Alpha  occ. eigenvalues --   -0.60454  -0.60189  -0.59551  -0.59403  -0.58856
 Alpha  occ. eigenvalues --   -0.58281  -0.57518  -0.57159  -0.56643  -0.56086
 Alpha  occ. eigenvalues --   -0.55649  -0.55245  -0.54863  -0.54662  -0.53760
 Alpha  occ. eigenvalues --   -0.53578  -0.53303  -0.52353  -0.52252  -0.51933
 Alpha  occ. eigenvalues --   -0.51658  -0.51366  -0.50874  -0.50325  -0.49788
 Alpha  occ. eigenvalues --   -0.49655  -0.49055  -0.48713  -0.48632  -0.48072
 Alpha  occ. eigenvalues --   -0.47905  -0.47592  -0.47050  -0.46765  -0.46353
 Alpha  occ. eigenvalues --   -0.45786  -0.45099  -0.44007  -0.43848  -0.43017
 Alpha  occ. eigenvalues --   -0.42514  -0.42275  -0.42102  -0.41180  -0.40038
 Alpha  occ. eigenvalues --   -0.39072  -0.38909  -0.38563  -0.38144  -0.37481
 Alpha  occ. eigenvalues --   -0.36612  -0.35718  -0.35164  -0.34849  -0.33818
 Alpha  occ. eigenvalues --   -0.33574  -0.33049  -0.32857  -0.31542  -0.30669
 Alpha  occ. eigenvalues --   -0.30203
 Alpha virt. eigenvalues --   -0.12650  -0.10109  -0.09257  -0.08861  -0.08547
 Alpha virt. eigenvalues --   -0.07970  -0.07352  -0.06364  -0.05782  -0.04612
 Alpha virt. eigenvalues --   -0.03127  -0.02389  -0.01974  -0.00344  -0.00334

 Mulliken charges:
               1
     1  N   -0.752737
     2  H    0.404845
     3  H    0.407206
     4  H    0.448117
     5  C   -0.119050
     6  H    0.212580
     7  C    0.609493
     8  C   -0.433249
     9  H    0.211885
    10  H    0.253359
    11  O   -0.501652
    12  C    0.636674
    13  N   -0.758361
    14  H    0.363662
    15  H    0.434136
    16  O   -0.565748
    17  N   -0.562961
    18  H    0.356286
    19  C   -0.105133
    20  H    0.196855
    21  C    0.627931
    22  C   -0.349371
    23  H    0.183501
    24  H    0.172388
    25  O   -0.535554
    26  C    0.135405
    27  C   -0.207932
    28  H    0.168041
    29  C   -0.192577
    30  H    0.139441
    31  C   -0.135361
    32  H    0.154857
    33  C   -0.129279
    34  H    0.145922
    35  C   -0.139842
    36  H    0.128415
    37  N   -0.616355
    38  H    0.355162
    39  C   -0.060006
    40  H    0.225436
    41  C    0.619976
    42  C   -0.357553
    43  H    0.193466
    44  H    0.150194
    45  O   -0.560727
    46  C    0.586174
    47  N   -0.737106
    48  H    0.350898
    49  H    0.394271
    50  O   -0.549064
    51  N   -0.607304
    52  H    0.369767
    53  C   -0.042956
    54  H    0.178613
    55  C    0.599226
    56  C   -0.285079
    57  H    0.172004
    58  H    0.141623
    59  O   -0.634214
    60  C   -0.302366
    61  H    0.180568
    62  H    0.163687
    63  C   -0.155760
    64  H    0.176655
    65  H    0.157203
    66  N   -0.595554
    67  H    0.412214
    68  N   -0.752966
    69  H    0.364291
    70  H    0.370887
    71  N   -0.752195
    72  H    0.353296
    73  H    0.414048
    74  C    0.747709
    75  O   -0.570354
 Sum of Mulliken charges =   1.00000

 Dipole moment (field-independent basis, Debye):
    X=             -9.2400    Y=              4.9619    Z=             -3.7953  Tot=             11.1536
 Quadrupole moment (field-independent basis, Debye-Ang):
   XX=           -164.7564   YY=           -154.3146   ZZ=           -118.6280
   XY=             12.6265   XZ=            -53.8243   YZ=            -84.5726

 Normal termination of Gaussian 16 at Tue May 31 12:09:35 2022.
