 Gaussian 16, Revision C.01,
 Gaussian 16:  ES64L-G16RevC.01  3-Jul-2019

 -------------------------------------------------------------------
 # B3LYP/6-31G* guess=read geom=check nosymm integral(ultrafinegrid)
 -------------------------------------------------------------------

 ------------------------------------------------------
 Candidate Structure: Conf:746 Charge calc in gas phase
 ------------------------------------------------------
 Structure from the checkpoint file:  "conf-746.chk"
 Charge =  1 Multiplicity = 1

                          Input orientation:
 ---------------------------------------------------------------------
 Center     Atomic      Atomic             Coordinates (Angstroms)
 Number     Number       Type             X           Y           Z
 ---------------------------------------------------------------------
      1          7           0       -4.496197    0.221565    3.479594
      2          1           0       -4.895518    1.004725    2.941138
      3          1           0       -4.936559   -0.722176    3.184430
      4          1           0       -4.687146    0.377804    4.473561
      5          6           0       -3.006043    0.015151    3.209292
      6          1           0       -2.432733    0.729617    3.802044
      7          6           0       -2.776863    0.287432    1.710186
      8          6           0       -2.614206   -1.414892    3.587602
      9          1           0       -1.564179   -1.530573    3.312624
     10          1           0       -2.680541   -1.540976    4.676565
     11          8           0       -2.598644   -0.624066    0.911272
     12          6           0       -3.521137   -2.461542    2.944143
     13          7           0       -2.970587   -3.636456    2.618747
     14          1           0       -3.558028   -4.349748    2.204186
     15          1           0       -1.972078   -3.786556    2.633503
     16          8           0       -4.742336   -2.247932    2.812095
     17          7           0       -2.915195    1.592823    1.363048
     18          1           0       -2.765986    2.297347    2.076305
     19          6           0       -2.857252    2.052893   -0.032382
     20          1           0       -3.174781    1.198705   -0.637610
     21          6           0       -1.377527    2.379120   -0.337538
     22          6           0       -3.818920    3.236691   -0.237957
     23          1           0       -3.413979    4.117082    0.272970
     24          1           0       -3.831140    3.480740   -1.305651
     25          8           0       -0.978747    3.543967   -0.456244
     26          6           0       -5.209925    2.906203    0.264770
     27          6           0       -6.087294    2.130645   -0.503608
     28          1           0       -5.794225    1.819320   -1.503863
     29          6           0       -5.622877    3.309570    1.544988
     30          1           0       -4.977643    3.957125    2.137066
     31          6           0       -7.336772    1.755119   -0.005954
     32          1           0       -8.004872    1.159971   -0.621680
     33          6           0       -6.872554    2.933628    2.049351
     34          1           0       -7.188766    3.282902    3.029277
     35          6           0       -7.730998    2.148297    1.274358
     36          1           0       -8.707212    1.864940    1.656848
     37          7           0       -0.580557    1.291218   -0.320906
     38          1           0       -1.041437    0.391243   -0.224137
     39          6           0        0.821721    1.355466    0.061392
     40          1           0        0.949626    2.289420    0.619644
     41          6           0        1.828261    1.389305   -1.105178
     42          6           0        1.185758    0.153794    0.984557
     43          1           0        2.235954   -0.104931    0.837102
     44          1           0        0.576357   -0.715366    0.717181
     45          8           0        1.572798    0.949612   -2.228017
     46          6           0        0.955605    0.497659    2.453160
     47          7           0        2.074137    0.824688    3.116701
     48          1           0        1.997013    1.104041    4.086090
     49          1           0        2.991517    0.875024    2.642737
     50          8           0       -0.184090    0.504289    2.956090
     51          7           0        3.002287    1.933201   -0.700910
     52          1           0        3.070781    2.067998    0.324209
     53          6           0        4.323601    1.369266   -1.038060
     54          1           0        4.172779    0.438145   -1.596779
     55          6           0        4.992337    1.001575    0.358674
     56          6           0        5.209918    2.296672   -1.876744
     57          1           0        5.412055    3.217216   -1.309748
     58          1           0        6.174970    1.792056   -1.969751
     59          8           0        6.130097    0.543801    0.310249
     60          6           0        4.616729    2.620637   -3.270537
     61          1           0        5.352634    2.418562   -4.058587
     62          1           0        3.775863    1.945801   -3.471028
     63          6           0        4.176811    4.080787   -3.479296
     64          1           0        5.052127    4.735470   -3.521129
     65          1           0        3.639779    4.196946   -4.425878
     66          7           0        3.322538    4.645788   -2.417663
     67          1           0        3.802562    5.005440   -1.603538
     68          7           0        1.333334    3.667658   -3.141443
     69          1           0        0.331190    3.630953   -2.998117
     70          1           0        1.729648    2.750048   -3.344460
     71          7           0        1.314741    5.130943   -1.347948
     72          1           0        0.468228    4.699912   -0.969142
     73          1           0        1.768496    5.847074   -0.798513
     74          6           0        2.009062    4.459217   -2.282631
     75          8           0        4.239716    1.240269    1.372600
 ---------------------------------------------------------------------

 SCF Done:  E(RB3LYP) =  -1917.34812030     A.U. after    1 cycles

 Alpha  occ. eigenvalues --  -19.26136 -19.26078 -19.24551 -19.20486 -19.20095
 Alpha  occ. eigenvalues --  -19.13282 -19.11422 -14.57940 -14.50234 -14.49043
 Alpha  occ. eigenvalues --  -14.48883 -14.48032 -14.47390 -14.47001 -14.42915
 Alpha  occ. eigenvalues --  -14.41185 -10.44534 -10.43462 -10.43443 -10.40936
 Alpha  occ. eigenvalues --  -10.40078 -10.37778 -10.36537 -10.35970 -10.34075
 Alpha  occ. eigenvalues --  -10.33505 -10.32358 -10.30658 -10.30625 -10.30501
 Alpha  occ. eigenvalues --  -10.29976 -10.29850 -10.29334 -10.29290 -10.29230
 Alpha  occ. eigenvalues --  -10.28701 -10.27013 -10.26402 -10.24638  -1.18543
 Alpha  occ. eigenvalues --   -1.17459  -1.15618  -1.13152  -1.12463  -1.11423
 Alpha  occ. eigenvalues --   -1.11179  -1.06682  -1.05630  -1.04136  -1.03715
 Alpha  occ. eigenvalues --   -1.02682  -1.00882  -0.99240  -0.98180  -0.96556
 Alpha  occ. eigenvalues --   -0.96267  -0.93255  -0.90631  -0.88064  -0.86870
 Alpha  occ. eigenvalues --   -0.85039  -0.84937  -0.81770  -0.81357  -0.78305
 Alpha  occ. eigenvalues --   -0.76648  -0.75423  -0.74164  -0.73215  -0.72650
 Alpha  occ. eigenvalues --   -0.72041  -0.70785  -0.70419  -0.70329  -0.69966
 Alpha  occ. eigenvalues --   -0.68965  -0.67947  -0.67444  -0.66549  -0.65566
 Alpha  occ. eigenvalues --   -0.65379  -0.63880  -0.63291  -0.62911  -0.61854
 Alpha  occ. eigenvalues --   -0.61656  -0.61361  -0.60976  -0.60705  -0.60225
 Alpha  occ. eigenvalues --   -0.58845  -0.58150  -0.57651  -0.57027  -0.56301
 Alpha  occ. eigenvalues --   -0.55961  -0.55665  -0.55121  -0.54812  -0.54576
 Alpha  occ. eigenvalues --   -0.54044  -0.53576  -0.52896  -0.52706  -0.52468
 Alpha  occ. eigenvalues --   -0.52314  -0.52159  -0.51346  -0.51252  -0.50786
 Alpha  occ. eigenvalues --   -0.50143  -0.49980  -0.49825  -0.48603  -0.48205
 Alpha  occ. eigenvalues --   -0.48053  -0.47826  -0.47633  -0.46248  -0.46086
 Alpha  occ. eigenvalues --   -0.45566  -0.44532  -0.44407  -0.43936  -0.43310
 Alpha  occ. eigenvalues --   -0.42559  -0.41514  -0.41029  -0.40521  -0.40423
 Alpha  occ. eigenvalues --   -0.40171  -0.39918  -0.39779  -0.39255  -0.37759
 Alpha  occ. eigenvalues --   -0.37652  -0.37101  -0.35679  -0.35017  -0.34977
 Alpha  occ. eigenvalues --   -0.34876  -0.33776  -0.32624  -0.28242  -0.27983
 Alpha  occ. eigenvalues --   -0.25216
 Alpha virt. eigenvalues --   -0.14138  -0.11133  -0.11083  -0.10832  -0.10279
 Alpha virt. eigenvalues --   -0.10055  -0.07939  -0.07652  -0.05698  -0.04674
 Alpha virt. eigenvalues --   -0.04364  -0.03809  -0.03115  -0.01274  -0.00682

 Mulliken charges:
               1
     1  N   -0.776859
     2  H    0.406270
     3  H    0.451452
     4  H    0.400842
     5  C   -0.116787
     6  H    0.233384
     7  C    0.673386
     8  C   -0.389806
     9  H    0.232486
    10  H    0.204066
    11  O   -0.511725
    12  C    0.665760
    13  N   -0.723669
    14  H    0.377695
    15  H    0.372035
    16  O   -0.558201
    17  N   -0.603292
    18  H    0.346276
    19  C   -0.083429
    20  H    0.206587
    21  C    0.625591
    22  C   -0.382468
    23  H    0.175472
    24  H    0.183715
    25  O   -0.554624
    26  C    0.189100
    27  C   -0.181417
    28  H    0.146816
    29  C   -0.227938
    30  H    0.130279
    31  C   -0.124928
    32  H    0.162053
    33  C   -0.158848
    34  H    0.150133
    35  C   -0.132213
    36  H    0.159284
    37  N   -0.572722
    38  H    0.374259
    39  C   -0.068682
    40  H    0.175729
    41  C    0.572428
    42  C   -0.398202
    43  H    0.216645
    44  H    0.170822
    45  O   -0.547471
    46  C    0.580483
    47  N   -0.745312
    48  H    0.337344
    49  H    0.427995
    50  O   -0.589090
    51  N   -0.601473
    52  H    0.345873
    53  C   -0.098876
    54  H    0.168193
    55  C    0.595128
    56  C   -0.262218
    57  H    0.115006
    58  H    0.195547
    59  O   -0.527611
    60  C   -0.288224
    61  H    0.168584
    62  H    0.165312
    63  C   -0.175927
    64  H    0.183744
    65  H    0.189031
    66  N   -0.567540
    67  H    0.357102
    68  N   -0.739330
    69  H    0.362677
    70  H    0.405806
    71  N   -0.780651
    72  H    0.414931
    73  H    0.359376
    74  C    0.758046
    75  O   -0.643211
 Sum of Mulliken charges =   1.00000

 Dipole moment (field-independent basis, Debye):
    X=            -18.0478    Y=             10.0458    Z=              7.2023  Tot=             21.8750
 Quadrupole moment (field-independent basis, Debye-Ang):
   XX=           -183.5474   YY=           -144.2786   ZZ=           -157.7001
   XY=             20.5137   XZ=            -69.5764   YZ=            -22.2068

 Normal termination of Gaussian 16 at Tue Jun  7 03:13:14 2022.
