 Gaussian 16, Revision C.01,
 Gaussian 16:  ES64L-G16RevC.01  3-Jul-2019

 ----------------------------------------------------------------------
 # B3LYP/6-31G* empiricaldispersion=gd3 guess=read geom=check nosymm in
 tegral(ultrafinegrid)
 ----------------------------------------------------------------------

 ------------------------------------------------------
 Candidate Structure: Conf:883 Charge calc in gas phase
 ------------------------------------------------------
 Structure from the checkpoint file:  "conf-883.chk"
 Charge =  1 Multiplicity = 1

                          Input orientation:
 ---------------------------------------------------------------------
 Center     Atomic      Atomic             Coordinates (Angstroms)
 Number     Number       Type             X           Y           Z
 ---------------------------------------------------------------------
      1          7           0       -3.357979    2.221669    4.974697
      2          1           0       -4.352270    2.379881    5.153710
      3          1           0       -3.142188    1.250682    5.253323
      4          1           0       -2.745144    2.974814    5.453460
      5          6           0       -3.008398    2.336870    3.516466
      6          1           0       -3.618143    3.141090    3.093918
      7          6           0       -3.296329    0.969437    2.873592
      8          6           0       -1.509643    2.655748    3.392198
      9          1           0       -0.931589    1.793648    3.745601
     10          1           0       -1.232422    2.762246    2.343877
     11          8           0       -3.359515   -0.020687    3.594594
     12          6           0       -1.103485    3.882642    4.205008
     13          7           0       -0.136825    4.628717    3.682009
     14          1           0        0.211413    5.407837    4.226280
     15          1           0        0.294569    4.370834    2.771810
     16          8           0       -1.654492    4.121526    5.307257
     17          7           0       -3.414179    0.974525    1.524934
     18          1           0       -3.236911    1.859802    1.063949
     19          6           0       -3.023910   -0.203399    0.750627
     20          1           0       -3.291391   -1.071791    1.360198
     21          6           0       -1.476216   -0.166575    0.644385
     22          6           0       -3.781997   -0.257824   -0.590940
     23          1           0       -3.443688    0.566968   -1.231339
     24          1           0       -3.509537   -1.184886   -1.109069
     25          8           0       -0.814138    0.371562    1.539545
     26          6           0       -5.281446   -0.199800   -0.399561
     27          6           0       -5.997013    0.969441   -0.678238
     28          1           0       -5.474171    1.836591   -1.077548
     29          6           0       -5.972878   -1.311663    0.098057
     30          1           0       -5.430838   -2.230739    0.311542
     31          6           0       -7.375499    1.030412   -0.464810
     32          1           0       -7.918612    1.942973   -0.695283
     33          6           0       -7.349012   -1.254513    0.315776
     34          1           0       -7.871940   -2.127089    0.697072
     35          6           0       -8.054452   -0.081575    0.035289
     36          1           0       -9.127576   -0.038440    0.198282
     37          7           0       -0.911847   -0.738477   -0.430300
     38          1           0       -1.453029   -1.156558   -1.187493
     39          6           0        0.540696   -0.855273   -0.583964
     40          1           0        0.961333   -1.017762    0.415117
     41          6           0        1.199160    0.432321   -1.154117
     42          6           0        0.861928   -2.059341   -1.483225
     43          1           0        0.507853   -2.970319   -0.990221
     44          1           0        1.943431   -2.129574   -1.607374
     45          8           0        1.928950    0.376093   -2.150678
     46          6           0        0.135943   -1.967563   -2.825220
     47          7           0        0.917304   -1.881414   -3.929872
     48          1           0        0.438568   -1.704767   -4.804649
     49          1           0        1.839349   -1.479104   -3.822567
     50          8           0       -1.097709   -2.002330   -2.877233
     51          7           0        0.936779    1.564541   -0.475315
     52          1           0        0.446539    1.523833    0.419061
     53          6           0        1.593765    2.833257   -0.768438
     54          1           0        2.677616    2.654857   -0.799933
     55          6           0        1.349174    3.815113    0.406352
     56          6           0        1.149982    3.457382   -2.123616
     57          1           0        0.230784    2.956482   -2.442576
     58          1           0        0.897482    4.512792   -1.971212
     59          8           0        1.937678    4.927102    0.346202
     60          6           0        2.205070    3.332313   -3.233296
     61          1           0        2.540450    2.291917   -3.274487
     62          1           0        1.755220    3.561063   -4.209433
     63          6           0        3.438928    4.220851   -3.041743
     64          1           0        3.812660    4.179161   -2.015981
     65          1           0        4.252627    3.883525   -3.693615
     66          7           0        3.189809    5.635854   -3.371391
     67          1           0        2.958899    5.833903   -4.336661
     68          7           0        3.218856    6.545475   -1.229829
     69          1           0        3.411638    7.352778   -0.652358
     70          1           0        2.746861    5.734267   -0.723082
     71          7           0        3.312526    7.924377   -3.108126
     72          1           0        3.208134    8.749774   -2.536130
     73          1           0        3.741029    8.050749   -4.014125
     74          6           0        3.241855    6.690037   -2.544559
     75          8           0        0.589386    3.431572    1.330693
 ---------------------------------------------------------------------

 SCF Done:  E(RB3LYP) =  -1917.49811083     A.U. after    1 cycles

 Alpha  occ. eigenvalues --  -19.22970 -19.21918 -19.20451 -19.19346 -19.19295
 Alpha  occ. eigenvalues --  -19.17670 -19.17553 -14.53973 -14.49624 -14.49450
 Alpha  occ. eigenvalues --  -14.46730 -14.46495 -14.44410 -14.43305 -14.42652
 Alpha  occ. eigenvalues --  -14.42137 -10.45214 -10.40056 -10.38764 -10.37537
 Alpha  occ. eigenvalues --  -10.36907 -10.36759 -10.36110 -10.35520 -10.33035
 Alpha  occ. eigenvalues --  -10.32836 -10.31958 -10.29815 -10.29637 -10.28046
 Alpha  occ. eigenvalues --  -10.27478 -10.27123 -10.26718 -10.26662 -10.25731
 Alpha  occ. eigenvalues --  -10.25520 -10.25512 -10.25404 -10.25269  -1.15341
 Alpha  occ. eigenvalues --   -1.13601  -1.13162  -1.12530  -1.11185  -1.10925
 Alpha  occ. eigenvalues --   -1.10399  -1.08615  -1.03347  -1.03231  -1.02546
 Alpha  occ. eigenvalues --   -1.01090  -1.00938  -0.99122  -0.98704  -0.97720
 Alpha  occ. eigenvalues --   -0.92473  -0.89846  -0.88603  -0.87379  -0.85495
 Alpha  occ. eigenvalues --   -0.82780  -0.81294  -0.80930  -0.78244  -0.77570
 Alpha  occ. eigenvalues --   -0.75310  -0.74363  -0.73255  -0.71014  -0.70086
 Alpha  occ. eigenvalues --   -0.69408  -0.69245  -0.69085  -0.68110  -0.67052
 Alpha  occ. eigenvalues --   -0.67020  -0.66425  -0.65676  -0.65211  -0.64518
 Alpha  occ. eigenvalues --   -0.63565  -0.62875  -0.62004  -0.61392  -0.61222
 Alpha  occ. eigenvalues --   -0.60028  -0.59482  -0.58842  -0.57809  -0.57729
 Alpha  occ. eigenvalues --   -0.57341  -0.57145  -0.56546  -0.55989  -0.55582
 Alpha  occ. eigenvalues --   -0.55034  -0.53516  -0.53020  -0.52727  -0.52576
 Alpha  occ. eigenvalues --   -0.52419  -0.51932  -0.51671  -0.51146  -0.50645
 Alpha  occ. eigenvalues --   -0.50338  -0.50131  -0.49545  -0.49165  -0.48691
 Alpha  occ. eigenvalues --   -0.48550  -0.48368  -0.47817  -0.47401  -0.47217
 Alpha  occ. eigenvalues --   -0.46956  -0.46737  -0.46178  -0.45526  -0.45470
 Alpha  occ. eigenvalues --   -0.44771  -0.44418  -0.43925  -0.43438  -0.42414
 Alpha  occ. eigenvalues --   -0.42228  -0.41949  -0.41006  -0.40622  -0.40194
 Alpha  occ. eigenvalues --   -0.37623  -0.37583  -0.36724  -0.36410  -0.35912
 Alpha  occ. eigenvalues --   -0.35786  -0.34514  -0.34294  -0.33533  -0.33087
 Alpha  occ. eigenvalues --   -0.32754  -0.32510  -0.31936  -0.31516  -0.31421
 Alpha  occ. eigenvalues --   -0.30915
 Alpha virt. eigenvalues --   -0.09751  -0.09498  -0.07248  -0.06878  -0.06722
 Alpha virt. eigenvalues --   -0.06590  -0.06110  -0.05646  -0.05450  -0.04811
 Alpha virt. eigenvalues --   -0.02544  -0.02248  -0.02076  -0.01089   0.00397

 Mulliken charges:
               1
     1  N   -0.752250
     2  H    0.397745
     3  H    0.406455
     4  H    0.443391
     5  C   -0.145602
     6  H    0.198456
     7  C    0.662933
     8  C   -0.392274
     9  H    0.225948
    10  H    0.235851
    11  O   -0.514684
    12  C    0.625061
    13  N   -0.754549
    14  H    0.348342
    15  H    0.418674
    16  O   -0.578797
    17  N   -0.566172
    18  H    0.335870
    19  C   -0.085401
    20  H    0.221755
    21  C    0.632837
    22  C   -0.415578
    23  H    0.155180
    24  H    0.191874
    25  O   -0.548349
    26  C    0.197284
    27  C   -0.187848
    28  H    0.115122
    29  C   -0.178561
    30  H    0.133059
    31  C   -0.130533
    32  H    0.138937
    33  C   -0.128451
    34  H    0.146062
    35  C   -0.129079
    36  H    0.144456
    37  N   -0.639126
    38  H    0.403114
    39  C   -0.082642
    40  H    0.199100
    41  C    0.631184
    42  C   -0.366185
    43  H    0.188846
    44  H    0.178461
    45  O   -0.553897
    46  C    0.594941
    47  N   -0.718906
    48  H    0.344380
    49  H    0.361607
    50  O   -0.531088
    51  N   -0.653965
    52  H    0.401324
    53  C   -0.023147
    54  H    0.161762
    55  C    0.603893
    56  C   -0.276603
    57  H    0.158874
    58  H    0.145310
    59  O   -0.608735
    60  C   -0.288619
    61  H    0.205353
    62  H    0.131516
    63  C   -0.163985
    64  H    0.193310
    65  H    0.180323
    66  N   -0.593640
    67  H    0.351805
    68  N   -0.769125
    69  H    0.354107
    70  H    0.440814
    71  N   -0.764132
    72  H    0.370485
    73  H    0.369266
    74  C    0.783814
    75  O   -0.586960
 Sum of Mulliken charges =   1.00000

 Dipole moment (field-independent basis, Debye):
    X=              0.4353    Y=             21.5310    Z=             -3.2189  Tot=             21.7746
 Quadrupole moment (field-independent basis, Debye-Ang):
   XX=           -142.3766   YY=            -67.6671   ZZ=           -149.3084
   XY=             43.9058   XZ=            -67.5213   YZ=            -44.5849

 Normal termination of Gaussian 16 at Tue May 31 12:09:38 2022.
