 Gaussian 16, Revision C.01,
 Gaussian 16:  ES64L-G16RevC.01  3-Jul-2019

 -------------------------------------------------------------------
 # B3LYP/6-31G* guess=read geom=check nosymm integral(ultrafinegrid)
 -------------------------------------------------------------------

 ------------------------------------------------------
 Candidate Structure: Conf:472 Charge calc in gas phase
 ------------------------------------------------------
 Structure from the checkpoint file:  "conf-472.chk"
 Charge =  1 Multiplicity = 1

                          Input orientation:
 ---------------------------------------------------------------------
 Center     Atomic      Atomic             Coordinates (Angstroms)
 Number     Number       Type             X           Y           Z
 ---------------------------------------------------------------------
      1          7           0       -4.308988   -1.796496    0.216978
      2          1           0       -4.982561   -2.055119    0.943486
      3          1           0       -4.775504   -1.130529   -0.425021
      4          1           0       -3.919933   -2.664703   -0.264388
      5          6           0       -3.109999   -1.075535    0.767594
      6          1           0       -2.872316   -1.512707    1.740855
      7          6           0       -3.467564    0.426126    0.817005
      8          6           0       -1.943461   -1.218927   -0.220936
      9          1           0       -2.175657   -0.644120   -1.128051
     10          1           0       -1.044030   -0.766784    0.198227
     11          8           0       -4.329759    0.837170    0.045352
     12          6           0       -1.636064   -2.649532   -0.645202
     13          7           0       -0.362562   -2.860754   -0.993665
     14          1           0       -0.089304   -3.769654   -1.346157
     15          1           0        0.317631   -2.101615   -0.965915
     16          8           0       -2.531549   -3.513081   -0.685476
     17          7           0       -2.660996    1.174059    1.595808
     18          1           0       -2.068869    0.698801    2.267409
     19          6           0       -2.552307    2.637924    1.540653
     20          1           0       -3.235444    2.955601    0.746883
     21          6           0       -1.110634    3.075276    1.146484
     22          6           0       -2.968708    3.297912    2.872793
     23          1           0       -2.274486    2.976255    3.659860
     24          1           0       -2.809605    4.373033    2.748962
     25          8           0       -0.708807    4.203688    1.394458
     26          6           0       -4.394565    2.987720    3.273430
     27          6           0       -5.471866    3.596238    2.613756
     28          1           0       -5.280580    4.315885    1.820404
     29          6           0       -4.668750    2.079717    4.303853
     30          1           0       -3.844705    1.617083    4.844165
     31          6           0       -6.786831    3.301994    2.972373
     32          1           0       -7.608626    3.790102    2.455882
     33          6           0       -5.984201    1.784693    4.669141
     34          1           0       -6.176574    1.090466    5.482919
     35          6           0       -7.047164    2.393736    4.001507
     36          1           0       -8.071443    2.173119    4.288550
     37          7           0       -0.362555    2.125216    0.527699
     38          1           0       -0.751868    1.218201    0.321629
     39          6           0        1.038694    2.265583    0.172911
     40          1           0        1.176693    3.202933   -0.376652
     41          6           0        1.395183    1.069943   -0.738885
     42          6           0        1.940627    2.284032    1.448580
     43          1           0        1.636999    1.461331    2.099605
     44          1           0        1.766948    3.232260    1.967096
     45          8           0        0.776580   -0.007217   -0.629787
     46          6           0        3.409400    2.050703    1.095890
     47          7           0        4.101357    3.144989    0.662595
     48          1           0        4.939561    2.971372    0.118202
     49          1           0        3.668506    4.054308    0.588159
     50          8           0        3.891148    0.927572    1.125963
     51          7           0        2.387833    1.295069   -1.601880
     52          1           0        2.920314    2.166478   -1.550059
     53          6           0        3.185759    0.268334   -2.269617
     54          1           0        3.085908   -0.673814   -1.726951
     55          6           0        4.667325    0.732905   -2.212659
     56          6           0        2.731520    0.087350   -3.744775
     57          1           0        1.735053   -0.369137   -3.734441
     58          1           0        2.594973    1.088515   -4.174879
     59          8           0        5.510982   -0.198628   -2.370830
     60          6           0        3.701462   -0.760927   -4.602954
     61          1           0        4.371213   -1.309717   -3.938931
     62          1           0        3.137149   -1.500899   -5.183030
     63          6           0        4.550135    0.014226   -5.640539
     64          1           0        5.428369   -0.576036   -5.914722
     65          1           0        3.963076    0.168036   -6.552709
     66          7           0        5.033017    1.358951   -5.274319
     67          1           0        4.390443    2.124340   -5.422829
     68          7           0        7.033881    0.801115   -4.229580
     69          1           0        7.983071    1.101452   -4.041076
     70          1           0        6.554622    0.248718   -3.440040
     71          7           0        6.688683    2.963706   -5.039268
     72          1           0        7.288683    3.391572   -4.347230
     73          1           0        6.149182    3.596806   -5.612731
     74          6           0        6.249465    1.700599   -4.819758
     75          8           0        4.875329    1.967135   -2.124906
 ---------------------------------------------------------------------

 SCF Done:  E(RB3LYP) =  -1917.36157780     A.U. after    2 cycles

 Alpha  occ. eigenvalues --  -19.25886 -19.25350 -19.21928 -19.20649 -19.17550
 Alpha  occ. eigenvalues --  -19.15962 -19.15954 -14.57556 -14.49858 -14.47878
 Alpha  occ. eigenvalues --  -14.47792 -14.47739 -14.45443 -14.44109 -14.44077
 Alpha  occ. eigenvalues --  -14.42002 -10.43149 -10.42994 -10.42538 -10.40275
 Alpha  occ. eigenvalues --  -10.38437 -10.38321 -10.35528 -10.34147 -10.33923
 Alpha  occ. eigenvalues --  -10.33663 -10.33370 -10.32050 -10.29294 -10.27977
 Alpha  occ. eigenvalues --  -10.27573 -10.27279 -10.27033 -10.26394 -10.26336
 Alpha  occ. eigenvalues --  -10.26200 -10.26142 -10.26044 -10.25948  -1.18254
 Alpha  occ. eigenvalues --   -1.16659  -1.13273  -1.12447  -1.12091  -1.11661
 Alpha  occ. eigenvalues --   -1.09503  -1.09209  -1.06331  -1.03173  -1.01808
 Alpha  occ. eigenvalues --   -1.01599  -1.01399  -1.00106  -0.98766  -0.96730
 Alpha  occ. eigenvalues --   -0.93537  -0.92690  -0.88569  -0.87640  -0.86181
 Alpha  occ. eigenvalues --   -0.83056  -0.82197  -0.81572  -0.80851  -0.77468
 Alpha  occ. eigenvalues --   -0.75728  -0.74156  -0.73235  -0.72745  -0.72556
 Alpha  occ. eigenvalues --   -0.72283  -0.70070  -0.68689  -0.68564  -0.68060
 Alpha  occ. eigenvalues --   -0.67686  -0.66642  -0.66330  -0.65626  -0.65372
 Alpha  occ. eigenvalues --   -0.65130  -0.64837  -0.62964  -0.62419  -0.61082
 Alpha  occ. eigenvalues --   -0.60356  -0.59857  -0.59574  -0.58935  -0.58472
 Alpha  occ. eigenvalues --   -0.57998  -0.57147  -0.57069  -0.56577  -0.56267
 Alpha  occ. eigenvalues --   -0.55812  -0.54759  -0.54335  -0.53867  -0.53385
 Alpha  occ. eigenvalues --   -0.53140  -0.52820  -0.52581  -0.52173  -0.51901
 Alpha  occ. eigenvalues --   -0.51650  -0.50528  -0.50113  -0.49836  -0.49618
 Alpha  occ. eigenvalues --   -0.49370  -0.49132  -0.48886  -0.47570  -0.47270
 Alpha  occ. eigenvalues --   -0.46895  -0.46785  -0.46096  -0.45842  -0.45651
 Alpha  occ. eigenvalues --   -0.44904  -0.44541  -0.43459  -0.42979  -0.42752
 Alpha  occ. eigenvalues --   -0.42245  -0.41420  -0.41355  -0.41222  -0.40323
 Alpha  occ. eigenvalues --   -0.39817  -0.39448  -0.39260  -0.38498  -0.36607
 Alpha  occ. eigenvalues --   -0.36379  -0.35034  -0.34688  -0.34248  -0.33350
 Alpha  occ. eigenvalues --   -0.32202  -0.31661  -0.31564  -0.31064  -0.30344
 Alpha  occ. eigenvalues --   -0.29828
 Alpha virt. eigenvalues --   -0.12038  -0.10397  -0.08941  -0.08358  -0.08288
 Alpha virt. eigenvalues --   -0.07611  -0.07308  -0.06350  -0.05019  -0.04615
 Alpha virt. eigenvalues --   -0.04234  -0.02514  -0.02124  -0.00730  -0.00513

 Mulliken charges:
               1
     1  N   -0.751247
     2  H    0.409594
     3  H    0.413277
     4  H    0.443297
     5  C   -0.124722
     6  H    0.208388
     7  C    0.639071
     8  C   -0.425989
     9  H    0.218845
    10  H    0.237581
    11  O   -0.504319
    12  C    0.636995
    13  N   -0.743135
    14  H    0.369813
    15  H    0.404645
    16  O   -0.549497
    17  N   -0.612342
    18  H    0.346385
    19  C   -0.077966
    20  H    0.220647
    21  C    0.631766
    22  C   -0.372435
    23  H    0.152408
    24  H    0.207389
    25  O   -0.511761
    26  C    0.181116
    27  C   -0.176164
    28  H    0.135911
    29  C   -0.201042
    30  H    0.118224
    31  C   -0.127814
    32  H    0.146676
    33  C   -0.132978
    34  H    0.140149
    35  C   -0.131531
    36  H    0.145267
    37  N   -0.654136
    38  H    0.358577
    39  C   -0.025205
    40  H    0.177365
    41  C    0.611429
    42  C   -0.348756
    43  H    0.167950
    44  H    0.190091
    45  O   -0.592579
    46  C    0.568990
    47  N   -0.739014
    48  H    0.370980
    49  H    0.335594
    50  O   -0.494403
    51  N   -0.586397
    52  H    0.355830
    53  C   -0.046833
    54  H    0.174660
    55  C    0.622094
    56  C   -0.265802
    57  H    0.146409
    58  H    0.120984
    59  O   -0.601918
    60  C   -0.292700
    61  H    0.207080
    62  H    0.145391
    63  C   -0.149932
    64  H    0.195049
    65  H    0.165641
    66  N   -0.580147
    67  H    0.346582
    68  N   -0.743329
    69  H    0.344418
    70  H    0.431735
    71  N   -0.750854
    72  H    0.372789
    73  H    0.358037
    74  C    0.757078
    75  O   -0.617248
 Sum of Mulliken charges =   1.00000

 Dipole moment (field-independent basis, Debye):
    X=             -2.3254    Y=              2.3364    Z=             -9.0860  Tot=              9.6655
 Quadrupole moment (field-independent basis, Debye-Ang):
   XX=           -108.7706   YY=           -192.7609   ZZ=           -146.1979
   XY=             56.6907   XZ=            -85.9611   YZ=            -30.4785

 Normal termination of Gaussian 16 at Tue Jun  7 03:13:06 2022.
