 Gaussian 16, Revision C.01,
 Gaussian 16:  ES64L-G16RevC.01  3-Jul-2019

 -------------------------------------------------------------------
 # B3LYP/6-31G* guess=read geom=check nosymm integral(ultrafinegrid)
 -------------------------------------------------------------------

 ------------------------------------------------------
 Candidate Structure: Conf:448 Charge calc in gas phase
 ------------------------------------------------------
 Structure from the checkpoint file:  "conf-448.chk"
 Charge =  1 Multiplicity = 1

                          Input orientation:
 ---------------------------------------------------------------------
 Center     Atomic      Atomic             Coordinates (Angstroms)
 Number     Number       Type             X           Y           Z
 ---------------------------------------------------------------------
      1          7           0       -2.303696   -1.346125    4.557666
      2          1           0       -3.046398   -1.742861    5.140238
      3          1           0       -2.306573   -1.834160    3.608846
      4          1           0       -1.407550   -1.471896    5.035611
      5          6           0       -2.570490    0.089176    4.153991
      6          1           0       -3.338691    0.516034    4.799527
      7          6           0       -3.047304   -0.062323    2.684039
      8          6           0       -1.284008    0.922563    4.243167
      9          1           0       -0.854285    0.828195    5.250314
     10          1           0       -0.533110    0.596974    3.513549
     11          8           0       -2.824213   -1.150437    2.125055
     12          6           0       -1.625278    2.407814    4.024360
     13          7           0       -0.598623    3.169953    3.619342
     14          1           0       -0.823851    4.123797    3.362885
     15          1           0        0.200167    2.731520    3.156606
     16          8           0       -2.768789    2.816178    4.254204
     17          7           0       -3.609848    1.007706    2.129824
     18          1           0       -3.635598    1.858207    2.695672
     19          6           0       -3.737936    1.162252    0.670533
     20          1           0       -3.974136    0.176421    0.262788
     21          6           0       -2.354266    1.663539    0.200317
     22          6           0       -4.846513    2.174821    0.331145
     23          1           0       -4.535407    3.154430    0.710556
     24          1           0       -4.880511    2.260968   -0.761925
     25          8           0       -1.928079    2.744903    0.595784
     26          6           0       -6.204924    1.788093    0.877010
     27          6           0       -6.965130    0.785386    0.259239
     28          1           0       -6.588099    0.299644   -0.638919
     29          6           0       -6.720798    2.414017    2.018741
     30          1           0       -6.152722    3.207647    2.499894
     31          6           0       -8.207268    0.413147    0.772616
     32          1           0       -8.787181   -0.360185    0.276326
     33          6           0       -7.964679    2.044917    2.534976
     34          1           0       -8.353778    2.548245    3.415858
     35          6           0       -8.710039    1.041945    1.914192
     36          1           0       -9.681146    0.758402    2.310122
     37          7           0       -1.641649    0.805427   -0.569749
     38          1           0       -2.052152   -0.042694   -0.943196
     39          6           0       -0.267455    1.064219   -0.941619
     40          1           0       -0.106612    2.139784   -0.835323
     41          6           0       -0.025156    0.616894   -2.387709
     42          6           0        0.755281    0.272426   -0.037502
     43          1           0        1.494561   -0.232010   -0.666645
     44          1           0        0.204981   -0.487532    0.520922
     45          8           0       -0.672359   -0.297175   -2.893724
     46          6           0        1.477525    1.170863    0.957999
     47          7           0        2.594887    1.754214    0.488714
     48          1           0        3.115832    2.359578    1.110031
     49          1           0        3.003846    1.512638   -0.420506
     50          8           0        1.034678    1.362340    2.101956
     51          7           0        1.017571    1.258865   -2.978184
     52          1           0        1.574557    1.853055   -2.365390
     53          6           0        1.904861    0.582628   -3.919441
     54          1           0        1.509882   -0.428701   -4.049317
     55          6           0        3.322939    0.462300   -3.243325
     56          6           0        1.969775    1.307357   -5.279876
     57          1           0        1.975395    2.386437   -5.087173
     58          1           0        2.933023    1.088707   -5.752991
     59          8           0        4.173951   -0.262421   -3.838234
     60          6           0        0.811139    0.993089   -6.244135
     61          1           0       -0.147238    1.171110   -5.739878
     62          1           0        0.852924    1.690344   -7.091659
     63          6           0        0.768001   -0.446329   -6.792736
     64          1           0        0.567856   -1.163304   -5.992911
     65          1           0       -0.052678   -0.555286   -7.506527
     66          7           0        1.999659   -0.848744   -7.504062
     67          1           0        2.084362   -0.541565   -8.465652
     68          7           0        3.173528   -1.786292   -5.688757
     69          1           0        3.700760   -1.255946   -4.888725
     70          1           0        2.292009   -2.187500   -5.392581
     71          7           0        4.324936   -0.879227   -7.457511
     72          1           0        5.169905   -1.213063   -7.012249
     73          1           0        4.414741   -0.107956   -8.103874
     74          6           0        3.146621   -1.166497   -6.870090
     75          8           0        3.492683    1.100869   -2.182058
 ---------------------------------------------------------------------

 SCF Done:  E(RB3LYP) =  -1917.36788239     A.U. after    1 cycles

 Alpha  occ. eigenvalues --  -19.25690 -19.21266 -19.20093 -19.20005 -19.19900
 Alpha  occ. eigenvalues --  -19.16777 -19.16438 -14.58910 -14.48685 -14.48407
 Alpha  occ. eigenvalues --  -14.47852 -14.44912 -14.44357 -14.43801 -14.42786
 Alpha  occ. eigenvalues --  -14.42623 -10.43602 -10.42105 -10.39187 -10.39074
 Alpha  occ. eigenvalues --  -10.37480 -10.37462 -10.36636 -10.34637 -10.33232
 Alpha  occ. eigenvalues --  -10.33115 -10.32218 -10.32042 -10.29597 -10.28078
 Alpha  occ. eigenvalues --  -10.27862 -10.27619 -10.26907 -10.26722 -10.25673
 Alpha  occ. eigenvalues --  -10.25614 -10.25533 -10.25481 -10.25349  -1.18003
 Alpha  occ. eigenvalues --   -1.12960  -1.12741  -1.12355  -1.12207  -1.11371
 Alpha  occ. eigenvalues --   -1.11151  -1.09706  -1.04698  -1.02321  -1.01723
 Alpha  occ. eigenvalues --   -1.01215  -0.99607  -0.99461  -0.99062  -0.97909
 Alpha  occ. eigenvalues --   -0.92631  -0.91615  -0.88553  -0.87662  -0.85928
 Alpha  occ. eigenvalues --   -0.82384  -0.81984  -0.80955  -0.80096  -0.77717
 Alpha  occ. eigenvalues --   -0.75848  -0.73622  -0.72943  -0.72716  -0.72509
 Alpha  occ. eigenvalues --   -0.70475  -0.69397  -0.68605  -0.67578  -0.67188
 Alpha  occ. eigenvalues --   -0.67047  -0.66322  -0.66188  -0.65670  -0.65235
 Alpha  occ. eigenvalues --   -0.64128  -0.62591  -0.62102  -0.61848  -0.61656
 Alpha  occ. eigenvalues --   -0.61124  -0.60426  -0.59419  -0.58376  -0.58008
 Alpha  occ. eigenvalues --   -0.57517  -0.57013  -0.56588  -0.55959  -0.55515
 Alpha  occ. eigenvalues --   -0.54819  -0.54517  -0.53390  -0.52948  -0.52635
 Alpha  occ. eigenvalues --   -0.52561  -0.52319  -0.52001  -0.51377  -0.51272
 Alpha  occ. eigenvalues --   -0.50721  -0.50384  -0.49362  -0.49230  -0.48816
 Alpha  occ. eigenvalues --   -0.48523  -0.48264  -0.48120  -0.47642  -0.47429
 Alpha  occ. eigenvalues --   -0.47108  -0.46677  -0.46145  -0.46004  -0.45755
 Alpha  occ. eigenvalues --   -0.45549  -0.44924  -0.43708  -0.43567  -0.43179
 Alpha  occ. eigenvalues --   -0.42219  -0.41299  -0.40769  -0.40673  -0.40203
 Alpha  occ. eigenvalues --   -0.38907  -0.38562  -0.37355  -0.36447  -0.35221
 Alpha  occ. eigenvalues --   -0.35145  -0.34729  -0.34554  -0.34316  -0.33534
 Alpha  occ. eigenvalues --   -0.32741  -0.32144  -0.31571  -0.31073  -0.30662
 Alpha  occ. eigenvalues --   -0.30275
 Alpha virt. eigenvalues --   -0.11164  -0.10090  -0.10014  -0.08102  -0.07735
 Alpha virt. eigenvalues --   -0.06992  -0.06700  -0.05645  -0.04863  -0.04538
 Alpha virt. eigenvalues --   -0.04505  -0.02551  -0.01363  -0.00976  -0.00520

 Mulliken charges:
               1
     1  N   -0.761740
     2  H    0.415964
     3  H    0.430475
     4  H    0.412708
     5  C   -0.105331
     6  H    0.237867
     7  C    0.644288
     8  C   -0.418134
     9  H    0.195037
    10  H    0.233460
    11  O   -0.552538
    12  C    0.612363
    13  N   -0.740491
    14  H    0.359310
    15  H    0.398476
    16  O   -0.534866
    17  N   -0.585805
    18  H    0.396633
    19  C   -0.064076
    20  H    0.180042
    21  C    0.633317
    22  C   -0.396814
    23  H    0.186850
    24  H    0.175264
    25  O   -0.534172
    26  C    0.181088
    27  C   -0.182828
    28  H    0.126392
    29  C   -0.198090
    30  H    0.138637
    31  C   -0.128314
    32  H    0.142843
    33  C   -0.130071
    34  H    0.143470
    35  C   -0.129682
    36  H    0.144275
    37  N   -0.601288
    38  H    0.352852
    39  C   -0.059448
    40  H    0.206367
    41  C    0.583684
    42  C   -0.367612
    43  H    0.190528
    44  H    0.174053
    45  O   -0.536296
    46  C    0.584592
    47  N   -0.760696
    48  H    0.344558
    49  H    0.425064
    50  O   -0.552667
    51  N   -0.572776
    52  H    0.339494
    53  C   -0.093003
    54  H    0.141549
    55  C    0.617034
    56  C   -0.272672
    57  H    0.166546
    58  H    0.142222
    59  O   -0.597624
    60  C   -0.266633
    61  H    0.180914
    62  H    0.145191
    63  C   -0.180188
    64  H    0.183225
    65  H    0.185829
    66  N   -0.571931
    67  H    0.349187
    68  N   -0.752388
    69  H    0.430980
    70  H    0.346276
    71  N   -0.727651
    72  H    0.389179
    73  H    0.364108
    74  C    0.716633
    75  O   -0.573001
 Sum of Mulliken charges =   1.00000

 Dipole moment (field-independent basis, Debye):
    X=             -3.8798    Y=             -3.5008    Z=             -3.2125  Tot=              6.1342
 Quadrupole moment (field-independent basis, Debye-Ang):
   XX=           -177.1481   YY=           -215.0522   ZZ=            -10.1510
   XY=             10.5677   XZ=            -75.8507   YZ=            -15.5050

 Normal termination of Gaussian 16 at Tue Jun  7 03:12:56 2022.
