 Gaussian 16, Revision C.01,
 Gaussian 16:  ES64L-G16RevC.01  3-Jul-2019

 -------------------------------------------------------------------
 # B3LYP/6-31G* guess=read geom=check nosymm integral(ultrafinegrid)
 -------------------------------------------------------------------

 ------------------------------------------------------
 Candidate Structure: Conf:549 Charge calc in gas phase
 ------------------------------------------------------
 Structure from the checkpoint file:  "conf-549.chk"
 Charge =  1 Multiplicity = 1

                          Input orientation:
 ---------------------------------------------------------------------
 Center     Atomic      Atomic             Coordinates (Angstroms)
 Number     Number       Type             X           Y           Z
 ---------------------------------------------------------------------
      1          7           0       -4.676905   -2.492818    3.422829
      2          1           0       -5.541971   -2.145363    3.845348
      3          1           0       -4.892354   -2.798437    2.458758
      4          1           0       -4.225873   -3.251116    4.035086
      5          6           0       -3.623430   -1.426223    3.304532
      6          1           0       -3.673259   -0.804126    4.201600
      7          6           0       -3.901578   -0.661170    1.996633
      8          6           0       -2.243673   -2.104222    3.164200
      9          1           0       -2.198353   -2.616387    2.193818
     10          1           0       -1.460409   -1.342533    3.139881
     11          8           0       -4.437987   -1.274302    1.075333
     12          6           0       -1.960451   -3.144633    4.251084
     13          7           0       -0.675053   -3.376940    4.513334
     14          1           0       -0.449360   -4.121026    5.162128
     15          1           0        0.068372   -2.945558    3.958178
     16          8           0       -2.899429   -3.744356    4.815731
     17          7           0       -3.424466    0.598862    1.954816
     18          1           0       -2.893570    0.921844    2.762840
     19          6           0       -2.889215    1.193995    0.717014
     20          1           0       -3.132785    0.510970   -0.100769
     21          6           0       -1.365131    1.223918    0.996314
     22          6           0       -3.490684    2.587783    0.414080
     23          1           0       -4.568021    2.513467    0.597916
     24          1           0       -3.087781    3.314983    1.128524
     25          8           0       -0.983402    1.400341    2.154712
     26          6           0       -3.234016    3.022186   -1.015030
     27          6           0       -2.124094    3.806220   -1.353528
     28          1           0       -1.435762    4.153304   -0.587344
     29          6           0       -4.103123    2.605338   -2.035197
     30          1           0       -4.976345    2.005092   -1.786281
     31          6           0       -1.884210    4.166097   -2.682264
     32          1           0       -1.006539    4.763390   -2.905004
     33          6           0       -3.869615    2.967113   -3.361559
     34          1           0       -4.558814    2.645910   -4.137931
     35          6           0       -2.757722    3.748306   -3.686887
     36          1           0       -2.578580    4.033316   -4.720242
     37          7           0       -0.502092    0.968421   -0.023709
     38          1           0       -0.881925    0.765589   -0.940857
     39          6           0        0.845214    0.498841    0.306304
     40          1           0        1.018659    0.883538    1.316091
     41          6           0        1.986180    1.078975   -0.546317
     42          6           0        0.907281   -1.059603    0.344918
     43          1           0        1.452001   -1.432127   -0.527820
     44          1           0       -0.104824   -1.466943    0.325998
     45          8           0        3.077557    0.488329   -0.552058
     46          6           0        1.566369   -1.577144    1.621588
     47          7           0        2.884381   -1.329475    1.706644
     48          1           0        3.389466   -1.583661    2.544594
     49          1           0        3.331257   -0.776826    0.973174
     50          8           0        0.907166   -2.155681    2.495784
     51          7           0        1.749609    2.227387   -1.187748
     52          1           0        0.878943    2.748107   -1.073155
     53          6           0        2.794655    3.029802   -1.821621
     54          1           0        3.689346    2.993193   -1.190192
     55          6           0        2.247199    4.493608   -1.849204
     56          6           0        3.154948    2.444488   -3.223890
     57          1           0        3.014039    1.364153   -3.133721
     58          1           0        2.419460    2.789561   -3.963043
     59          8           0        3.105082    5.396674   -2.129897
     60          6           0        4.601746    2.675063   -3.739156
     61          1           0        5.262979    2.941069   -2.904687
     62          1           0        4.992022    1.731613   -4.136821
     63          6           0        4.772784    3.717916   -4.854379
     64          1           0        5.819319    3.720085   -5.188201
     65          1           0        4.147328    3.460059   -5.719732
     66          7           0        4.395706    5.037070   -4.348705
     67          1           0        4.116272    5.078750   -3.335285
     68          7           0        4.068991    6.126188   -6.388056
     69          1           0        3.639065    6.869358   -6.918255
     70          1           0        4.862335    5.664795   -6.807502
     71          7           0        3.089509    6.918165   -4.416549
     72          1           0        2.910222    7.834802   -4.797797
     73          1           0        2.845178    6.695142   -3.436761
     74          6           0        3.866741    6.030793   -5.052741
     75          8           0        1.041034    4.658959   -1.606012
 ---------------------------------------------------------------------

 SCF Done:  E(RB3LYP) =  -1917.39212168     A.U. after    1 cycles

 Alpha  occ. eigenvalues --  -19.24930 -19.24279 -19.22552 -19.20691 -19.19499
 Alpha  occ. eigenvalues --  -19.16059 -19.15349 -14.56183 -14.47806 -14.47590
 Alpha  occ. eigenvalues --  -14.46876 -14.46108 -14.45148 -14.44209 -14.43375
 Alpha  occ. eigenvalues --  -14.42607 -10.42297 -10.41941 -10.41442 -10.39578
 Alpha  occ. eigenvalues --  -10.39045 -10.37976 -10.36715 -10.34147 -10.33635
 Alpha  occ. eigenvalues --  -10.32931 -10.32926 -10.31343 -10.28777 -10.28444
 Alpha  occ. eigenvalues --  -10.28011 -10.26892 -10.26543 -10.26033 -10.25459
 Alpha  occ. eigenvalues --  -10.25263 -10.24992 -10.24902 -10.24487  -1.17182
 Alpha  occ. eigenvalues --   -1.15633  -1.14619  -1.11837  -1.11106  -1.10985
 Alpha  occ. eigenvalues --   -1.10816  -1.08892  -1.04694  -1.02973  -1.01747
 Alpha  occ. eigenvalues --   -1.01166  -0.99920  -0.99002  -0.98911  -0.98441
 Alpha  occ. eigenvalues --   -0.92505  -0.91604  -0.88222  -0.86941  -0.86121
 Alpha  occ. eigenvalues --   -0.82249  -0.81582  -0.80443  -0.79701  -0.77376
 Alpha  occ. eigenvalues --   -0.74715  -0.73716  -0.72780  -0.71913  -0.71455
 Alpha  occ. eigenvalues --   -0.70699  -0.68890  -0.68671  -0.68606  -0.67464
 Alpha  occ. eigenvalues --   -0.67020  -0.66641  -0.65526  -0.64851  -0.64732
 Alpha  occ. eigenvalues --   -0.64550  -0.64319  -0.62286  -0.61717  -0.61467
 Alpha  occ. eigenvalues --   -0.60071  -0.59664  -0.59045  -0.58376  -0.58014
 Alpha  occ. eigenvalues --   -0.57587  -0.56962  -0.56643  -0.56131  -0.55449
 Alpha  occ. eigenvalues --   -0.55311  -0.54881  -0.54620  -0.53771  -0.53257
 Alpha  occ. eigenvalues --   -0.52670  -0.52110  -0.51669  -0.51484  -0.51172
 Alpha  occ. eigenvalues --   -0.50676  -0.50401  -0.49983  -0.49826  -0.49567
 Alpha  occ. eigenvalues --   -0.48658  -0.48394  -0.48245  -0.47516  -0.47286
 Alpha  occ. eigenvalues --   -0.47183  -0.46884  -0.46267  -0.45974  -0.45692
 Alpha  occ. eigenvalues --   -0.45254  -0.44582  -0.43149  -0.42216  -0.42115
 Alpha  occ. eigenvalues --   -0.41653  -0.40803  -0.40620  -0.40052  -0.39449
 Alpha  occ. eigenvalues --   -0.38463  -0.38229  -0.38100  -0.38076  -0.37032
 Alpha  occ. eigenvalues --   -0.36092  -0.35416  -0.34996  -0.34818  -0.33413
 Alpha  occ. eigenvalues --   -0.32911  -0.31305  -0.31062  -0.30883  -0.30545
 Alpha  occ. eigenvalues --   -0.29570
 Alpha virt. eigenvalues --   -0.11741  -0.09385  -0.09182  -0.07186  -0.07010
 Alpha virt. eigenvalues --   -0.06847  -0.06368  -0.05906  -0.05552  -0.03512
 Alpha virt. eigenvalues --   -0.02770  -0.01688  -0.01225  -0.00422   0.00290

 Mulliken charges:
               1
     1  N   -0.752285
     2  H    0.404766
     3  H    0.408466
     4  H    0.445898
     5  C   -0.125066
     6  H    0.211154
     7  C    0.621500
     8  C   -0.406320
     9  H    0.217342
    10  H    0.233989
    11  O   -0.512227
    12  C    0.629950
    13  N   -0.747216
    14  H    0.363967
    15  H    0.419477
    16  O   -0.560861
    17  N   -0.579246
    18  H    0.362736
    19  C   -0.082841
    20  H    0.188175
    21  C    0.631721
    22  C   -0.355365
    23  H    0.174562
    24  H    0.175050
    25  O   -0.529430
    26  C    0.143892
    27  C   -0.206250
    28  H    0.158607
    29  C   -0.188306
    30  H    0.129616
    31  C   -0.133239
    32  H    0.170824
    33  C   -0.127614
    34  H    0.140257
    35  C   -0.132515
    36  H    0.134849
    37  N   -0.620227
    38  H    0.349858
    39  C   -0.071025
    40  H    0.234085
    41  C    0.632596
    42  C   -0.364553
    43  H    0.197428
    44  H    0.156197
    45  O   -0.565178
    46  C    0.582531
    47  N   -0.732520
    48  H    0.346849
    49  H    0.395045
    50  O   -0.556917
    51  N   -0.620091
    52  H    0.370341
    53  C   -0.052356
    54  H    0.173027
    55  C    0.597543
    56  C   -0.275457
    57  H    0.170418
    58  H    0.144110
    59  O   -0.627765
    60  C   -0.305691
    61  H    0.171233
    62  H    0.163737
    63  C   -0.144747
    64  H    0.163280
    65  H    0.162883
    66  N   -0.613670
    67  H    0.416216
    68  N   -0.756664
    69  H    0.365099
    70  H    0.372530
    71  N   -0.779571
    72  H    0.351618
    73  H    0.415829
    74  C    0.772303
    75  O   -0.546338
 Sum of Mulliken charges =   1.00000

 Dipole moment (field-independent basis, Debye):
    X=             -1.9779    Y=              3.4769    Z=             -3.9614  Tot=              5.6297
 Quadrupole moment (field-independent basis, Debye-Ang):
   XX=           -128.7159   YY=           -145.9159   ZZ=            -93.3068
   XY=             59.3098   XZ=            -88.8249   YZ=           -106.8474

 Normal termination of Gaussian 16 at Tue Jun  7 03:12:51 2022.
