 Gaussian 16, Revision C.01,
 Gaussian 16:  ES64L-G16RevC.01  3-Jul-2019

 ----------------------------------------------------------------------
 # B3LYP/6-31G* empiricaldispersion=gd3 guess=read geom=check nosymm in
 tegral(ultrafinegrid)
 ----------------------------------------------------------------------

 ------------------------------------------------------
 Candidate Structure: Conf:315 Charge calc in gas phase
 ------------------------------------------------------
 Structure from the checkpoint file:  "conf-315.chk"
 Charge =  1 Multiplicity = 1

                          Input orientation:
 ---------------------------------------------------------------------
 Center     Atomic      Atomic             Coordinates (Angstroms)
 Number     Number       Type             X           Y           Z
 ---------------------------------------------------------------------
      1          7           0       -5.823041   -1.670541    2.909956
      2          1           0       -6.509975   -0.969364    2.572266
      3          1           0       -5.506441   -2.187461    2.053893
      4          1           0       -6.258605   -2.284579    3.602224
      5          6           0       -4.570400   -0.974838    3.385152
      6          1           0       -4.859387   -0.049540    3.881316
      7          6           0       -3.850465   -0.694111    2.039841
      8          6           0       -3.755336   -1.855318    4.333542
      9          1           0       -4.391520   -2.256130    5.134931
     10          1           0       -3.319239   -2.706696    3.797418
     11          8           0       -4.100438   -1.468049    1.104144
     12          6           0       -2.661093   -0.983174    4.979624
     13          7           0       -1.714446   -1.650780    5.671605
     14          1           0       -0.980635   -1.115784    6.118437
     15          1           0       -1.682371   -2.657820    5.737013
     16          8           0       -2.691298    0.238603    4.872729
     17          7           0       -3.079302    0.386453    1.974609
     18          1           0       -2.848637    0.913084    2.817253
     19          6           0       -2.714456    0.984132    0.694089
     20          1           0       -2.629456    0.181491   -0.041287
     21          6           0       -1.390767    1.731388    0.912186
     22          6           0       -3.815072    2.007509    0.257721
     23          1           0       -3.672206    2.915115    0.853950
     24          1           0       -3.634896    2.269837   -0.790482
     25          8           0       -1.204056    2.319668    1.978470
     26          6           0       -5.218507    1.478035    0.458060
     27          6           0       -5.913524    1.760876    1.642472
     28          1           0       -5.470962    2.434357    2.372601
     29          6           0       -5.818736    0.625744   -0.479869
     30          1           0       -5.290490    0.388870   -1.399545
     31          6           0       -7.174277    1.202779    1.890884
     32          1           0       -7.715116    1.470185    2.795813
     33          6           0       -7.071303    0.061834   -0.240702
     34          1           0       -7.520260   -0.590238   -0.984264
     35          6           0       -7.756260    0.344716    0.947860
     36          1           0       -8.748449   -0.065434    1.118540
     37          7           0       -0.540830    1.732685   -0.125540
     38          1           0       -0.680852    1.165796   -0.959802
     39          6           0        0.755920    2.387876   -0.091286
     40          1           0        0.625560    3.413211    0.270636
     41          6           0        1.283958    2.375880   -1.539505
     42          6           0        1.738245    1.623541    0.847803
     43          1           0        1.694406    0.561207    0.598651
     44          1           0        1.400849    1.769274    1.879101
     45          8           0        0.901405    1.505785   -2.326016
     46          6           0        3.181871    2.074760    0.624469
     47          7           0        3.533005    3.265234    1.203520
     48          1           0        4.288802    3.765088    0.741201
     49          1           0        2.826228    3.838864    1.643713
     50          8           0        3.941574    1.433027   -0.085318
     51          7           0        2.191052    3.327151   -1.814427
     52          1           0        2.516176    3.964197   -1.086685
     53          6           0        3.205093    3.189516   -2.856990
     54          1           0        3.423279    2.124954   -2.988760
     55          6           0        4.482467    3.891459   -2.295550
     56          6           0        2.667702    3.774112   -4.194616
     57          1           0        1.610099    3.496095   -4.217974
     58          1           0        2.696636    4.871381   -4.144737
     59          8           0        5.568891    3.652669   -2.920060
     60          6           0        3.314625    3.268275   -5.509896
     61          1           0        3.855629    2.330087   -5.332081
     62          1           0        2.524468    3.025369   -6.229484
     63          6           0        4.256715    4.257395   -6.212872
     64          1           0        4.567204    3.847800   -7.183134
     65          1           0        3.737032    5.206416   -6.399702
     66          7           0        5.427322    4.493710   -5.368221
     67          1           0        5.502737    3.871567   -4.527092
     68          7           0        5.957626    6.643068   -6.108877
     69          1           0        6.435547    7.519257   -5.959330
     70          1           0        5.776657    6.389894   -7.069035
     71          7           0        6.682201    5.859773   -4.022954
     72          1           0        7.302689    6.642669   -3.886973
     73          1           0        6.511306    5.165028   -3.269801
     74          6           0        6.029813    5.662938   -5.172894
     75          8           0        4.347713    4.643225   -1.311170
 ---------------------------------------------------------------------

 SCF Done:  E(RB3LYP) =  -1917.45779063     A.U. after    1 cycles

 Alpha  occ. eigenvalues --  -19.25152 -19.23884 -19.19721 -19.17171 -19.15208
 Alpha  occ. eigenvalues --  -19.14231 -19.13607 -14.58936 -14.47784 -14.47748
 Alpha  occ. eigenvalues --  -14.46181 -14.43888 -14.43591 -14.42708 -14.39779
 Alpha  occ. eigenvalues --  -14.39183 -10.42118 -10.42073 -10.40821 -10.39720
 Alpha  occ. eigenvalues --  -10.37141 -10.34864 -10.34052 -10.33648 -10.33037
 Alpha  occ. eigenvalues --  -10.31808 -10.30457 -10.30302 -10.30249 -10.30079
 Alpha  occ. eigenvalues --  -10.29782 -10.29744 -10.29595 -10.29364 -10.29342
 Alpha  occ. eigenvalues --  -10.26414 -10.25140 -10.25082 -10.23971  -1.17943
 Alpha  occ. eigenvalues --   -1.15795  -1.12888  -1.11826  -1.09589  -1.08926
 Alpha  occ. eigenvalues --   -1.07174  -1.06979  -1.04684  -1.02730  -1.00329
 Alpha  occ. eigenvalues --   -0.99489  -0.98249  -0.97513  -0.96578  -0.96303
 Alpha  occ. eigenvalues --   -0.94160  -0.93217  -0.89308  -0.85756  -0.85104
 Alpha  occ. eigenvalues --   -0.85016  -0.83529  -0.81525  -0.79251  -0.76563
 Alpha  occ. eigenvalues --   -0.74557  -0.73902  -0.72783  -0.72402  -0.71185
 Alpha  occ. eigenvalues --   -0.71104  -0.70407  -0.69619  -0.68755  -0.67222
 Alpha  occ. eigenvalues --   -0.66478  -0.65910  -0.65556  -0.65169  -0.63413
 Alpha  occ. eigenvalues --   -0.63342  -0.62736  -0.62236  -0.61647  -0.60926
 Alpha  occ. eigenvalues --   -0.58876  -0.58841  -0.58312  -0.58018  -0.57638
 Alpha  occ. eigenvalues --   -0.57227  -0.56854  -0.56339  -0.55674  -0.55155
 Alpha  occ. eigenvalues --   -0.54336  -0.54026  -0.53744  -0.53518  -0.53135
 Alpha  occ. eigenvalues --   -0.52841  -0.52435  -0.51757  -0.51466  -0.51009
 Alpha  occ. eigenvalues --   -0.50708  -0.50059  -0.49472  -0.49375  -0.48936
 Alpha  occ. eigenvalues --   -0.48763  -0.48119  -0.47071  -0.46863  -0.46554
 Alpha  occ. eigenvalues --   -0.46075  -0.45398  -0.45303  -0.44599  -0.44251
 Alpha  occ. eigenvalues --   -0.44160  -0.43771  -0.43188  -0.42598  -0.41486
 Alpha  occ. eigenvalues --   -0.41020  -0.40413  -0.39969  -0.39827  -0.38916
 Alpha  occ. eigenvalues --   -0.38568  -0.38144  -0.37904  -0.36701  -0.35635
 Alpha  occ. eigenvalues --   -0.35386  -0.34125  -0.33388  -0.33241  -0.31583
 Alpha  occ. eigenvalues --   -0.31028  -0.30748  -0.29355  -0.28691  -0.28419
 Alpha  occ. eigenvalues --   -0.27835
 Alpha virt. eigenvalues --   -0.12442  -0.11411  -0.10923  -0.10326  -0.08547
 Alpha virt. eigenvalues --   -0.06180  -0.05458  -0.03895  -0.03337  -0.02967
 Alpha virt. eigenvalues --   -0.02238  -0.01892  -0.01727  -0.00771  -0.00357

 Mulliken charges:
               1
     1  N   -0.763009
     2  H    0.412241
     3  H    0.423013
     4  H    0.400665
     5  C   -0.097331
     6  H    0.229938
     7  C    0.639973
     8  C   -0.403690
     9  H    0.195245
    10  H    0.204805
    11  O   -0.543797
    12  C    0.635570
    13  N   -0.740499
    14  H    0.376562
    15  H    0.360062
    16  O   -0.499417
    17  N   -0.596696
    18  H    0.397817
    19  C   -0.060315
    20  H    0.191350
    21  C    0.636732
    22  C   -0.364237
    23  H    0.185392
    24  H    0.181497
    25  O   -0.542286
    26  C    0.159669
    27  C   -0.190400
    28  H    0.157360
    29  C   -0.146296
    30  H    0.156969
    31  C   -0.191662
    32  H    0.158185
    33  C   -0.127213
    34  H    0.162806
    35  C   -0.177592
    36  H    0.158867
    37  N   -0.621454
    38  H    0.356553
    39  C   -0.043497
    40  H    0.169643
    41  C    0.610898
    42  C   -0.349823
    43  H    0.175491
    44  H    0.178692
    45  O   -0.554378
    46  C    0.558599
    47  N   -0.737082
    48  H    0.377078
    49  H    0.325414
    50  O   -0.492126
    51  N   -0.609666
    52  H    0.352952
    53  C   -0.053451
    54  H    0.186831
    55  C    0.617778
    56  C   -0.271106
    57  H    0.170843
    58  H    0.138558
    59  O   -0.632408
    60  C   -0.304594
    61  H    0.173315
    62  H    0.157629
    63  C   -0.147548
    64  H    0.161956
    65  H    0.159382
    66  N   -0.608785
    67  H    0.413782
    68  N   -0.755706
    69  H    0.361007
    70  H    0.369262
    71  N   -0.776327
    72  H    0.348219
    73  H    0.419997
    74  C    0.769170
    75  O   -0.575379
 Sum of Mulliken charges =   1.00000

 Dipole moment (field-independent basis, Debye):
    X=            -15.0131    Y=              4.3400    Z=              3.2774  Tot=             15.9677
 Quadrupole moment (field-independent basis, Debye-Ang):
   XX=            -52.6697   YY=           -120.5501   ZZ=            -79.8429
   XY=            105.2882   XZ=           -125.9983   YZ=           -115.2038

 Normal termination of Gaussian 16 at Tue May 31 12:09:30 2022.
