 Gaussian 16, Revision C.01,
 Gaussian 16:  ES64L-G16RevC.01  3-Jul-2019

 -------------------------------------------------------------------
 # B3LYP/6-31G* guess=read geom=check nosymm integral(ultrafinegrid)
 -------------------------------------------------------------------

 ------------------------------------------------------
 Candidate Structure: Conf:950 Charge calc in gas phase
 ------------------------------------------------------
 Structure from the checkpoint file:  "conf-950.chk"
 Charge =  1 Multiplicity = 1

                          Input orientation:
 ---------------------------------------------------------------------
 Center     Atomic      Atomic             Coordinates (Angstroms)
 Number     Number       Type             X           Y           Z
 ---------------------------------------------------------------------
      1          7           0       -4.237206   -2.692903    3.211364
      2          1           0       -4.716185   -2.498739    2.273872
      3          1           0       -3.782144   -3.622275    3.169537
      4          1           0       -4.909598   -2.669730    3.980870
      5          6           0       -3.211104   -1.574766    3.256128
      6          1           0       -3.515683   -0.879754    4.042923
      7          6           0       -3.424135   -0.866930    1.874906
      8          6           0       -1.796319   -2.105387    3.571367
      9          1           0       -1.069374   -1.294907    3.427419
     10          1           0       -1.764082   -2.419768    4.621362
     11          8           0       -4.309334   -1.334879    1.138568
     12          6           0       -1.414166   -3.250411    2.637775
     13          7           0       -1.842071   -4.505230    3.066198
     14          1           0       -1.529326   -5.272393    2.475125
     15          1           0       -1.773099   -4.709795    4.058900
     16          8           0       -0.915990   -3.078868    1.540198
     17          7           0       -2.710830    0.224382    1.632217
     18          1           0       -1.929448    0.473265    2.246797
     19          6           0       -2.888446    1.039117    0.402771
     20          1           0       -2.893854    0.355154   -0.452250
     21          6           0       -1.659099    1.969712    0.384288
     22          6           0       -4.201658    1.848145    0.429714
     23          1           0       -5.019183    1.157089    0.657197
     24          1           0       -4.126138    2.575232    1.243612
     25          8           0       -1.598946    2.934035    1.136771
     26          6           0       -4.461799    2.540796   -0.893040
     27          6           0       -4.029904    3.855508   -1.115154
     28          1           0       -3.517748    4.390731   -0.320077
     29          6           0       -5.120699    1.862411   -1.928018
     30          1           0       -5.472042    0.845235   -1.764683
     31          6           0       -4.253945    4.477597   -2.344542
     32          1           0       -3.920469    5.499998   -2.499643
     33          6           0       -5.343951    2.482169   -3.157772
     34          1           0       -5.863415    1.945771   -3.947248
     35          6           0       -4.910064    3.792597   -3.368679
     36          1           0       -5.088452    4.279091   -4.323597
     37          7           0       -0.631893    1.584631   -0.417751
     38          1           0       -0.689721    0.724879   -0.951172
     39          6           0        0.714502    2.110658   -0.203561
     40          1           0        0.657599    3.201820   -0.215744
     41          6           0        1.597451    1.601971   -1.350370
     42          6           0        1.278941    1.679566    1.194742
     43          1           0        0.974465    2.412175    1.941421
     44          1           0        2.374585    1.655629    1.162618
     45          8           0        1.544576    0.408276   -1.692367
     46          6           0        0.732617    0.328924    1.658129
     47          7           0        1.071571   -0.753431    0.934987
     48          1           0        0.575896   -1.619888    1.128132
     49          1           0        1.472165   -0.627858    0.005354
     50          8           0       -0.009469    0.264380    2.657007
     51          7           0        2.405766    2.510387   -1.909432
     52          1           0        2.491868    3.444657   -1.512386
     53          6           0        3.479015    2.203618   -2.851095
     54          1           0        3.829939    1.186673   -2.652691
     55          6           0        4.621689    3.186588   -2.529933
     56          6           0        3.041943    2.333780   -4.333895
     57          1           0        2.369414    3.195450   -4.413269
     58          1           0        3.922609    2.569172   -4.940612
     59          8           0        5.781071    2.921814   -3.104071
     60          6           0        2.370140    1.076905   -4.903580
     61          1           0        1.556173    0.747987   -4.248102
     62          1           0        1.915869    1.328826   -5.871601
     63          6           0        3.327183   -0.109837   -5.100425
     64          1           0        3.824340   -0.377647   -4.165410
     65          1           0        2.745258   -0.985553   -5.414683
     66          7           0        4.376721    0.111452   -6.088552
     67          1           0        4.110378    0.143593   -7.062641
     68          7           0        6.095550    0.694040   -4.619833
     69          1           0        7.111789    0.643261   -4.558863
     70          1           0        5.767289    2.067542   -3.651517
     71          7           0        6.520474    0.194996   -6.911211
     72          1           0        7.506680    0.356619   -6.758455
     73          1           0        6.326264   -0.575967   -7.538292
     74          6           0        5.695001    0.342277   -5.807285
     75          8           0        4.435917    4.150352   -1.810927
 ---------------------------------------------------------------------

 SCF Done:  E(RB3LYP) =  -1917.36581916     A.U. after    1 cycles

 Alpha  occ. eigenvalues --  -19.26888 -19.26591 -19.22806 -19.21356 -19.21198
 Alpha  occ. eigenvalues --  -19.20847 -19.18855 -14.58898 -14.50594 -14.48881
 Alpha  occ. eigenvalues --  -14.45548 -14.44868 -14.43692 -14.43034 -14.42865
 Alpha  occ. eigenvalues --  -14.37254 -10.44056 -10.43260 -10.41450 -10.38601
 Alpha  occ. eigenvalues --  -10.38305 -10.38146 -10.37286 -10.37159 -10.34303
 Alpha  occ. eigenvalues --  -10.33782 -10.33356 -10.30819 -10.29226 -10.28519
 Alpha  occ. eigenvalues --  -10.27189 -10.26296 -10.26091 -10.25526 -10.25291
 Alpha  occ. eigenvalues --  -10.25114 -10.24993 -10.24948 -10.24914  -1.19040
 Alpha  occ. eigenvalues --   -1.18364  -1.14616  -1.13487  -1.13023  -1.12484
 Alpha  occ. eigenvalues --   -1.12273  -1.06678  -1.05931  -1.05358  -1.04981
 Alpha  occ. eigenvalues --   -1.01953  -1.01253  -0.99011  -0.96771  -0.93692
 Alpha  occ. eigenvalues --   -0.92320  -0.91975  -0.88525  -0.87221  -0.85783
 Alpha  occ. eigenvalues --   -0.83537  -0.81481  -0.80894  -0.80463  -0.77413
 Alpha  occ. eigenvalues --   -0.75088  -0.74464  -0.74163  -0.72634  -0.71811
 Alpha  occ. eigenvalues --   -0.70005  -0.68957  -0.68661  -0.68282  -0.67488
 Alpha  occ. eigenvalues --   -0.66783  -0.66391  -0.66027  -0.65944  -0.65442
 Alpha  occ. eigenvalues --   -0.64669  -0.63383  -0.62635  -0.61969  -0.61851
 Alpha  occ. eigenvalues --   -0.60165  -0.59997  -0.59561  -0.59146  -0.58179
 Alpha  occ. eigenvalues --   -0.57605  -0.57159  -0.56844  -0.55694  -0.55503
 Alpha  occ. eigenvalues --   -0.55219  -0.54809  -0.54221  -0.53913  -0.53653
 Alpha  occ. eigenvalues --   -0.53136  -0.52304  -0.52087  -0.51790  -0.51478
 Alpha  occ. eigenvalues --   -0.51419  -0.50986  -0.50568  -0.49916  -0.49433
 Alpha  occ. eigenvalues --   -0.49131  -0.48507  -0.47983  -0.47911  -0.47594
 Alpha  occ. eigenvalues --   -0.46939  -0.46746  -0.46201  -0.45890  -0.45449
 Alpha  occ. eigenvalues --   -0.44929  -0.44522  -0.43280  -0.43118  -0.42581
 Alpha  occ. eigenvalues --   -0.42106  -0.41440  -0.41415  -0.41193  -0.40420
 Alpha  occ. eigenvalues --   -0.40034  -0.39833  -0.38425  -0.36819  -0.36127
 Alpha  occ. eigenvalues --   -0.35753  -0.35319  -0.35188  -0.34669  -0.34459
 Alpha  occ. eigenvalues --   -0.33978  -0.33461  -0.32689  -0.31098  -0.30722
 Alpha  occ. eigenvalues --   -0.30645
 Alpha virt. eigenvalues --   -0.13909  -0.12364  -0.09506  -0.08726  -0.07843
 Alpha virt. eigenvalues --   -0.06749  -0.06472  -0.06108  -0.06058  -0.04103
 Alpha virt. eigenvalues --   -0.04056  -0.03196  -0.01433  -0.01106  -0.00335

 Mulliken charges:
               1
     1  N   -0.775588
     2  H    0.435902
     3  H    0.413955
     4  H    0.409665
     5  C   -0.119459
     6  H    0.235625
     7  C    0.664926
     8  C   -0.402724
     9  H    0.278797
    10  H    0.173575
    11  O   -0.547397
    12  C    0.554088
    13  N   -0.756523
    14  H    0.373616
    15  H    0.359545
    16  O   -0.447694
    17  N   -0.635619
    18  H    0.406171
    19  C   -0.013447
    20  H    0.176487
    21  C    0.593069
    22  C   -0.360846
    23  H    0.164523
    24  H    0.181016
    25  O   -0.509870
    26  C    0.144344
    27  C   -0.183963
    28  H    0.153961
    29  C   -0.185981
    30  H    0.128781
    31  C   -0.130663
    32  H    0.143661
    33  C   -0.127681
    34  H    0.139715
    35  C   -0.127416
    36  H    0.142834
    37  N   -0.611643
    38  H    0.350887
    39  C   -0.039667
    40  H    0.199359
    41  C    0.619629
    42  C   -0.374690
    43  H    0.214666
    44  H    0.191702
    45  O   -0.569342
    46  C    0.575543
    47  N   -0.753208
    48  H    0.370722
    49  H    0.381905
    50  O   -0.555245
    51  N   -0.596325
    52  H    0.365589
    53  C   -0.088861
    54  H    0.191946
    55  C    0.607032
    56  C   -0.270799
    57  H    0.159806
    58  H    0.168788
    59  O   -0.605872
    60  C   -0.271316
    61  H    0.165498
    62  H    0.138644
    63  C   -0.139674
    64  H    0.188170
    65  H    0.154109
    66  N   -0.594312
    67  H    0.332918
    68  N   -0.741710
    69  H    0.298581
    70  H    0.473288
    71  N   -0.758587
    72  H    0.342539
    73  H    0.338500
    74  C    0.670833
    75  O   -0.478787
 Sum of Mulliken charges =   1.00000

 Dipole moment (field-independent basis, Debye):
    X=             -7.3325    Y=            -13.7990    Z=              2.7690  Tot=             15.8697
 Quadrupole moment (field-independent basis, Debye-Ang):
   XX=           -141.1091   YY=           -190.9708   ZZ=            -94.0444
   XY=             14.7269   XZ=            -95.2239   YZ=            -45.8917

 Normal termination of Gaussian 16 at Tue Jun  7 03:18:04 2022.
