 Gaussian 16, Revision C.01,
 Gaussian 16:  ES64L-G16RevC.01  3-Jul-2019

 ----------------------------------------------------------------------
 # B3LYP/6-31G* empiricaldispersion=gd3 guess=read geom=check nosymm in
 tegral(ultrafinegrid)
 ----------------------------------------------------------------------

 ------------------------------------------------------
 Candidate Structure: Conf:746 Charge calc in gas phase
 ------------------------------------------------------
 Structure from the checkpoint file:  "conf-746.chk"
 Charge =  1 Multiplicity = 1

                          Input orientation:
 ---------------------------------------------------------------------
 Center     Atomic      Atomic             Coordinates (Angstroms)
 Number     Number       Type             X           Y           Z
 ---------------------------------------------------------------------
      1          7           0       -4.555239    0.355860    3.299272
      2          1           0       -4.936367    1.148472    2.760816
      3          1           0       -4.982054   -0.576322    2.975641
      4          1           0       -4.793938    0.494310    4.285218
      5          6           0       -3.054132    0.151581    3.104169
      6          1           0       -2.514284    0.894474    3.692632
      7          6           0       -2.766885    0.363730    1.608245
      8          6           0       -2.667397   -1.260332    3.543030
      9          1           0       -1.600855   -1.363832    3.333506
     10          1           0       -2.803588   -1.366151    4.627039
     11          8           0       -2.564974   -0.577353    0.848908
     12          6           0       -3.519222   -2.329628    2.859241
     13          7           0       -2.929246   -3.499319    2.584701
     14          1           0       -3.476841   -4.223138    2.135774
     15          1           0       -1.930062   -3.627673    2.653319
     16          8           0       -4.731402   -2.136383    2.648550
     17          7           0       -2.901718    1.649435    1.206472
     18          1           0       -2.804225    2.389523    1.890479
     19          6           0       -2.883313    2.042492   -0.206938
     20          1           0       -3.191062    1.153325   -0.764711
     21          6           0       -1.415546    2.377839   -0.531563
     22          6           0       -3.891746    3.182875   -0.434361
     23          1           0       -3.464674    4.119754   -0.062054
     24          1           0       -4.039123    3.308730   -1.512171
     25          8           0       -1.023898    3.545711   -0.661695
     26          6           0       -5.184908    2.842212    0.278840
     27          6           0       -6.002711    1.803859   -0.187881
     28          1           0       -5.772568    1.324564   -1.136584
     29          6           0       -5.504447    3.447314    1.502844
     30          1           0       -4.893121    4.269467    1.869906
     31          6           0       -7.098211    1.364183    0.556888
     32          1           0       -7.719214    0.557545    0.178511
     33          6           0       -6.604351    3.014330    2.252791
     34          1           0       -6.849755    3.510221    3.188470
     35          6           0       -7.398932    1.961989    1.785040
     36          1           0       -8.258112    1.627740    2.359512
     37          7           0       -0.613328    1.297241   -0.490680
     38          1           0       -1.070266    0.396913   -0.382010
     39          6           0        0.771792    1.377615   -0.060007
     40          1           0        0.882618    2.335960    0.459088
     41          6           0        1.811093    1.348837   -1.190961
     42          6           0        1.100518    0.219366    0.929984
     43          1           0        2.147417   -0.068554    0.813323
     44          1           0        0.474448   -0.649490    0.706222
     45          8           0        1.586788    0.861900   -2.298426
     46          6           0        0.850207    0.660163    2.367140
     47          7           0        1.955848    1.036490    3.023917
     48          1           0        1.859818    1.378674    3.971046
     49          1           0        2.886032    1.040025    2.569031
     50          8           0       -0.298776    0.705153    2.846648
     51          7           0        2.976692    1.897567   -0.772442
     52          1           0        3.020325    2.077527    0.246050
     53          6           0        4.291686    1.299813   -1.055265
     54          1           0        4.135990    0.347737   -1.575513
     55          6           0        4.931007    0.992393    0.364303
     56          6           0        5.192007    2.183212   -1.923508
     57          1           0        5.457813    3.092046   -1.363773
     58          1           0        6.130544    1.639597   -2.056254
     59          8           0        6.063298    0.519676    0.355912
     60          6           0        4.543786    2.536723   -3.284712
     61          1           0        5.232834    2.326044   -4.111466
     62          1           0        3.673257    1.889247   -3.445410
     63          6           0        4.137435    4.013256   -3.439407
     64          1           0        5.028934    4.642873   -3.511377
     65          1           0        3.556547    4.173399   -4.353258
     66          7           0        3.359813    4.570148   -2.317456
     67          1           0        3.896755    4.828700   -1.500353
     68          7           0        1.296030    3.706933   -2.990383
     69          1           0        0.315515    3.620670   -2.746054
     70          1           0        1.684723    2.847404   -3.368014
     71          7           0        1.443400    4.987292   -1.072895
     72          1           0        0.542065    4.622233   -0.761923
     73          1           0        1.939179    5.642875   -0.487327
     74          6           0        2.052335    4.396538   -2.112277
     75          8           0        4.167437    1.293766    1.354356
 ---------------------------------------------------------------------

 SCF Done:  E(RB3LYP) =  -1917.45804183     A.U. after    1 cycles

 Alpha  occ. eigenvalues --  -19.26032 -19.25736 -19.25046 -19.20725 -19.20057
 Alpha  occ. eigenvalues --  -19.13440 -19.11523 -14.57744 -14.50148 -14.48789
 Alpha  occ. eigenvalues --  -14.48587 -14.48045 -14.47471 -14.47292 -14.43066
 Alpha  occ. eigenvalues --  -14.41200 -10.44532 -10.43346 -10.43210 -10.41344
 Alpha  occ. eigenvalues --  -10.39884 -10.37980 -10.36509 -10.36261 -10.33957
 Alpha  occ. eigenvalues --  -10.33701 -10.32298 -10.31526 -10.31074 -10.30850
 Alpha  occ. eigenvalues --  -10.30732 -10.30610 -10.30462 -10.30375 -10.30261
 Alpha  occ. eigenvalues --  -10.28928 -10.26995 -10.26313 -10.24700  -1.18493
 Alpha  occ. eigenvalues --   -1.17203  -1.16081  -1.13176  -1.12382  -1.11691
 Alpha  occ. eigenvalues --   -1.11330  -1.06914  -1.05773  -1.04149  -1.03881
 Alpha  occ. eigenvalues --   -1.02667  -1.00968  -0.99450  -0.98402  -0.97277
 Alpha  occ. eigenvalues --   -0.96716  -0.93269  -0.91134  -0.88472  -0.86955
 Alpha  occ. eigenvalues --   -0.85937  -0.85515  -0.81838  -0.81430  -0.78763
 Alpha  occ. eigenvalues --   -0.76812  -0.75529  -0.74160  -0.73106  -0.72852
 Alpha  occ. eigenvalues --   -0.72236  -0.71469  -0.70578  -0.70323  -0.70279
 Alpha  occ. eigenvalues --   -0.69660  -0.68057  -0.67724  -0.66392  -0.65754
 Alpha  occ. eigenvalues --   -0.65493  -0.64024  -0.63568  -0.62829  -0.62389
 Alpha  occ. eigenvalues --   -0.61913  -0.61631  -0.61243  -0.60966  -0.60420
 Alpha  occ. eigenvalues --   -0.59045  -0.58178  -0.57552  -0.57147  -0.56870
 Alpha  occ. eigenvalues --   -0.56597  -0.55933  -0.55434  -0.54923  -0.54711
 Alpha  occ. eigenvalues --   -0.54183  -0.53638  -0.53296  -0.53123  -0.52981
 Alpha  occ. eigenvalues --   -0.52632  -0.52218  -0.51716  -0.51533  -0.51111
 Alpha  occ. eigenvalues --   -0.50449  -0.50255  -0.49971  -0.48864  -0.48499
 Alpha  occ. eigenvalues --   -0.48257  -0.48019  -0.47903  -0.47170  -0.46153
 Alpha  occ. eigenvalues --   -0.45665  -0.45324  -0.45222  -0.44078  -0.43418
 Alpha  occ. eigenvalues --   -0.42658  -0.41581  -0.41126  -0.40522  -0.40266
 Alpha  occ. eigenvalues --   -0.40018  -0.39872  -0.39706  -0.39290  -0.38028
 Alpha  occ. eigenvalues --   -0.37797  -0.37161  -0.36727  -0.35971  -0.35229
 Alpha  occ. eigenvalues --   -0.35049  -0.33866  -0.32703  -0.28405  -0.28144
 Alpha  occ. eigenvalues --   -0.25315
 Alpha virt. eigenvalues --   -0.14009  -0.12103  -0.11882  -0.10922  -0.10499
 Alpha virt. eigenvalues --   -0.09654  -0.07834  -0.07581  -0.05773  -0.04373
 Alpha virt. eigenvalues --   -0.04047  -0.03634  -0.02608  -0.01912  -0.00843

 Mulliken charges:
               1
     1  N   -0.781377
     2  H    0.415595
     3  H    0.447270
     4  H    0.398952
     5  C   -0.117151
     6  H    0.231825
     7  C    0.684654
     8  C   -0.388907
     9  H    0.229350
    10  H    0.202135
    11  O   -0.518717
    12  C    0.665633
    13  N   -0.724523
    14  H    0.376118
    15  H    0.370378
    16  O   -0.558431
    17  N   -0.604931
    18  H    0.347757
    19  C   -0.081936
    20  H    0.205993
    21  C    0.625148
    22  C   -0.383830
    23  H    0.180399
    24  H    0.188751
    25  O   -0.561317
    26  C    0.185438
    27  C   -0.181658
    28  H    0.153440
    29  C   -0.222603
    30  H    0.144371
    31  C   -0.130852
    32  H    0.167757
    33  C   -0.170525
    34  H    0.158289
    35  C   -0.153254
    36  H    0.163115
    37  N   -0.563285
    38  H    0.375765
    39  C   -0.073194
    40  H    0.172037
    41  C    0.572801
    42  C   -0.396864
    43  H    0.217071
    44  H    0.172784
    45  O   -0.541935
    46  C    0.578709
    47  N   -0.746434
    48  H    0.336795
    49  H    0.430415
    50  O   -0.588471
    51  N   -0.603050
    52  H    0.342719
    53  C   -0.097736
    54  H    0.169794
    55  C    0.594591
    56  C   -0.263853
    57  H    0.115709
    58  H    0.193697
    59  O   -0.527163
    60  C   -0.289528
    61  H    0.167456
    62  H    0.169819
    63  C   -0.182293
    64  H    0.185437
    65  H    0.185993
    66  N   -0.568958
    67  H    0.356561
    68  N   -0.744474
    69  H    0.369266
    70  H    0.397370
    71  N   -0.787200
    72  H    0.415054
    73  H    0.361829
    74  C    0.776188
    75  O   -0.645781
 Sum of Mulliken charges =   1.00000

 Dipole moment (field-independent basis, Debye):
    X=            -18.2834    Y=             10.4656    Z=              7.2434  Tot=             22.2773
 Quadrupole moment (field-independent basis, Debye-Ang):
   XX=           -181.6324   YY=           -147.7013   ZZ=           -162.9913
   XY=             17.3499   XZ=            -69.7011   YZ=            -16.8214

 Normal termination of Gaussian 16 at Tue May 31 12:09:36 2022.
