 Gaussian 16, Revision C.01,
 Gaussian 16:  ES64L-G16RevC.01  3-Jul-2019

 -------------------------------------------------------------------
 # B3LYP/6-31G* guess=read geom=check nosymm integral(ultrafinegrid)
 -------------------------------------------------------------------

 ------------------------------------------------------
 Candidate Structure: Conf:771 Charge calc in gas phase
 ------------------------------------------------------
 Structure from the checkpoint file:  "conf-771.chk"
 Charge =  1 Multiplicity = 1

                          Input orientation:
 ---------------------------------------------------------------------
 Center     Atomic      Atomic             Coordinates (Angstroms)
 Number     Number       Type             X           Y           Z
 ---------------------------------------------------------------------
      1          7           0       -3.140793   -0.556351    5.293734
      2          1           0       -2.792137   -1.372444    4.747919
      3          1           0       -2.294035   -0.142020    5.828671
      4          1           0       -3.897014   -0.833776    5.921012
      5          6           0       -3.541541    0.466047    4.262169
      6          1           0       -4.610433    0.673602    4.361648
      7          6           0       -3.249384   -0.184195    2.890831
      8          6           0       -2.730815    1.774436    4.444387
      9          1           0       -2.794645    2.365912    3.528886
     10          1           0       -3.168253    2.353915    5.264764
     11          8           0       -2.590918   -1.221935    2.850800
     12          6           0       -1.272369    1.504479    4.826704
     13          7           0       -0.337084    2.045775    4.060416
     14          1           0        0.645923    1.881906    4.243713
     15          1           0       -0.549238    2.355133    3.115007
     16          8           0       -1.044024    0.824464    5.855495
     17          7           0       -3.755136    0.470805    1.827524
     18          1           0       -4.180028    1.378356    1.988174
     19          6           0       -3.164546    0.328726    0.504035
     20          1           0       -3.011205   -0.738206    0.324621
     21          6           0       -1.779727    1.037857    0.517821
     22          6           0       -4.135982    0.894898   -0.563858
     23          1           0       -3.609308    0.924066   -1.523862
     24          1           0       -4.962733    0.184399   -0.668705
     25          8           0       -1.492255    1.838657    1.413869
     26          6           0       -4.673122    2.271830   -0.224582
     27          6           0       -5.920409    2.428388    0.399130
     28          1           0       -6.531757    1.551277    0.601447
     29          6           0       -3.925390    3.421456   -0.515019
     30          1           0       -2.971510    3.314587   -1.024353
     31          6           0       -6.399945    3.699191    0.730586
     32          1           0       -7.374715    3.802110    1.199537
     33          6           0       -4.400194    4.690694   -0.188903
     34          1           0       -3.809830    5.569613   -0.432731
     35          6           0       -5.639595    4.832452    0.439738
     36          1           0       -6.015547    5.820703    0.688028
     37          7           0       -0.961149    0.710540   -0.492442
     38          1           0       -1.222352    0.072003   -1.243875
     39          6           0        0.399138    1.201569   -0.637425
     40          1           0        0.412919    2.280100   -0.452957
     41          6           0        0.776814    0.866727   -2.101085
     42          6           0        1.400706    0.476864    0.340174
     43          1           0        1.960695   -0.288687   -0.207564
     44          1           0        0.811536   -0.026523    1.109352
     45          8           0        0.128137    0.028398   -2.723572
     46          6           0        2.336468    1.444461    1.071056
     47          7           0        3.464549    1.805901    0.420835
     48          1           0        4.071572    2.459233    0.899927
     49          1           0        3.815144    1.370233   -0.441369
     50          8           0        2.028826    1.900904    2.173309
     51          7           0        1.864906    1.507786   -2.588906
     52          1           0        2.455476    1.985103   -1.916017
     53          6           0        2.616571    0.939350   -3.711887
     54          1           0        2.016874    0.114968   -4.103147
     55          6           0        3.959458    0.380050   -3.170163
     56          6           0        2.782349    2.017781   -4.825090
     57          1           0        1.875356    2.626914   -4.760387
     58          1           0        3.610614    2.694442   -4.570455
     59          8           0        4.537012   -0.471671   -3.922636
     60          6           0        2.912825    1.542570   -6.297567
     61          1           0        2.466734    0.547669   -6.415469
     62          1           0        2.323880    2.211276   -6.935987
     63          6           0        4.322073    1.535556   -6.913534
     64          1           0        4.232348    1.399092   -7.999431
     65          1           0        4.809997    2.501898   -6.729555
     66          7           0        5.132362    0.464703   -6.325278
     67          1           0        4.676401   -0.079638   -5.566011
     68          7           0        7.229367    1.207373   -7.014247
     69          1           0        8.201437    1.388785   -6.812896
     70          1           0        6.905292    1.385300   -7.953312
     71          7           0        6.973383   -0.062326   -5.062464
     72          1           0        7.947400   -0.322942   -5.021198
     73          1           0        6.297836   -0.364388   -4.332368
     74          6           0        6.449661    0.531414   -6.139829
     75          8           0        4.382339    0.806841   -2.077837
 ---------------------------------------------------------------------

 SCF Done:  E(RB3LYP) =  -1917.39219838     A.U. after    1 cycles

 Alpha  occ. eigenvalues --  -19.25054 -19.22936 -19.21559 -19.19829 -19.17382
 Alpha  occ. eigenvalues --  -19.16485 -19.16067 -14.55022 -14.47869 -14.47706
 Alpha  occ. eigenvalues --  -14.45450 -14.44974 -14.44902 -14.44766 -14.42846
 Alpha  occ. eigenvalues --  -14.40790 -10.42611 -10.41774 -10.40253 -10.38847
 Alpha  occ. eigenvalues --  -10.38443 -10.36682 -10.35287 -10.34166 -10.33867
 Alpha  occ. eigenvalues --  -10.32457 -10.32326 -10.31623 -10.29231 -10.28784
 Alpha  occ. eigenvalues --  -10.28367 -10.27435 -10.27314 -10.27164 -10.27133
 Alpha  occ. eigenvalues --  -10.27003 -10.26989 -10.26909 -10.26419  -1.17198
 Alpha  occ. eigenvalues --   -1.14398  -1.13238  -1.11743  -1.11374  -1.09627
 Alpha  occ. eigenvalues --   -1.09369  -1.08941  -1.04827  -1.01669  -1.01407
 Alpha  occ. eigenvalues --   -1.00687  -1.00308  -0.99300  -0.99286  -0.95734
 Alpha  occ. eigenvalues --   -0.94038  -0.91464  -0.88379  -0.87350  -0.85563
 Alpha  occ. eigenvalues --   -0.82750  -0.82537  -0.81368  -0.79871  -0.76883
 Alpha  occ. eigenvalues --   -0.75222  -0.73855  -0.73056  -0.71181  -0.70986
 Alpha  occ. eigenvalues --   -0.70540  -0.68685  -0.68635  -0.67932  -0.67479
 Alpha  occ. eigenvalues --   -0.67157  -0.66476  -0.65858  -0.65222  -0.64654
 Alpha  occ. eigenvalues --   -0.64228  -0.62927  -0.61874  -0.60768  -0.60209
 Alpha  occ. eigenvalues --   -0.59993  -0.59721  -0.59517  -0.58936  -0.57462
 Alpha  occ. eigenvalues --   -0.57304  -0.56794  -0.56438  -0.55969  -0.55518
 Alpha  occ. eigenvalues --   -0.54808  -0.54316  -0.53775  -0.53377  -0.53115
 Alpha  occ. eigenvalues --   -0.52729  -0.52152  -0.51651  -0.51265  -0.51216
 Alpha  occ. eigenvalues --   -0.50588  -0.50286  -0.50059  -0.49791  -0.49346
 Alpha  occ. eigenvalues --   -0.49003  -0.48435  -0.48228  -0.48010  -0.47549
 Alpha  occ. eigenvalues --   -0.47211  -0.46946  -0.46394  -0.45500  -0.45403
 Alpha  occ. eigenvalues --   -0.45028  -0.43967  -0.43869  -0.43125  -0.42783
 Alpha  occ. eigenvalues --   -0.42152  -0.42000  -0.41935  -0.40664  -0.39233
 Alpha  occ. eigenvalues --   -0.38339  -0.38330  -0.37449  -0.36729  -0.35675
 Alpha  occ. eigenvalues --   -0.35623  -0.35055  -0.34465  -0.33832  -0.33240
 Alpha  occ. eigenvalues --   -0.32762  -0.32604  -0.31811  -0.31311  -0.30250
 Alpha  occ. eigenvalues --   -0.30139
 Alpha virt. eigenvalues --   -0.11066  -0.09322  -0.08893  -0.08543  -0.07741
 Alpha virt. eigenvalues --   -0.07345  -0.06614  -0.05410  -0.03647  -0.03585
 Alpha virt. eigenvalues --   -0.02512  -0.01988  -0.00514   0.00198   0.00640

 Mulliken charges:
               1
     1  N   -0.779243
     2  H    0.419613
     3  H    0.446862
     4  H    0.399051
     5  C   -0.117417
     6  H    0.209006
     7  C    0.646226
     8  C   -0.385118
     9  H    0.215153
    10  H    0.209735
    11  O   -0.514257
    12  C    0.619248
    13  N   -0.725455
    14  H    0.385629
    15  H    0.409984
    16  O   -0.561050
    17  N   -0.580144
    18  H    0.354567
    19  C   -0.085001
    20  H    0.201818
    21  C    0.656584
    22  C   -0.366198
    23  H    0.181979
    24  H    0.178423
    25  O   -0.567836
    26  C    0.125819
    27  C   -0.206806
    28  H    0.137923
    29  C   -0.167570
    30  H    0.139449
    31  C   -0.127705
    32  H    0.148200
    33  C   -0.127492
    34  H    0.150806
    35  C   -0.129326
    36  H    0.151936
    37  N   -0.623949
    38  H    0.367949
    39  C   -0.036570
    40  H    0.191199
    41  C    0.590637
    42  C   -0.369400
    43  H    0.187235
    44  H    0.187314
    45  O   -0.527684
    46  C    0.571163
    47  N   -0.781405
    48  H    0.339862
    49  H    0.414654
    50  O   -0.539803
    51  N   -0.592066
    52  H    0.338076
    53  C   -0.086748
    54  H    0.192599
    55  C    0.607449
    56  C   -0.275609
    57  H    0.167315
    58  H    0.145021
    59  O   -0.616436
    60  C   -0.306650
    61  H    0.171484
    62  H    0.163884
    63  C   -0.144287
    64  H    0.162922
    65  H    0.166506
    66  N   -0.604977
    67  H    0.404844
    68  N   -0.756209
    69  H    0.368427
    70  H    0.374846
    71  N   -0.775716
    72  H    0.353825
    73  H    0.419715
    74  C    0.767793
    75  O   -0.564601
 Sum of Mulliken charges =   1.00000

 Dipole moment (field-independent basis, Debye):
    X=             -0.0008    Y=              6.7804    Z=             -3.9538  Tot=              7.8490
 Quadrupole moment (field-independent basis, Debye-Ang):
   XX=            -47.1504   YY=           -204.7670   ZZ=            -58.0332
   XY=              8.8492   XZ=           -161.5111   YZ=            -28.3517

 Normal termination of Gaussian 16 at Tue Jun  7 03:18:15 2022.
