 Gaussian 16, Revision C.01,
 Gaussian 16:  ES64L-G16RevC.01  3-Jul-2019

 ----------------------------------------------------------------------
 # B3LYP/6-31G* empiricaldispersion=gd3 guess=read geom=check nosymm in
 tegral(ultrafinegrid)
 ----------------------------------------------------------------------

 ------------------------------------------------------
 Candidate Structure: Conf:448 Charge calc in gas phase
 ------------------------------------------------------
 Structure from the checkpoint file:  "conf-448.chk"
 Charge =  1 Multiplicity = 1

                          Input orientation:
 ---------------------------------------------------------------------
 Center     Atomic      Atomic             Coordinates (Angstroms)
 Number     Number       Type             X           Y           Z
 ---------------------------------------------------------------------
      1          7           0       -2.945793   -0.368687    4.363890
      2          1           0       -3.866687   -0.570501    4.764812
      3          1           0       -2.709755   -1.129648    3.666156
      4          1           0       -2.256129   -0.338096    5.120151
      5          6           0       -2.939461    0.875455    3.499092
      6          1           0       -3.784634    1.511712    3.763825
      7          6           0       -3.053724    0.297933    2.068984
      8          6           0       -1.613570    1.624534    3.671248
      9          1           0       -1.456579    1.860970    4.732681
     10          1           0       -0.763724    1.027158    3.319180
     11          8           0       -2.783507   -0.909317    1.914626
     12          6           0       -1.666167    2.958570    2.909840
     13          7           0       -0.467024    3.482240    2.622936
     14          1           0       -0.447846    4.357519    2.115132
     15          1           0        0.370817    2.893130    2.651566
     16          8           0       -2.754114    3.478830    2.631501
     17          7           0       -3.355949    1.154344    1.104671
     18          1           0       -3.483562    2.132024    1.372102
     19          6           0       -3.323520    0.808330   -0.322892
     20          1           0       -3.635394   -0.238780   -0.400875
     21          6           0       -1.872845    0.933614   -0.850415
     22          6           0       -4.294750    1.712173   -1.097002
     23          1           0       -3.902578    2.735095   -1.086269
     24          1           0       -4.278836    1.388673   -2.142361
     25          8           0       -1.588208    1.698563   -1.775914
     26          6           0       -5.691614    1.659249   -0.520101
     27          6           0       -6.534466    0.574363   -0.794122
     28          1           0       -6.198406   -0.210218   -1.469324
     29          6           0       -6.143959    2.665062    0.343371
     30          1           0       -5.505086    3.520444    0.556534
     31          6           0       -7.802715    0.495961   -0.218489
     32          1           0       -8.449090   -0.346551   -0.448018
     33          6           0       -7.412971    2.589803    0.921467
     34          1           0       -7.753896    3.383715    1.580257
     35          6           0       -8.244611    1.503965    0.642467
     36          1           0       -9.235324    1.447495    1.084373
     37          7           0       -0.958452    0.205321   -0.178407
     38          1           0       -1.285651   -0.553857    0.408820
     39          6           0        0.442670    0.239616   -0.546144
     40          1           0        0.707398    1.287751   -0.717550
     41          6           0        0.721455   -0.556632   -1.835541
     42          6           0        1.339412   -0.357421    0.577274
     43          1           0        2.183484   -0.880704    0.125333
     44          1           0        0.764219   -1.078892    1.165373
     45          8           0        0.030954   -1.500481   -2.180692
     46          6           0        1.859082    0.731065    1.507052
     47          7           0        3.099516    1.148421    1.246955
     48          1           0        3.492160    1.881000    1.824094
     49          1           0        3.643927    0.765853    0.448829
     50          8           0        1.135895    1.200898    2.410121
     51          7           0        1.854687   -0.117964   -2.494066
     52          1           0        2.397676    0.564986   -1.933058
     53          6           0        2.901624   -1.111908   -2.861825
     54          1           0        2.520737   -2.110859   -2.626580
     55          6           0        4.141018   -0.816984   -1.919428
     56          6           0        3.312840   -1.078005   -4.335641
     57          1           0        3.715507   -0.084455   -4.580012
     58          1           0        4.153539   -1.772117   -4.417936
     59          8           0        5.102836   -1.569162   -2.039093
     60          6           0        2.192157   -1.466761   -5.329336
     61          1           0        2.597771   -2.105996   -6.121553
     62          1           0        1.416308   -2.049659   -4.817373
     63          6           0        1.529471   -0.278949   -6.034956
     64          1           0        2.291155    0.290678   -6.587269
     65          1           0        0.780308   -0.636420   -6.752541
     66          7           0        0.866272    0.599759   -5.062115
     67          1           0        1.142846    0.472126   -4.069940
     68          7           0       -0.154903    1.958153   -6.648456
     69          1           0       -0.973353    2.477782   -6.926860
     70          1           0        0.441807    1.605610   -7.380711
     71          7           0       -0.691089    2.183236   -4.406430
     72          1           0       -1.153295    3.059313   -4.597938
     73          1           0       -0.777003    1.823146   -3.454031
     74          6           0        0.017076    1.567753   -5.365914
     75          8           0        3.970228    0.195445   -1.147076
 ---------------------------------------------------------------------

 SCF Done:  E(RB3LYP) =  -1917.45793458     A.U. after    2 cycles

 Alpha  occ. eigenvalues --  -19.27651 -19.23797 -19.23214 -19.20720 -19.20692
 Alpha  occ. eigenvalues --  -19.13714 -19.11812 -14.60801 -14.50085 -14.49250
 Alpha  occ. eigenvalues --  -14.47534 -14.47114 -14.46809 -14.45922 -14.42692
 Alpha  occ. eigenvalues --  -14.41892 -10.44591 -10.44074 -10.41156 -10.40916
 Alpha  occ. eigenvalues --  -10.40397 -10.37840 -10.36918 -10.35430 -10.33463
 Alpha  occ. eigenvalues --  -10.33387 -10.32494 -10.30827 -10.29442 -10.28821
 Alpha  occ. eigenvalues --  -10.28472 -10.27415 -10.27349 -10.27323 -10.27233
 Alpha  occ. eigenvalues --  -10.27203 -10.27025 -10.26585 -10.24630  -1.19950
 Alpha  occ. eigenvalues --   -1.15372  -1.14865  -1.14511  -1.13077  -1.12129
 Alpha  occ. eigenvalues --   -1.11612  -1.07131  -1.06106  -1.03451  -1.02282
 Alpha  occ. eigenvalues --   -1.01490  -1.01296  -0.99459  -0.98233  -0.96921
 Alpha  occ. eigenvalues --   -0.94549  -0.93479  -0.89671  -0.87895  -0.87081
 Alpha  occ. eigenvalues --   -0.83776  -0.82699  -0.81901  -0.81354  -0.77837
 Alpha  occ. eigenvalues --   -0.76221  -0.75110  -0.74531  -0.74451  -0.73514
 Alpha  occ. eigenvalues --   -0.72549  -0.70412  -0.70199  -0.69076  -0.68780
 Alpha  occ. eigenvalues --   -0.68055  -0.67907  -0.66854  -0.65821  -0.65451
 Alpha  occ. eigenvalues --   -0.64339  -0.64021  -0.63716  -0.62960  -0.62680
 Alpha  occ. eigenvalues --   -0.61498  -0.61273  -0.60902  -0.60562  -0.59537
 Alpha  occ. eigenvalues --   -0.58883  -0.58010  -0.57726  -0.57491  -0.56320
 Alpha  occ. eigenvalues --   -0.55426  -0.54922  -0.54607  -0.54339  -0.54222
 Alpha  occ. eigenvalues --   -0.53554  -0.53064  -0.53016  -0.52276  -0.51925
 Alpha  occ. eigenvalues --   -0.51584  -0.51125  -0.50832  -0.50259  -0.49866
 Alpha  occ. eigenvalues --   -0.49689  -0.49086  -0.48786  -0.48625  -0.48213
 Alpha  occ. eigenvalues --   -0.47703  -0.47284  -0.46815  -0.46130  -0.45763
 Alpha  occ. eigenvalues --   -0.44192  -0.44007  -0.43250  -0.42642  -0.42565
 Alpha  occ. eigenvalues --   -0.42501  -0.42213  -0.41275  -0.41228  -0.40682
 Alpha  occ. eigenvalues --   -0.39979  -0.39395  -0.38232  -0.37840  -0.37303
 Alpha  occ. eigenvalues --   -0.36831  -0.36606  -0.35508  -0.35016  -0.34928
 Alpha  occ. eigenvalues --   -0.33333  -0.32944  -0.32823  -0.28727  -0.28462
 Alpha  occ. eigenvalues --   -0.25584
 Alpha virt. eigenvalues --   -0.13467  -0.11500  -0.09872  -0.09557  -0.08710
 Alpha virt. eigenvalues --   -0.08632  -0.08512  -0.08111  -0.06005  -0.05793
 Alpha virt. eigenvalues --   -0.04938  -0.02795  -0.02203  -0.01663  -0.00589

 Mulliken charges:
               1
     1  N   -0.756630
     2  H    0.420687
     3  H    0.433097
     4  H    0.418353
     5  C   -0.104576
     6  H    0.238231
     7  C    0.646949
     8  C   -0.420601
     9  H    0.200093
    10  H    0.242379
    11  O   -0.569917
    12  C    0.607799
    13  N   -0.746989
    14  H    0.355146
    15  H    0.398919
    16  O   -0.541667
    17  N   -0.588443
    18  H    0.401942
    19  C   -0.088449
    20  H    0.212270
    21  C    0.658351
    22  C   -0.388839
    23  H    0.173470
    24  H    0.179736
    25  O   -0.554653
    26  C    0.175395
    27  C   -0.184643
    28  H    0.133621
    29  C   -0.205745
    30  H    0.140618
    31  C   -0.129515
    32  H    0.149213
    33  C   -0.133566
    34  H    0.147141
    35  C   -0.130865
    36  H    0.149049
    37  N   -0.600677
    38  H    0.374465
    39  C   -0.060413
    40  H    0.182633
    41  C    0.576103
    42  C   -0.383760
    43  H    0.218394
    44  H    0.165411
    45  O   -0.488941
    46  C    0.580649
    47  N   -0.737472
    48  H    0.339379
    49  H    0.429420
    50  O   -0.572687
    51  N   -0.673586
    52  H    0.354149
    53  C   -0.082182
    54  H    0.172588
    55  C    0.598912
    56  C   -0.292238
    57  H    0.140757
    58  H    0.198752
    59  O   -0.523710
    60  C   -0.305519
    61  H    0.167060
    62  H    0.180143
    63  C   -0.159846
    64  H    0.169244
    65  H    0.166978
    66  N   -0.621843
    67  H    0.428787
    68  N   -0.769472
    69  H    0.369762
    70  H    0.381991
    71  N   -0.802878
    72  H    0.358617
    73  H    0.420427
    74  C    0.807831
    75  O   -0.644583
 Sum of Mulliken charges =   1.00000

 Dipole moment (field-independent basis, Debye):
    X=            -17.6174    Y=              7.8978    Z=              1.2135  Tot=             19.3448
 Quadrupole moment (field-independent basis, Debye-Ang):
   XX=           -209.7345   YY=           -210.2336   ZZ=            -50.2788
   XY=             11.3658   XZ=            -29.5230   YZ=            -31.1268

 Normal termination of Gaussian 16 at Tue May 31 12:09:48 2022.
