 Gaussian 16, Revision C.01,
 Gaussian 16:  ES64L-G16RevC.01  3-Jul-2019

 -------------------------------------------------------------------
 # B3LYP/6-31G* guess=read geom=check nosymm integral(ultrafinegrid)
 -------------------------------------------------------------------

 ------------------------------------------------------
 Candidate Structure: Conf:883 Charge calc in gas phase
 ------------------------------------------------------
 Structure from the checkpoint file:  "conf-883.chk"
 Charge =  1 Multiplicity = 1

                          Input orientation:
 ---------------------------------------------------------------------
 Center     Atomic      Atomic             Coordinates (Angstroms)
 Number     Number       Type             X           Y           Z
 ---------------------------------------------------------------------
      1          7           0       -3.465007    2.368580    4.899434
      2          1           0       -4.449927    2.628922    4.991281
      3          1           0       -3.373258    1.382839    5.199247
      4          1           0       -2.827324    3.064951    5.425204
      5          6           0       -2.983493    2.418696    3.475098
      6          1           0       -3.493924    3.251196    2.981883
      7          6           0       -3.321779    1.055853    2.843764
      8          6           0       -1.459198    2.626333    3.481005
      9          1           0       -0.982517    1.740427    3.919472
     10          1           0       -1.077379    2.682804    2.461018
     11          8           0       -3.519912    0.098158    3.584477
     12          6           0       -1.044726    3.851690    4.291127
     13          7           0       -0.025479    4.548547    3.799838
     14          1           0        0.323004    5.333286    4.336116
     15          1           0        0.417014    4.274518    2.901170
     16          8           0       -1.640675    4.133742    5.358161
     17          7           0       -3.333842    1.034693    1.491159
     18          1           0       -3.060143    1.895375    1.029896
     19          6           0       -3.024043   -0.187211    0.745716
     20          1           0       -3.327560   -1.015313    1.393859
     21          6           0       -1.473886   -0.245727    0.634236
     22          6           0       -3.808876   -0.255398   -0.580041
     23          1           0       -3.479613    0.555470   -1.242665
     24          1           0       -3.546559   -1.193389   -1.083886
     25          8           0       -0.786356    0.167360    1.574801
     26          6           0       -5.310624   -0.189547   -0.387345
     27          6           0       -6.025552    0.970993   -0.704693
     28          1           0       -5.499278    1.829608   -1.117263
     29          6           0       -6.011622   -1.291510    0.120895
     30          1           0       -5.476332   -2.208311    0.359946
     31          6           0       -7.407523    1.034181   -0.516350
     32          1           0       -7.947507    1.940342   -0.777552
     33          6           0       -7.391435   -1.231807    0.313829
     34          1           0       -7.919378   -2.097638    0.703651
     35          6           0       -8.093836   -0.067090   -0.003777
     36          1           0       -9.169809   -0.022563    0.139085
     37          7           0       -0.939604   -0.741665   -0.494545
     38          1           0       -1.485065   -0.998912   -1.318256
     39          6           0        0.507992   -0.878177   -0.671163
     40          1           0        0.931078   -1.077787    0.319461
     41          6           0        1.176108    0.416896   -1.212184
     42          6           0        0.813249   -2.060520   -1.602618
     43          1           0        0.436342   -2.978693   -1.136220
     44          1           0        1.895440   -2.158920   -1.707124
     45          8           0        1.852388    0.383979   -2.244114
     46          6           0        0.130804   -1.935489   -2.963697
     47          7           0        0.886485   -2.246326   -4.045307
     48          1           0        0.466211   -2.103516   -4.954973
     49          1           0        1.893661   -2.201844   -3.989386
     50          8           0       -1.066261   -1.648558   -3.061636
     51          7           0        0.971936    1.529010   -0.474911
     52          1           0        0.530454    1.461123    0.442470
     53          6           0        1.630067    2.803255   -0.748894
     54          1           0        2.712820    2.621949   -0.812505
     55          6           0        1.424590    3.751731    0.463451
     56          6           0        1.161634    3.469972   -2.077401
     57          1           0        0.243543    2.971399   -2.403391
     58          1           0        0.899577    4.517273   -1.885996
     59          8           0        2.001098    4.871097    0.412560
     60          6           0        2.197866    3.389648   -3.209109
     61          1           0        2.540739    2.353371   -3.287068
     62          1           0        1.724460    3.638407   -4.169399
     63          6           0        3.426574    4.287640   -3.023301
     64          1           0        3.830399    4.218222   -2.010677
     65          1           0        4.223743    3.978185   -3.709020
     66          7           0        3.161161    5.712661   -3.297285
     67          1           0        2.920924    5.948209   -4.251749
     68          7           0        3.261929    6.555277   -1.128173
     69          1           0        3.483579    7.344107   -0.535522
     70          1           0        2.797751    5.731446   -0.633719
     71          7           0        3.321248    7.989190   -2.963755
     72          1           0        3.241110    8.796457   -2.363193
     73          1           0        3.720887    8.140847   -3.878683
     74          6           0        3.250770    6.739148   -2.439161
     75          8           0        0.708495    3.336694    1.409676
 ---------------------------------------------------------------------

 SCF Done:  E(RB3LYP) =  -1917.40212444     A.U. after    1 cycles

 Alpha  occ. eigenvalues --  -19.23008 -19.21966 -19.19905 -19.19247 -19.18759
 Alpha  occ. eigenvalues --  -19.17482 -19.17332 -14.53997 -14.49574 -14.49352
 Alpha  occ. eigenvalues --  -14.46680 -14.46583 -14.43928 -14.43526 -14.42924
 Alpha  occ. eigenvalues --  -14.41872 -10.45133 -10.40083 -10.38849 -10.37145
 Alpha  occ. eigenvalues --  -10.36981 -10.36839 -10.35648 -10.35331 -10.32870
 Alpha  occ. eigenvalues --  -10.32664 -10.31451 -10.29748 -10.29628 -10.27856
 Alpha  occ. eigenvalues --  -10.27494 -10.26869 -10.26607 -10.26377 -10.25571
 Alpha  occ. eigenvalues --  -10.25392 -10.25367 -10.25262 -10.25133  -1.15314
 Alpha  occ. eigenvalues --   -1.13525  -1.13204  -1.12000  -1.10906  -1.10779
 Alpha  occ. eigenvalues --   -1.09990  -1.08629  -1.03266  -1.03128  -1.02268
 Alpha  occ. eigenvalues --   -1.00834  -1.00557  -0.99215  -0.98297  -0.97782
 Alpha  occ. eigenvalues --   -0.92288  -0.89787  -0.88308  -0.87172  -0.85248
 Alpha  occ. eigenvalues --   -0.82517  -0.81230  -0.80777  -0.78225  -0.77370
 Alpha  occ. eigenvalues --   -0.75189  -0.74181  -0.73124  -0.70913  -0.69998
 Alpha  occ. eigenvalues --   -0.69454  -0.69145  -0.69030  -0.67795  -0.66898
 Alpha  occ. eigenvalues --   -0.66823  -0.66454  -0.65788  -0.65069  -0.64166
 Alpha  occ. eigenvalues --   -0.63389  -0.62698  -0.61977  -0.61337  -0.61308
 Alpha  occ. eigenvalues --   -0.60065  -0.59422  -0.58518  -0.57647  -0.57553
 Alpha  occ. eigenvalues --   -0.57122  -0.56793  -0.56260  -0.55907  -0.55565
 Alpha  occ. eigenvalues --   -0.54842  -0.53524  -0.52867  -0.52595  -0.52337
 Alpha  occ. eigenvalues --   -0.52237  -0.51698  -0.51525  -0.50904  -0.50556
 Alpha  occ. eigenvalues --   -0.50097  -0.49883  -0.49405  -0.49098  -0.48502
 Alpha  occ. eigenvalues --   -0.48360  -0.48076  -0.47733  -0.47272  -0.47109
 Alpha  occ. eigenvalues --   -0.46664  -0.46468  -0.46001  -0.45589  -0.45342
 Alpha  occ. eigenvalues --   -0.44534  -0.44089  -0.43678  -0.43126  -0.42139
 Alpha  occ. eigenvalues --   -0.42091  -0.41656  -0.40870  -0.40464  -0.40091
 Alpha  occ. eigenvalues --   -0.37581  -0.37473  -0.36597  -0.36208  -0.35887
 Alpha  occ. eigenvalues --   -0.35622  -0.34309  -0.33847  -0.33331  -0.32985
 Alpha  occ. eigenvalues --   -0.32562  -0.32261  -0.31647  -0.31365  -0.30997
 Alpha  occ. eigenvalues --   -0.30773
 Alpha virt. eigenvalues --   -0.09657  -0.09491  -0.07102  -0.06776  -0.06484
 Alpha virt. eigenvalues --   -0.06326  -0.06079  -0.05498  -0.05067  -0.04561
 Alpha virt. eigenvalues --   -0.02351  -0.02117  -0.01959  -0.01021   0.00486

 Mulliken charges:
               1
     1  N   -0.753422
     2  H    0.397827
     3  H    0.407623
     4  H    0.442858
     5  C   -0.144946
     6  H    0.198228
     7  C    0.664604
     8  C   -0.400724
     9  H    0.223711
    10  H    0.242270
    11  O   -0.513916
    12  C    0.627299
    13  N   -0.754768
    14  H    0.349595
    15  H    0.417137
    16  O   -0.576530
    17  N   -0.568462
    18  H    0.337321
    19  C   -0.081556
    20  H    0.220557
    21  C    0.627299
    22  C   -0.411235
    23  H    0.156706
    24  H    0.186465
    25  O   -0.546845
    26  C    0.194432
    27  C   -0.187230
    28  H    0.115757
    29  C   -0.178157
    30  H    0.131969
    31  C   -0.130364
    32  H    0.138425
    33  C   -0.128143
    34  H    0.145341
    35  C   -0.129013
    36  H    0.143921
    37  N   -0.637536
    38  H    0.403360
    39  C   -0.081500
    40  H    0.197894
    41  C    0.634429
    42  C   -0.368994
    43  H    0.189291
    44  H    0.171533
    45  O   -0.547479
    46  C    0.625024
    47  N   -0.727740
    48  H    0.349743
    49  H    0.354020
    50  O   -0.537750
    51  N   -0.653283
    52  H    0.388889
    53  C   -0.021254
    54  H    0.160607
    55  C    0.599722
    56  C   -0.276212
    57  H    0.160867
    58  H    0.143929
    59  O   -0.608200
    60  C   -0.287858
    61  H    0.207121
    62  H    0.132311
    63  C   -0.164265
    64  H    0.192426
    65  H    0.179401
    66  N   -0.593191
    67  H    0.351529
    68  N   -0.769594
    69  H    0.353608
    70  H    0.441306
    71  N   -0.763873
    72  H    0.370331
    73  H    0.369060
    74  C    0.783879
    75  O   -0.585583
 Sum of Mulliken charges =   1.00000

 Dipole moment (field-independent basis, Debye):
    X=              0.6856    Y=             21.1271    Z=             -3.5437  Tot=             21.4332
 Quadrupole moment (field-independent basis, Debye-Ang):
   XX=           -141.0672   YY=            -57.9809   ZZ=           -151.7354
   XY=             41.9006   XZ=            -67.6053   YZ=            -35.9157

 Normal termination of Gaussian 16 at Tue Jun  7 03:18:04 2022.
