 Gaussian 16, Revision C.01,
 Gaussian 16:  ES64L-G16RevC.01  3-Jul-2019

 -------------------------------------------------------------------
 # B3LYP/6-31G* guess=read geom=check nosymm integral(ultrafinegrid)
 -------------------------------------------------------------------

 ------------------------------------------------------
 Candidate Structure: Conf:293 Charge calc in gas phase
 ------------------------------------------------------
 Structure from the checkpoint file:  "conf-293.chk"
 Charge =  1 Multiplicity = 1

                          Input orientation:
 ---------------------------------------------------------------------
 Center     Atomic      Atomic             Coordinates (Angstroms)
 Number     Number       Type             X           Y           Z
 ---------------------------------------------------------------------
      1          7           0       -3.843366    0.666545    5.028706
      2          1           0       -4.835360    0.633851    5.285775
      3          1           0       -3.532962   -0.301524    4.696364
      4          1           0       -3.303697    0.961538    5.848682
      5          6           0       -3.569036    1.503073    3.792926
      6          1           0       -4.464087    2.068701    3.529658
      7          6           0       -3.231428    0.412441    2.730717
      8          6           0       -2.399043    2.474691    4.044268
      9          1           0       -2.646818    3.114451    4.904347
     10          1           0       -1.479440    1.921440    4.262922
     11          8           0       -3.071228   -0.747031    3.133546
     12          6           0       -2.214559    3.381347    2.808006
     13          7           0       -0.970972    3.803845    2.562414
     14          1           0       -0.740914    4.155328    1.622579
     15          1           0       -0.196614    3.338958    3.022044
     16          8           0       -3.209122    3.664243    2.121880
     17          7           0       -3.119960    0.836866    1.469563
     18          1           0       -3.240090    1.841982    1.347136
     19          6           0       -2.300181    0.152827    0.477677
     20          1           0       -2.743329   -0.817275    0.227544
     21          6           0       -0.858871   -0.016004    1.036212
     22          6           0       -2.187130    1.053454   -0.783918
     23          1           0       -1.648911    1.962152   -0.489149
     24          1           0       -1.534522    0.531246   -1.490381
     25          8           0       -0.460282    0.684571    1.962785
     26          6           0       -3.484092    1.415461   -1.477757
     27          6           0       -3.998764    0.605796   -2.499327
     28          1           0       -3.483789   -0.315199   -2.765970
     29          6           0       -4.165422    2.601334   -1.152848
     30          1           0       -3.780230    3.252942   -0.370209
     31          6           0       -5.162701    0.965424   -3.182707
     32          1           0       -5.551647    0.318443   -3.964335
     33          6           0       -5.328962    2.965654   -1.836783
     34          1           0       -5.845231    3.883929   -1.569984
     35          6           0       -5.829367    2.150730   -2.857426
     36          1           0       -6.737702    2.430098   -3.384007
     37          7           0       -0.065769   -0.888867    0.358154
     38          1           0       -0.458997   -1.351452   -0.454702
     39          6           0        1.395122   -0.677724    0.316412
     40          1           0        1.649761   -0.153464    1.239086
     41          6           0        1.706236    0.202994   -0.929149
     42          6           0        2.150207   -2.009903    0.279728
     43          1           0        1.917985   -2.553016   -0.642282
     44          1           0        1.828514   -2.607952    1.136653
     45          8           0        2.047664   -0.319802   -1.992843
     46          6           0        3.655103   -1.758566    0.434858
     47          7           0        4.400734   -1.979224   -0.683454
     48          1           0        5.356125   -1.652413   -0.654231
     49          1           0        3.938917   -1.940034   -1.580230
     50          8           0        4.123706   -1.399650    1.506538
     51          7           0        1.491754    1.521109   -0.718984
     52          1           0        1.152235    1.826544    0.191278
     53          6           0        1.571884    2.654062   -1.649106
     54          1           0        2.608953    3.023460   -1.642372
     55          6           0        0.673238    3.790457   -1.029398
     56          6           0        1.161320    2.350551   -3.110042
     57          1           0        1.534610    1.364890   -3.388665
     58          1           0        0.067772    2.288845   -3.144561
     59          8           0        0.374965    4.755760   -1.790178
     60          6           0        1.674150    3.416749   -4.112894
     61          1           0        2.398390    4.076119   -3.619717
     62          1           0        2.229851    2.928078   -4.921787
     63          6           0        0.622935    4.382539   -4.699329
     64          1           0        0.381036    5.142064   -3.960219
     65          1           0        1.029218    4.895489   -5.576897
     66          7           0       -0.646747    3.772374   -5.133399
     67          1           0       -0.665564    3.368452   -6.060060
     68          7           0       -1.874577    4.218154   -3.200363
     69          1           0       -2.756194    4.111183   -2.714179
     70          1           0       -1.033267    4.362608   -2.577765
     71          7           0       -2.907846    3.239769   -5.042462
     72          1           0       -3.710509    3.010874   -4.465648
     73          1           0       -2.811022    2.674404   -5.876295
     74          6           0       -1.786077    3.735456   -4.432288
     75          8           0        0.313107    3.632025    0.162055
 ---------------------------------------------------------------------

 SCF Done:  E(RB3LYP) =  -1917.35553305     A.U. after    1 cycles

 Alpha  occ. eigenvalues --  -19.26795 -19.22381 -19.22300 -19.18878 -19.17161
 Alpha  occ. eigenvalues --  -19.16495 -19.16195 -14.59669 -14.48781 -14.48553
 Alpha  occ. eigenvalues --  -14.48538 -14.46276 -14.46220 -14.44378 -14.42482
 Alpha  occ. eigenvalues --  -14.40615 -10.44539 -10.43176 -10.40313 -10.40276
 Alpha  occ. eigenvalues --  -10.39314 -10.36078 -10.35411 -10.34797 -10.34353
 Alpha  occ. eigenvalues --  -10.33838 -10.31441 -10.31163 -10.30850 -10.30611
 Alpha  occ. eigenvalues --  -10.29861 -10.29786 -10.29772 -10.29662 -10.29522
 Alpha  occ. eigenvalues --  -10.29423 -10.26542 -10.26163 -10.25812  -1.19137
 Alpha  occ. eigenvalues --   -1.14203  -1.13901  -1.13250  -1.12781  -1.10572
 Alpha  occ. eigenvalues --   -1.09852  -1.08317  -1.05955  -1.02385  -1.02334
 Alpha  occ. eigenvalues --   -1.01719  -1.00300  -1.00103  -0.98533  -0.96436
 Alpha  occ. eigenvalues --   -0.95677  -0.92976  -0.90020  -0.87240  -0.86117
 Alpha  occ. eigenvalues --   -0.85117  -0.84227  -0.82049  -0.81564  -0.77172
 Alpha  occ. eigenvalues --   -0.76559  -0.74573  -0.73679  -0.73361  -0.73068
 Alpha  occ. eigenvalues --   -0.71697  -0.70610  -0.70306  -0.69221  -0.68967
 Alpha  occ. eigenvalues --   -0.68401  -0.67807  -0.65654  -0.65487  -0.64413
 Alpha  occ. eigenvalues --   -0.63499  -0.62964  -0.62405  -0.62125  -0.61597
 Alpha  occ. eigenvalues --   -0.61494  -0.60790  -0.59870  -0.59324  -0.58525
 Alpha  occ. eigenvalues --   -0.58405  -0.57627  -0.56740  -0.56616  -0.56146
 Alpha  occ. eigenvalues --   -0.55946  -0.55674  -0.55263  -0.54881  -0.53815
 Alpha  occ. eigenvalues --   -0.53448  -0.53332  -0.52914  -0.52468  -0.52323
 Alpha  occ. eigenvalues --   -0.51722  -0.51063  -0.50493  -0.50121  -0.49759
 Alpha  occ. eigenvalues --   -0.49544  -0.49184  -0.48652  -0.48076  -0.47895
 Alpha  occ. eigenvalues --   -0.47803  -0.47214  -0.46326  -0.45935  -0.45493
 Alpha  occ. eigenvalues --   -0.45059  -0.44605  -0.44554  -0.44283  -0.43605
 Alpha  occ. eigenvalues --   -0.43092  -0.42510  -0.41926  -0.41330  -0.40955
 Alpha  occ. eigenvalues --   -0.39517  -0.39050  -0.37425  -0.36931  -0.36645
 Alpha  occ. eigenvalues --   -0.36192  -0.36115  -0.35902  -0.35080  -0.33477
 Alpha  occ. eigenvalues --   -0.32541  -0.32337  -0.31778  -0.31315  -0.30140
 Alpha  occ. eigenvalues --   -0.29892
 Alpha virt. eigenvalues --   -0.12289  -0.11678  -0.11228  -0.10856  -0.09315
 Alpha virt. eigenvalues --   -0.08788  -0.08570  -0.05570  -0.05405  -0.05013
 Alpha virt. eigenvalues --   -0.03187  -0.02746  -0.02613  -0.01994  -0.00921

 Mulliken charges:
               1
     1  N   -0.765983
     2  H    0.416042
     3  H    0.436189
     4  H    0.414869
     5  C   -0.115528
     6  H    0.239384
     7  C    0.654994
     8  C   -0.386409
     9  H    0.200343
    10  H    0.206020
    11  O   -0.535562
    12  C    0.607932
    13  N   -0.709541
    14  H    0.393715
    15  H    0.357897
    16  O   -0.544097
    17  N   -0.613877
    18  H    0.403664
    19  C   -0.046311
    20  H    0.186135
    21  C    0.644562
    22  C   -0.448222
    23  H    0.208075
    24  H    0.173324
    25  O   -0.541954
    26  C    0.188666
    27  C   -0.186582
    28  H    0.141148
    29  C   -0.250301
    30  H    0.186602
    31  C   -0.148163
    32  H    0.158194
    33  C   -0.147922
    34  H    0.165048
    35  C   -0.150343
    36  H    0.162176
    37  N   -0.593669
    38  H    0.336113
    39  C   -0.079766
    40  H    0.212454
    41  C    0.615703
    42  C   -0.344970
    43  H    0.154179
    44  H    0.183584
    45  O   -0.548363
    46  C    0.565380
    47  N   -0.724501
    48  H    0.342498
    49  H    0.353551
    50  O   -0.500606
    51  N   -0.643387
    52  H    0.366165
    53  C   -0.029211
    54  H    0.175025
    55  C    0.583152
    56  C   -0.298102
    57  H    0.197474
    58  H    0.109189
    59  O   -0.590993
    60  C   -0.261371
    61  H    0.175825
    62  H    0.144922
    63  C   -0.179737
    64  H    0.230750
    65  H    0.170968
    66  N   -0.586460
    67  H    0.347898
    68  N   -0.790776
    69  H    0.356769
    70  H    0.445115
    71  N   -0.771001
    72  H    0.371251
    73  H    0.357992
    74  C    0.771149
    75  O   -0.578377
 Sum of Mulliken charges =   1.00000

 Dipole moment (field-independent basis, Debye):
    X=            -18.9108    Y=              6.3054    Z=             -0.1583  Tot=             19.9350
 Quadrupole moment (field-independent basis, Debye-Ang):
   XX=           -150.6948   YY=           -223.4649   ZZ=            -66.9408
   XY=            -20.3888   XZ=            -40.8564   YZ=            -12.6489

 Normal termination of Gaussian 16 at Tue Jun  7 03:12:56 2022.
