 Gaussian 16, Revision C.01,
 Gaussian 16:  ES64L-G16RevC.01  3-Jul-2019

 -------------------------------------------------------------------
 # B3LYP/6-31G* guess=read geom=check nosymm integral(ultrafinegrid)
 -------------------------------------------------------------------

 -----------------------------------------------------
 Candidate Structure: Conf:34 Charge calc in gas phase
 -----------------------------------------------------
 Structure from the checkpoint file:  "conf-34.chk"
 Charge =  1 Multiplicity = 1

                          Input orientation:
 ---------------------------------------------------------------------
 Center     Atomic      Atomic             Coordinates (Angstroms)
 Number     Number       Type             X           Y           Z
 ---------------------------------------------------------------------
      1          7           0       -1.464237   -1.654332   -1.259233
      2          1           0       -1.179302   -2.631039   -1.352029
      3          1           0       -2.319383   -1.424993   -1.807409
      4          1           0       -0.738546   -1.005794   -1.633531
      5          6           0       -1.782308   -1.238430    0.161837
      6          1           0       -2.325398   -2.056584    0.643499
      7          6           0       -2.747604   -0.036090   -0.073103
      8          6           0       -0.442394   -0.977912    0.866575
      9          1           0        0.139113   -1.910598    0.854471
     10          1           0        0.144922   -0.241048    0.311890
     11          8           0       -3.199190    0.108876   -1.220913
     12          6           0       -0.568154   -0.556782    2.329264
     13          7           0        0.568573   -0.056280    2.850265
     14          1           0        0.555620    0.242076    3.817475
     15          1           0        1.338453    0.238976    2.246954
     16          8           0       -1.623917   -0.695931    2.953868
     17          7           0       -2.979264    0.806848    0.933203
     18          1           0       -2.659364    0.542419    1.865494
     19          6           0       -3.530396    2.154344    0.693812
     20          1           0       -4.175097    2.079006   -0.186444
     21          6           0       -2.314050    3.082511    0.385375
     22          6           0       -4.332481    2.652324    1.903893
     23          1           0       -3.663806    2.715949    2.769688
     24          1           0       -4.635532    3.681649    1.686549
     25          8           0       -2.018616    4.027074    1.100709
     26          6           0       -5.536164    1.787217    2.214637
     27          6           0       -6.722244    1.925899    1.480626
     28          1           0       -6.785990    2.681051    0.699446
     29          6           0       -5.484352    0.822312    3.228568
     30          1           0       -4.577280    0.708797    3.819066
     31          6           0       -7.826816    1.117746    1.748878
     32          1           0       -8.740729    1.244548    1.174976
     33          6           0       -6.588263    0.011777    3.500537
     34          1           0       -6.532162   -0.726272    4.296086
     35          6           0       -7.762062    0.156610    2.760213
     36          1           0       -8.624273   -0.468518    2.974944
     37          7           0       -1.560000    2.673504   -0.684463
     38          1           0       -1.899344    1.890099   -1.233304
     39          6           0       -0.128283    2.915846   -0.816299
     40          1           0        0.057540    3.881801   -1.302590
     41          6           0        0.424985    1.801039   -1.746233
     42          6           0        0.584143    2.931559    0.590054
     43          1           0        0.026895    2.284296    1.267101
     44          1           0        0.529124    3.944351    0.994240
     45          8           0       -0.166108    0.707906   -1.846474
     46          6           0        2.007446    2.396716    0.547834
     47          7           0        2.987593    3.292826    0.293953
     48          1           0        3.856581    2.946755   -0.106503
     49          1           0        2.757091    4.254036    0.082423
     50          8           0        2.234889    1.189723    0.706315
     51          7           0        1.539858    2.104032   -2.413861
     52          1           0        2.052708    2.957937   -2.196189
     53          6           0        2.396636    1.148064   -3.116331
     54          1           0        2.100017    0.137463   -2.833158
     55          6           0        3.859235    1.396807   -2.656781
     56          6           0        2.259658    1.330961   -4.654088
     57          1           0        1.295139    0.911490   -4.960990
     58          1           0        2.204215    2.407065   -4.866983
     59          8           0        4.631520    0.406517   -2.826028
     60          6           0        3.399516    0.697264   -5.481782
     61          1           0        3.753060   -0.212306   -4.989697
     62          1           0        3.020299    0.418069   -6.472748
     63          6           0        4.584004    1.669089   -5.657249
     64          1           0        4.330942    2.431975   -6.402977
     65          1           0        4.812425    2.202090   -4.733596
     66          7           0        5.824236    1.024451   -6.111256
     67          1           0        5.844514    0.678062   -7.061589
     68          7           0        6.899073    0.841307   -4.044456
     69          1           0        7.783582    0.810539   -3.555491
     70          1           0        6.001308    0.741234   -3.455500
     71          7           0        8.039168    0.394234   -6.029287
     72          1           0        8.846829    0.082609   -5.510075
     73          1           0        8.211952    0.741275   -6.962045
     74          6           0        6.910369    0.759752   -5.363980
     75          8           0        4.145847    2.550657   -2.266922
 ---------------------------------------------------------------------

 SCF Done:  E(RB3LYP) =  -1917.37711802     A.U. after    2 cycles

 Alpha  occ. eigenvalues --  -19.23960 -19.23112 -19.21698 -19.20900 -19.20425
 Alpha  occ. eigenvalues --  -19.17283 -19.17108 -14.56424 -14.48932 -14.48894
 Alpha  occ. eigenvalues --  -14.46753 -14.46087 -14.45716 -14.44779 -14.44142
 Alpha  occ. eigenvalues --  -14.44142 -10.44547 -10.41072 -10.39803 -10.39644
 Alpha  occ. eigenvalues --  -10.38373 -10.38307 -10.37377 -10.35136 -10.34290
 Alpha  occ. eigenvalues --  -10.32459 -10.32371 -10.31550 -10.30573 -10.28962
 Alpha  occ. eigenvalues --  -10.27795 -10.27631 -10.26435 -10.25670 -10.24614
 Alpha  occ. eigenvalues --  -10.24612 -10.24510 -10.24495 -10.24351  -1.16580
 Alpha  occ. eigenvalues --   -1.14316  -1.13374  -1.12919  -1.12233  -1.12126
 Alpha  occ. eigenvalues --   -1.10754  -1.10578  -1.03571  -1.02875  -1.02590
 Alpha  occ. eigenvalues --   -1.01504  -1.00905  -1.00225  -1.00150  -0.99176
 Alpha  occ. eigenvalues --   -0.91539  -0.90528  -0.89027  -0.87389  -0.85916
 Alpha  occ. eigenvalues --   -0.83245  -0.81308  -0.79942  -0.79524  -0.78555
 Alpha  occ. eigenvalues --   -0.76209  -0.74035  -0.72732  -0.71843  -0.70846
 Alpha  occ. eigenvalues --   -0.70337  -0.69945  -0.68961  -0.68330  -0.67679
 Alpha  occ. eigenvalues --   -0.67104  -0.66492  -0.66014  -0.65803  -0.64886
 Alpha  occ. eigenvalues --   -0.64184  -0.62678  -0.62253  -0.61989  -0.61735
 Alpha  occ. eigenvalues --   -0.61331  -0.60259  -0.59200  -0.58645  -0.57946
 Alpha  occ. eigenvalues --   -0.57759  -0.57236  -0.57109  -0.56344  -0.55925
 Alpha  occ. eigenvalues --   -0.55486  -0.54902  -0.54634  -0.54443  -0.53378
 Alpha  occ. eigenvalues --   -0.52887  -0.52278  -0.51802  -0.51239  -0.51179
 Alpha  occ. eigenvalues --   -0.50840  -0.50649  -0.50114  -0.49762  -0.49088
 Alpha  occ. eigenvalues --   -0.48638  -0.48274  -0.47889  -0.47531  -0.47225
 Alpha  occ. eigenvalues --   -0.47187  -0.46910  -0.46462  -0.46154  -0.45940
 Alpha  occ. eigenvalues --   -0.45453  -0.44959  -0.44835  -0.44010  -0.43377
 Alpha  occ. eigenvalues --   -0.42075  -0.41259  -0.39839  -0.39617  -0.39506
 Alpha  occ. eigenvalues --   -0.38512  -0.37814  -0.37416  -0.37243  -0.36933
 Alpha  occ. eigenvalues --   -0.36525  -0.35998  -0.35542  -0.34773  -0.34038
 Alpha  occ. eigenvalues --   -0.33051  -0.32953  -0.31442  -0.31300  -0.30539
 Alpha  occ. eigenvalues --   -0.30012
 Alpha virt. eigenvalues --   -0.11076  -0.09101  -0.08942  -0.08155  -0.07758
 Alpha virt. eigenvalues --   -0.06758  -0.05924  -0.05699  -0.05638  -0.05398
 Alpha virt. eigenvalues --   -0.03129  -0.02251  -0.01579  -0.01345  -0.00499

 Mulliken charges:
               1
     1  N   -0.760248
     2  H    0.398603
     3  H    0.422981
     4  H    0.443495
     5  C   -0.115262
     6  H    0.235670
     7  C    0.646382
     8  C   -0.404014
     9  H    0.195266
    10  H    0.227402
    11  O   -0.552068
    12  C    0.595026
    13  N   -0.756510
    14  H    0.357933
    15  H    0.401280
    16  O   -0.530682
    17  N   -0.609689
    18  H    0.397879
    19  C   -0.082395
    20  H    0.206800
    21  C    0.624123
    22  C   -0.383892
    23  H    0.169180
    24  H    0.185799
    25  O   -0.498784
    26  C    0.177470
    27  C   -0.181003
    28  H    0.128150
    29  C   -0.194340
    30  H    0.134413
    31  C   -0.127684
    32  H    0.141309
    33  C   -0.129980
    34  H    0.140260
    35  C   -0.129182
    36  H    0.141403
    37  N   -0.649917
    38  H    0.376086
    39  C   -0.000462
    40  H    0.175256
    41  C    0.602393
    42  C   -0.366564
    43  H    0.169132
    44  H    0.205128
    45  O   -0.605477
    46  C    0.579698
    47  N   -0.714288
    48  H    0.382846
    49  H    0.343700
    50  O   -0.543186
    51  N   -0.568880
    52  H    0.350763
    53  C   -0.040122
    54  H    0.162390
    55  C    0.606562
    56  C   -0.279625
    57  H    0.156752
    58  H    0.150619
    59  O   -0.609107
    60  C   -0.271290
    61  H    0.182875
    62  H    0.140849
    63  C   -0.177491
    64  H    0.171780
    65  H    0.215246
    66  N   -0.598434
    67  H    0.350808
    68  N   -0.769680
    69  H    0.351163
    70  H    0.449226
    71  N   -0.764058
    72  H    0.368282
    73  H    0.366780
    74  C    0.781177
    75  O   -0.596016
 Sum of Mulliken charges =   1.00000

 Dipole moment (field-independent basis, Debye):
    X=             12.9363    Y=             -0.5450    Z=            -16.1385  Tot=             20.6905
 Quadrupole moment (field-independent basis, Debye-Ang):
   XX=            -70.8358   YY=           -203.4376   ZZ=           -113.4592
   XY=             23.9073   XZ=           -105.0656   YZ=            -10.0094

 Normal termination of Gaussian 16 at Tue Jun  7 03:08:34 2022.
