 Gaussian 16, Revision C.01,
 Gaussian 16:  ES64L-G16RevC.01  3-Jul-2019

 -------------------------------------------------------------------
 # B3LYP/6-31G* guess=read geom=check nosymm integral(ultrafinegrid)
 -------------------------------------------------------------------

 ------------------------------------------------------
 Candidate Structure: Conf:474 Charge calc in gas phase
 ------------------------------------------------------
 Structure from the checkpoint file:  "conf-474.chk"
 Charge =  1 Multiplicity = 1

                          Input orientation:
 ---------------------------------------------------------------------
 Center     Atomic      Atomic             Coordinates (Angstroms)
 Number     Number       Type             X           Y           Z
 ---------------------------------------------------------------------
      1          7           0       -4.223921   -3.366659    2.948085
      2          1           0       -4.765898   -2.935792    2.170804
      3          1           0       -3.542713   -4.086104    2.514129
      4          1           0       -4.837262   -3.792661    3.644469
      5          6           0       -3.350595   -2.264568    3.490701
      6          1           0       -3.775326   -1.906417    4.432940
      7          6           0       -3.423843   -1.143288    2.414626
      8          6           0       -1.917425   -2.801716    3.715367
      9          1           0       -1.259842   -1.985353    4.019258
     10          1           0       -1.934337   -3.526306    4.538072
     11          8           0       -4.147117   -1.316691    1.433686
     12          6           0       -1.388093   -3.531115    2.472110
     13          7           0       -0.205966   -3.148421    2.003141
     14          1           0        0.208740   -3.537056    1.149835
     15          1           0        0.214001   -2.286436    2.338508
     16          8           0       -2.085031   -4.446954    1.982333
     17          7           0       -2.659994   -0.055024    2.636678
     18          1           0       -1.986984   -0.108742    3.394975
     19          6           0       -2.151756    0.743948    1.513357
     20          1           0       -2.689599    0.396864    0.628155
     21          6           0       -0.661105    0.347315    1.391422
     22          6           0       -2.389020    2.269055    1.678356
     23          1           0       -3.337143    2.379482    2.218058
     24          1           0       -1.605555    2.710362    2.303670
     25          8           0       -0.102967   -0.242025    2.327531
     26          6           0       -2.472058    2.996371    0.345969
     27          6           0       -1.540518    3.985805    0.004078
     28          1           0       -0.720012    4.228485    0.679337
     29          6           0       -3.512793    2.698606   -0.550362
     30          1           0       -4.255818    1.946742   -0.288595
     31          6           0       -1.658006    4.662455   -1.214616
     32          1           0       -0.935365    5.436988   -1.458946
     33          6           0       -3.622498    3.373106   -1.765218
     34          1           0       -4.438524    3.137331   -2.442977
     35          6           0       -2.692314    4.361180   -2.100090
     36          1           0       -2.783526    4.895442   -3.042316
     37          7           0       -0.043909    0.628323    0.225515
     38          1           0       -0.551236    1.146389   -0.483482
     39          6           0        1.280486    0.089891   -0.086965
     40          1           0        1.657932   -0.272098    0.874784
     41          6           0        2.294853    1.163223   -0.544602
     42          6           0        1.187153   -1.105970   -1.076630
     43          1           0        1.432293   -0.772770   -2.089851
     44          1           0        0.168775   -1.498574   -1.072936
     45          8           0        3.294049    0.814855   -1.196843
     46          6           0        2.102386   -2.262811   -0.666104
     47          7           0        3.412950   -2.050331   -0.904243
     48          1           0        4.080664   -2.731466   -0.568558
     49          1           0        3.715409   -1.111983   -1.167308
     50          8           0        1.660631   -3.292049   -0.145285
     51          7           0        2.023376    2.404933   -0.144146
     52          1           0        1.273089    2.599087    0.541953
     53          6           0        2.942753    3.532947   -0.065474
     54          1           0        3.883405    3.204549    0.399206
     55          6           0        2.234664    4.577324    0.918034
     56          6           0        3.277053    4.246052   -1.378179
     57          1           0        2.327172    4.478830   -1.886098
     58          1           0        3.699044    5.198853   -1.030225
     59          8           0        2.750802    5.702407    0.953619
     60          6           0        4.245153    3.535940   -2.343497
     61          1           0        4.933587    2.894320   -1.785593
     62          1           0        3.711921    2.870668   -3.029660
     63          6           0        5.104031    4.530675   -3.134869
     64          1           0        5.810258    5.030019   -2.457833
     65          1           0        5.667350    4.022245   -3.925922
     66          7           0        4.252040    5.562421   -3.765977
     67          1           0        3.352635    5.709695   -3.321064
     68          7           0        5.934863    6.519915   -5.045749
     69          1           0        6.204695    7.012961   -5.884652
     70          1           0        6.643684    5.977633   -4.574310
     71          7           0        3.764541    7.298637   -5.231769
     72          1           0        4.077810    8.170782   -5.634630
     73          1           0        2.783700    7.239884   -4.996137
     74          6           0        4.650683    6.456173   -4.661044
     75          8           0        1.221515    4.110985    1.519608
 ---------------------------------------------------------------------

 SCF Done:  E(RB3LYP) =  -1917.33967946     A.U. after    1 cycles

 Alpha  occ. eigenvalues --  -19.25056 -19.22952 -19.22221 -19.18447 -19.18395
 Alpha  occ. eigenvalues --  -19.11017 -19.09930 -14.54885 -14.52479 -14.52194
 Alpha  occ. eigenvalues --  -14.51789 -14.47524 -14.46094 -14.44646 -14.41350
 Alpha  occ. eigenvalues --  -14.40405 -10.48499 -10.41907 -10.40252 -10.39123
 Alpha  occ. eigenvalues --  -10.38957 -10.35885 -10.35398 -10.34581 -10.33394
 Alpha  occ. eigenvalues --  -10.32826 -10.31917 -10.28888 -10.27258 -10.27253
 Alpha  occ. eigenvalues --  -10.26998 -10.26308 -10.26142 -10.25285 -10.25195
 Alpha  occ. eigenvalues --  -10.25140 -10.25029 -10.24754 -10.23869  -1.17237
 Alpha  occ. eigenvalues --   -1.16991  -1.14393  -1.13946  -1.09879  -1.09595
 Alpha  occ. eigenvalues --   -1.09457  -1.06015  -1.05302  -1.04421  -1.03988
 Alpha  occ. eigenvalues --   -1.02392  -1.00528  -0.97559  -0.96609  -0.95128
 Alpha  occ. eigenvalues --   -0.92051  -0.91097  -0.89163  -0.87558  -0.85199
 Alpha  occ. eigenvalues --   -0.82292  -0.81708  -0.80194  -0.79417  -0.79252
 Alpha  occ. eigenvalues --   -0.76726  -0.74773  -0.73711  -0.73027  -0.71361
 Alpha  occ. eigenvalues --   -0.71020  -0.70615  -0.70320  -0.68418  -0.67458
 Alpha  occ. eigenvalues --   -0.67115  -0.66334  -0.65655  -0.65219  -0.65066
 Alpha  occ. eigenvalues --   -0.64502  -0.64290  -0.62649  -0.62153  -0.61441
 Alpha  occ. eigenvalues --   -0.61016  -0.60331  -0.59719  -0.58352  -0.57664
 Alpha  occ. eigenvalues --   -0.57367  -0.57108  -0.56932  -0.56428  -0.55778
 Alpha  occ. eigenvalues --   -0.55443  -0.54954  -0.53523  -0.53019  -0.52428
 Alpha  occ. eigenvalues --   -0.52120  -0.51992  -0.51365  -0.51087  -0.50635
 Alpha  occ. eigenvalues --   -0.50385  -0.50222  -0.49452  -0.49345  -0.48406
 Alpha  occ. eigenvalues --   -0.48154  -0.47856  -0.47727  -0.46935  -0.46679
 Alpha  occ. eigenvalues --   -0.46259  -0.45985  -0.45195  -0.44648  -0.44341
 Alpha  occ. eigenvalues --   -0.43504  -0.43422  -0.42314  -0.41841  -0.41745
 Alpha  occ. eigenvalues --   -0.41072  -0.40635  -0.40403  -0.39976  -0.39452
 Alpha  occ. eigenvalues --   -0.39254  -0.37990  -0.37813  -0.37422  -0.36766
 Alpha  occ. eigenvalues --   -0.36241  -0.35958  -0.33659  -0.32721  -0.31648
 Alpha  occ. eigenvalues --   -0.31300  -0.30898  -0.30638  -0.26062  -0.25871
 Alpha  occ. eigenvalues --   -0.24237
 Alpha virt. eigenvalues --   -0.12463  -0.11317  -0.08860  -0.08405  -0.08310
 Alpha virt. eigenvalues --   -0.06745  -0.06251  -0.06026  -0.04719  -0.04599
 Alpha virt. eigenvalues --   -0.04116  -0.03354  -0.02739  -0.02127  -0.00872

 Mulliken charges:
               1
     1  N   -0.769978
     2  H    0.420649
     3  H    0.446044
     4  H    0.397688
     5  C   -0.124740
     6  H    0.221124
     7  C    0.630789
     8  C   -0.395639
     9  H    0.205806
    10  H    0.211050
    11  O   -0.511306
    12  C    0.626300
    13  N   -0.758144
    14  H    0.410477
    15  H    0.388869
    16  O   -0.555310
    17  N   -0.572209
    18  H    0.357925
    19  C   -0.107786
    20  H    0.206859
    21  C    0.641265
    22  C   -0.359599
    23  H    0.179384
    24  H    0.201055
    25  O   -0.562380
    26  C    0.113084
    27  C   -0.217284
    28  H    0.230227
    29  C   -0.191062
    30  H    0.133672
    31  C   -0.145809
    32  H    0.131503
    33  C   -0.130984
    34  H    0.138710
    35  C   -0.127939
    36  H    0.129361
    37  N   -0.613346
    38  H    0.356990
    39  C   -0.067027
    40  H    0.217567
    41  C    0.615814
    42  C   -0.358161
    43  H    0.182812
    44  H    0.168932
    45  O   -0.574327
    46  C    0.567722
    47  N   -0.737614
    48  H    0.343376
    49  H    0.387201
    50  O   -0.537610
    51  N   -0.616260
    52  H    0.370983
    53  C   -0.066048
    54  H    0.154337
    55  C    0.588001
    56  C   -0.308156
    57  H    0.120935
    58  H    0.181393
    59  O   -0.567888
    60  C   -0.280235
    61  H    0.186930
    62  H    0.168113
    63  C   -0.174231
    64  H    0.189665
    65  H    0.173807
    66  N   -0.593572
    67  H    0.376875
    68  N   -0.756529
    69  H    0.384626
    70  H    0.395231
    71  N   -0.759593
    72  H    0.382387
    73  H    0.384336
    74  C    0.827130
    75  O   -0.606236
 Sum of Mulliken charges =   1.00000

 Dipole moment (field-independent basis, Debye):
    X=              4.1116    Y=              9.3804    Z=            -11.1206  Tot=             15.1184
 Quadrupole moment (field-independent basis, Debye-Ang):
   XX=            -84.3989   YY=           -102.9827   ZZ=            -93.8483
   XY=            121.9150   XZ=           -134.7676   YZ=           -179.8508

 Normal termination of Gaussian 16 at Tue Jun  7 03:12:52 2022.
