 Gaussian 16, Revision C.01,
 Gaussian 16:  ES64L-G16RevC.01  3-Jul-2019

 -------------------------------------------------------------------
 # B3LYP/6-31G* guess=read geom=check nosymm integral(ultrafinegrid)
 -------------------------------------------------------------------

 ------------------------------------------------------
 Candidate Structure: Conf:876 Charge calc in gas phase
 ------------------------------------------------------
 Structure from the checkpoint file:  "conf-876.chk"
 Charge =  1 Multiplicity = 1

                          Input orientation:
 ---------------------------------------------------------------------
 Center     Atomic      Atomic             Coordinates (Angstroms)
 Number     Number       Type             X           Y           Z
 ---------------------------------------------------------------------
      1          7           0       -1.885180   -1.501309    2.806689
      2          1           0       -2.221291   -2.116659    2.057386
      3          1           0       -1.044068   -0.963067    2.440022
      4          1           0       -1.664008   -1.987173    3.694269
      5          6           0       -2.966022   -0.501857    3.107982
      6          1           0       -3.820015   -1.073110    3.488095
      7          6           0       -3.357841    0.058241    1.721880
      8          6           0       -2.474554    0.475185    4.180306
      9          1           0       -1.607103    1.028249    3.797309
     10          1           0       -3.268782    1.196472    4.403716
     11          8           0       -3.358888   -0.731514    0.779672
     12          6           0       -2.075868   -0.253857    5.470838
     13          7           0       -2.048732    0.500942    6.588524
     14          1           0       -1.732120    0.075358    7.450416
     15          1           0       -2.259412    1.488175    6.589947
     16          8           0       -1.786471   -1.453689    5.479521
     17          7           0       -3.704543    1.358871    1.637528
     18          1           0       -3.488032    1.971953    2.413060
     19          6           0       -3.821309    2.029752    0.331781
     20          1           0       -4.077309    1.247763   -0.385125
     21          6           0       -2.418157    2.614849    0.054444
     22          6           0       -4.896495    3.127157    0.354180
     23          1           0       -4.552921    3.930233    1.014869
     24          1           0       -4.933783    3.560983   -0.653293
     25          8           0       -2.070471    3.675520    0.572122
     26          6           0       -6.265247    2.631464    0.770421
     27          6           0       -7.015805    1.798257   -0.070967
     28          1           0       -6.618684    1.518220   -1.044779
     29          6           0       -6.808126    2.989395    2.010334
     30          1           0       -6.248353    3.652241    2.667397
     31          6           0       -8.270285    1.330542    0.319121
     32          1           0       -8.839122    0.689176   -0.348637
     33          6           0       -8.065197    2.526323    2.404623
     34          1           0       -8.473319    2.823567    3.367008
     35          6           0       -8.798924    1.692613    1.560377
     36          1           0       -9.778942    1.333971    1.862326
     37          7           0       -1.605809    1.831475   -0.686967
     38          1           0       -1.921521    0.952263   -1.088261
     39          6           0       -0.196847    2.109058   -0.886150
     40          1           0       -0.086138    3.124613   -1.286587
     41          6           0        0.306621    1.092053   -1.939698
     42          6           0        0.627747    2.080034    0.438760
     43          1           0        0.161933    2.799417    1.115681
     44          1           0        1.648674    2.416421    0.237181
     45          8           0       -0.457747    0.239259   -2.400724
     46          6           0        0.659669    0.728499    1.134026
     47          7           0        1.722652   -0.037427    0.907292
     48          1           0        1.774246   -0.936096    1.371219
     49          1           0        2.512722    0.242015    0.269053
     50          8           0       -0.294371    0.391346    1.882300
     51          7           0        1.605513    1.221847   -2.285039
     52          1           0        2.199775    1.759902   -1.651442
     53          6           0        2.398542    0.098929   -2.794523
     54          1           0        1.815360   -0.818772   -2.648745
     55          6           0        3.702056   -0.011499   -1.904192
     56          6           0        2.760441    0.224732   -4.274793
     57          1           0        3.242553    1.197136   -4.446524
     58          1           0        3.512699   -0.547283   -4.469452
     59          8           0        4.581513   -0.762657   -2.327866
     60          6           0        1.557024    0.066873   -5.210229
     61          1           0        1.071818   -0.901098   -5.030613
     62          1           0        0.811310    0.844114   -4.996169
     63          6           0        1.983581    0.153487   -6.674788
     64          1           0        2.447020    1.127655   -6.879153
     65          1           0        2.709928   -0.635168   -6.903597
     66          7           0        0.813903   -0.024182   -7.564128
     67          1           0       -0.097523    0.064766   -7.131000
     68          7           0        2.025107   -0.141628   -9.537201
     69          1           0        2.134922   -0.539535  -10.458990
     70          1           0        2.858451    0.190793   -9.073718
     71          7           0       -0.248121   -0.573286   -9.557392
     72          1           0       -0.289325   -0.481363  -10.562358
     73          1           0       -1.111974   -0.783683   -9.078509
     74          6           0        0.863276   -0.240938   -8.873418
     75          8           0        3.675342    0.695777   -0.836838
 ---------------------------------------------------------------------

 SCF Done:  E(RB3LYP) =  -1917.36191675     A.U. after    1 cycles

 Alpha  occ. eigenvalues --  -19.22985 -19.21879 -19.20368 -19.18528 -19.18504
 Alpha  occ. eigenvalues --  -19.11969 -19.10835 -14.53278 -14.53235 -14.52964
 Alpha  occ. eigenvalues --  -14.52057 -14.46606 -14.46245 -14.42789 -14.41660
 Alpha  occ. eigenvalues --  -14.40689 -10.49507 -10.40739 -10.39499 -10.36963
 Alpha  occ. eigenvalues --  -10.36436 -10.35745 -10.35364 -10.35227 -10.31874
 Alpha  occ. eigenvalues --  -10.31417 -10.31110 -10.29711 -10.28262 -10.26580
 Alpha  occ. eigenvalues --  -10.26357 -10.26278 -10.25977 -10.25040 -10.24984
 Alpha  occ. eigenvalues --  -10.24944 -10.24922 -10.24842 -10.24754  -1.17952
 Alpha  occ. eigenvalues --   -1.14861  -1.14190  -1.10971  -1.10615  -1.09769
 Alpha  occ. eigenvalues --   -1.07396  -1.06965  -1.06211  -1.04783  -1.02527
 Alpha  occ. eigenvalues --   -1.01499  -0.99329  -0.98175  -0.97120  -0.95773
 Alpha  occ. eigenvalues --   -0.91713  -0.90033  -0.89857  -0.86333  -0.84872
 Alpha  occ. eigenvalues --   -0.82793  -0.80838  -0.80346  -0.79726  -0.78626
 Alpha  occ. eigenvalues --   -0.76610  -0.75709  -0.74158  -0.72043  -0.71257
 Alpha  occ. eigenvalues --   -0.70595  -0.69297  -0.68573  -0.67671  -0.66727
 Alpha  occ. eigenvalues --   -0.66527  -0.66347  -0.66243  -0.65574  -0.64576
 Alpha  occ. eigenvalues --   -0.64357  -0.64103  -0.62911  -0.62023  -0.61523
 Alpha  occ. eigenvalues --   -0.60014  -0.59514  -0.59375  -0.59235  -0.57873
 Alpha  occ. eigenvalues --   -0.56770  -0.56594  -0.56499  -0.55911  -0.55830
 Alpha  occ. eigenvalues --   -0.54100  -0.53458  -0.52907  -0.52626  -0.52243
 Alpha  occ. eigenvalues --   -0.51585  -0.51512  -0.51069  -0.50942  -0.50299
 Alpha  occ. eigenvalues --   -0.50104  -0.49321  -0.48473  -0.48395  -0.48069
 Alpha  occ. eigenvalues --   -0.47876  -0.47583  -0.47347  -0.46898  -0.46246
 Alpha  occ. eigenvalues --   -0.45841  -0.45381  -0.45134  -0.44347  -0.44059
 Alpha  occ. eigenvalues --   -0.43546  -0.43453  -0.42446  -0.41999  -0.41609
 Alpha  occ. eigenvalues --   -0.41527  -0.41414  -0.40718  -0.40027  -0.39925
 Alpha  occ. eigenvalues --   -0.38687  -0.37794  -0.37178  -0.36621  -0.35845
 Alpha  occ. eigenvalues --   -0.34863  -0.34455  -0.32825  -0.32446  -0.31912
 Alpha  occ. eigenvalues --   -0.31571  -0.30965  -0.30314  -0.27388  -0.26698
 Alpha  occ. eigenvalues --   -0.24752
 Alpha virt. eigenvalues --   -0.13211  -0.09360  -0.09128  -0.08206  -0.06420
 Alpha virt. eigenvalues --   -0.06049  -0.05730  -0.05381  -0.05043  -0.04591
 Alpha virt. eigenvalues --   -0.03951  -0.03927  -0.03027  -0.01141  -0.00444

 Mulliken charges:
               1
     1  N   -0.759362
     2  H    0.402145
     3  H    0.419105
     4  H    0.420884
     5  C   -0.111670
     6  H    0.222358
     7  C    0.679023
     8  C   -0.431591
     9  H    0.244628
    10  H    0.183155
    11  O   -0.534987
    12  C    0.642007
    13  N   -0.737649
    14  H    0.371690
    15  H    0.360406
    16  O   -0.529435
    17  N   -0.600758
    18  H    0.347939
    19  C   -0.068696
    20  H    0.187679
    21  C    0.640892
    22  C   -0.386387
    23  H    0.176532
    24  H    0.170344
    25  O   -0.541566
    26  C    0.189730
    27  C   -0.179440
    28  H    0.124508
    29  C   -0.197483
    30  H    0.120184
    31  C   -0.127764
    32  H    0.139242
    33  C   -0.128186
    34  H    0.137874
    35  C   -0.130017
    36  H    0.141675
    37  N   -0.617685
    38  H    0.364037
    39  C   -0.042769
    40  H    0.192647
    41  C    0.586627
    42  C   -0.384029
    43  H    0.205798
    44  H    0.191412
    45  O   -0.553116
    46  C    0.607136
    47  N   -0.752535
    48  H    0.330151
    49  H    0.436118
    50  O   -0.603967
    51  N   -0.597495
    52  H    0.348420
    53  C   -0.084654
    54  H    0.160614
    55  C    0.587058
    56  C   -0.260798
    57  H    0.139732
    58  H    0.180391
    59  O   -0.539109
    60  C   -0.310626
    61  H    0.166435
    62  H    0.165693
    63  C   -0.149226
    64  H    0.184801
    65  H    0.187975
    66  N   -0.605632
    67  H    0.369832
    68  N   -0.756427
    69  H    0.386318
    70  H    0.398792
    71  N   -0.764833
    72  H    0.385386
    73  H    0.385484
    74  C    0.837112
    75  O   -0.632076
 Sum of Mulliken charges =   1.00000

 Dipole moment (field-independent basis, Debye):
    X=            -11.2421    Y=              0.1070    Z=            -21.0492  Tot=             23.8635
 Quadrupole moment (field-independent basis, Debye-Ang):
   XX=           -221.6414   YY=           -224.6430   ZZ=            177.2487
   XY=              1.1025   XZ=            -49.9508   YZ=             17.1983

 Normal termination of Gaussian 16 at Tue Jun  7 03:18:05 2022.
