 Gaussian 16, Revision C.01,
 Gaussian 16:  ES64L-G16RevC.01  3-Jul-2019

 -------------------------------------------------------------------
 # B3LYP/6-31G* guess=read geom=check nosymm integral(ultrafinegrid)
 -------------------------------------------------------------------

 ------------------------------------------------------
 Candidate Structure: Conf:684 Charge calc in gas phase
 ------------------------------------------------------
 Structure from the checkpoint file:  "conf-684.chk"
 Charge =  1 Multiplicity = 1

                          Input orientation:
 ---------------------------------------------------------------------
 Center     Atomic      Atomic             Coordinates (Angstroms)
 Number     Number       Type             X           Y           Z
 ---------------------------------------------------------------------
      1          7           0       -6.050654    1.731333    2.648675
      2          1           0       -6.363307    1.684805    1.664456
      3          1           0       -5.941318    0.754891    2.969328
      4          1           0       -6.699180    2.288561    3.259839
      5          6           0       -4.686710    2.366278    2.768213
      6          1           0       -4.698697    3.272798    2.158325
      7          6           0       -3.740551    1.275404    2.222010
      8          6           0       -4.407090    2.688454    4.244870
      9          1           0       -4.339803    1.746318    4.805577
     10          1           0       -3.424509    3.166565    4.315056
     11          8           0       -3.972115    0.119832    2.579518
     12          6           0       -5.496132    3.560777    4.878980
     13          7           0       -5.111234    4.368180    5.881628
     14          1           0       -5.818722    4.902586    6.371599
     15          1           0       -4.161328    4.406511    6.222627
     16          8           0       -6.671540    3.499446    4.493297
     17          7           0       -2.794089    1.656209    1.355763
     18          1           0       -2.596280    2.630678    1.148405
     19          6           0       -2.057729    0.703941    0.533031
     20          1           0       -1.988181   -0.233745    1.087862
     21          6           0       -0.675944    1.318218    0.258123
     22          6           0       -2.782976    0.471436   -0.836725
     23          1           0       -2.575861    1.336814   -1.475782
     24          1           0       -2.312065   -0.393672   -1.315475
     25          8           0       -0.565178    2.553136    0.200872
     26          6           0       -4.278884    0.274449   -0.710352
     27          6           0       -4.827791   -0.976508   -0.393708
     28          1           0       -4.170845   -1.833732   -0.270843
     29          6           0       -5.151323    1.361135   -0.872862
     30          1           0       -4.748930    2.330417   -1.160282
     31          6           0       -6.204026   -1.136762   -0.229262
     32          1           0       -6.607239   -2.117245    0.006813
     33          6           0       -6.534926    1.208951   -0.710909
     34          1           0       -7.198156    2.051876   -0.893357
     35          6           0       -7.064156   -0.044983   -0.382208
     36          1           0       -8.138040   -0.176181   -0.280333
     37          7           0        0.295144    0.423552    0.063015
     38          1           0        0.122703   -0.587407    0.145322
     39          6           0        1.647169    0.728312   -0.393914
     40          1           0        1.946084    1.685635    0.049773
     41          6           0        1.639703    0.915469   -1.939057
     42          6           0        2.591085   -0.392119    0.105787
     43          1           0        2.547581   -0.406149    1.200280
     44          1           0        3.628301   -0.181270   -0.165058
     45          8           0        0.655050    1.466538   -2.489378
     46          6           0        2.136892   -1.780275   -0.371195
     47          7           0        3.008536   -2.495132   -1.099518
     48          1           0        2.674013   -3.390455   -1.436556
     49          1           0        3.784992   -2.056056   -1.622763
     50          8           0        1.007956   -2.191535   -0.050140
     51          7           0        2.727080    0.506962   -2.572013
     52          1           0        3.512365    0.044354   -2.077531
     53          6           0        2.947088    0.151580   -3.980138
     54          1           0        2.164744   -0.558553   -4.278699
     55          6           0        4.320663   -0.661238   -3.950051
     56          6           0        2.966736    1.287012   -5.009875
     57          1           0        3.398166    0.831180   -5.905405
     58          1           0        1.938172    1.573736   -5.267908
     59          8           0        4.827127   -0.904355   -5.042287
     60          6           0        3.790563    2.531346   -4.600281
     61          1           0        4.236573    2.389088   -3.609341
     62          1           0        4.622715    2.684236   -5.294820
     63          6           0        2.967224    3.825822   -4.583094
     64          1           0        3.602287    4.659982   -4.264775
     65          1           0        2.583161    4.050807   -5.586637
     66          7           0        1.837808    3.700972   -3.648527
     67          1           0        1.425572    2.765606   -3.506620
     68          7           0        1.799916    5.917325   -2.911463
     69          1           0        1.299618    6.637161   -2.410961
     70          1           0        2.298007    6.227168   -3.732647
     71          7           0        0.393557    4.319507   -1.961641
     72          1           0        0.171185    4.961778   -1.215622
     73          1           0        0.224536    3.331377   -1.752106
     74          6           0        1.350120    4.639734   -2.852330
     75          8           0        4.717194   -0.967065   -2.768707
 ---------------------------------------------------------------------

 SCF Done:  E(RB3LYP) =  -1917.36096136     A.U. after    1 cycles

 Alpha  occ. eigenvalues --  -19.26993 -19.25457 -19.21985 -19.20462 -19.18269
 Alpha  occ. eigenvalues --  -19.12482 -19.10943 -14.57578 -14.50351 -14.49483
 Alpha  occ. eigenvalues --  -14.49244 -14.47234 -14.47082 -14.45087 -14.42052
 Alpha  occ. eigenvalues --  -14.40625 -10.44631 -10.44468 -10.43006 -10.40903
 Alpha  occ. eigenvalues --  -10.39069 -10.37043 -10.36012 -10.35878 -10.34693
 Alpha  occ. eigenvalues --  -10.32921 -10.32391 -10.30409 -10.30107 -10.29996
 Alpha  occ. eigenvalues --  -10.29928 -10.29916 -10.29794 -10.29357 -10.29280
 Alpha  occ. eigenvalues --  -10.27897 -10.27044 -10.26081 -10.24236  -1.18890
 Alpha  occ. eigenvalues --   -1.17889  -1.13651  -1.13065  -1.12275  -1.11223
 Alpha  occ. eigenvalues --   -1.09658  -1.05840  -1.05314  -1.05191  -1.02351
 Alpha  occ. eigenvalues --   -1.02047  -1.01064  -0.99326  -0.96423  -0.96251
 Alpha  occ. eigenvalues --   -0.95787  -0.94012  -0.90007  -0.87425  -0.86639
 Alpha  occ. eigenvalues --   -0.85055  -0.84969  -0.82218  -0.81091  -0.77300
 Alpha  occ. eigenvalues --   -0.76407  -0.75370  -0.74555  -0.73522  -0.72912
 Alpha  occ. eigenvalues --   -0.71986  -0.70966  -0.70680  -0.69961  -0.69405
 Alpha  occ. eigenvalues --   -0.68849  -0.68426  -0.68136  -0.66054  -0.65750
 Alpha  occ. eigenvalues --   -0.64671  -0.63654  -0.62778  -0.62566  -0.61781
 Alpha  occ. eigenvalues --   -0.61296  -0.60574  -0.60197  -0.59437  -0.58874
 Alpha  occ. eigenvalues --   -0.58333  -0.57821  -0.57284  -0.57252  -0.56689
 Alpha  occ. eigenvalues --   -0.56083  -0.55881  -0.55415  -0.54975  -0.54508
 Alpha  occ. eigenvalues --   -0.54257  -0.53664  -0.53248  -0.52671  -0.52442
 Alpha  occ. eigenvalues --   -0.52421  -0.51804  -0.51417  -0.50998  -0.50322
 Alpha  occ. eigenvalues --   -0.49930  -0.49608  -0.49301  -0.48317  -0.47733
 Alpha  occ. eigenvalues --   -0.47060  -0.46701  -0.46383  -0.45891  -0.44819
 Alpha  occ. eigenvalues --   -0.44664  -0.44283  -0.44157  -0.43753  -0.42799
 Alpha  occ. eigenvalues --   -0.41816  -0.41630  -0.41186  -0.40935  -0.40196
 Alpha  occ. eigenvalues --   -0.40004  -0.39906  -0.38984  -0.38953  -0.36920
 Alpha  occ. eigenvalues --   -0.36474  -0.36137  -0.35709  -0.34886  -0.34142
 Alpha  occ. eigenvalues --   -0.33124  -0.32630  -0.32014  -0.27504  -0.27253
 Alpha  occ. eigenvalues --   -0.25014
 Alpha virt. eigenvalues --   -0.13231  -0.12046  -0.11381  -0.11111  -0.08632
 Alpha virt. eigenvalues --   -0.08234  -0.07156  -0.06302  -0.05073  -0.04843
 Alpha virt. eigenvalues --   -0.04551  -0.04457  -0.02039  -0.01313  -0.01075

 Mulliken charges:
               1
     1  N   -0.758998
     2  H    0.406973
     3  H    0.412346
     4  H    0.438147
     5  C   -0.115521
     6  H    0.200534
     7  C    0.657893
     8  C   -0.396142
     9  H    0.231842
    10  H    0.199990
    11  O   -0.523620
    12  C    0.642623
    13  N   -0.729177
    14  H    0.380853
    15  H    0.368859
    16  O   -0.533598
    17  N   -0.601867
    18  H    0.349431
    19  C   -0.072493
    20  H    0.207152
    21  C    0.655990
    22  C   -0.367559
    23  H    0.178183
    24  H    0.195334
    25  O   -0.595293
    26  C    0.172517
    27  C   -0.153635
    28  H    0.161027
    29  C   -0.202403
    30  H    0.135641
    31  C   -0.130840
    32  H    0.164127
    33  C   -0.196467
    34  H    0.155153
    35  C   -0.147111
    36  H    0.159967
    37  N   -0.610603
    38  H    0.392486
    39  C   -0.073153
    40  H    0.184429
    41  C    0.622692
    42  C   -0.414319
    43  H    0.190930
    44  H    0.200719
    45  O   -0.605281
    46  C    0.598628
    47  N   -0.753064
    48  H    0.344271
    49  H    0.409596
    50  O   -0.553945
    51  N   -0.615114
    52  H    0.378471
    53  C   -0.073509
    54  H    0.168360
    55  C    0.596215
    56  C   -0.302227
    57  H    0.204588
    58  H    0.129604
    59  O   -0.531083
    60  C   -0.271394
    61  H    0.166024
    62  H    0.179865
    63  C   -0.170996
    64  H    0.157604
    65  H    0.181479
    66  N   -0.627585
    67  H    0.427988
    68  N   -0.755348
    69  H    0.364194
    70  H    0.376872
    71  N   -0.790044
    72  H    0.350722
    73  H    0.429435
    74  C    0.773740
    75  O   -0.631101
 Sum of Mulliken charges =   1.00000

 Dipole moment (field-independent basis, Debye):
    X=            -22.0194    Y=             24.5211    Z=             11.4339  Tot=             34.8837
 Quadrupole moment (field-independent basis, Debye-Ang):
   XX=           -149.9531   YY=           -110.9686   ZZ=           -164.5677
   XY=             -9.0927   XZ=            -38.3442   YZ=             -0.5209

 Normal termination of Gaussian 16 at Tue Jun  7 03:12:58 2022.
