 Gaussian 16, Revision C.01,
 Gaussian 16:  ES64L-G16RevC.01  3-Jul-2019

 ----------------------------------------------------------------------
 # B3LYP/6-31G* empiricaldispersion=gd3 guess=read geom=check nosymm in
 tegral(ultrafinegrid)
 ----------------------------------------------------------------------

 ------------------------------------------------------
 Candidate Structure: Conf:950 Charge calc in gas phase
 ------------------------------------------------------
 Structure from the checkpoint file:  "conf-950.chk"
 Charge =  1 Multiplicity = 1

                          Input orientation:
 ---------------------------------------------------------------------
 Center     Atomic      Atomic             Coordinates (Angstroms)
 Number     Number       Type             X           Y           Z
 ---------------------------------------------------------------------
      1          7           0       -4.368182   -2.940840    3.229922
      2          1           0       -4.072664   -3.276347    2.267914
      3          1           0       -3.754985   -3.366356    3.951423
      4          1           0       -5.342622   -3.206019    3.392472
      5          6           0       -4.164050   -1.444678    3.108506
      6          1           0       -5.062543   -0.943351    3.474341
      7          6           0       -3.987482   -1.230763    1.580820
      8          6           0       -2.920156   -0.942726    3.900348
      9          1           0       -2.531064   -0.052157    3.394996
     10          1           0       -3.225847   -0.681606    4.918966
     11          8           0       -3.729896   -2.219907    0.892608
     12          6           0       -1.789906   -1.974031    3.925513
     13          7           0       -1.955804   -2.954051    4.909927
     14          1           0       -1.174040   -3.601688    4.978138
     15          1           0       -2.300441   -2.652072    5.817029
     16          8           0       -0.911500   -2.036376    3.092133
     17          7           0       -4.129440    0.029795    1.139657
     18          1           0       -4.157927    0.744106    1.860264
     19          6           0       -3.384441    0.478511   -0.049742
     20          1           0       -3.438752   -0.318603   -0.793215
     21          6           0       -1.927219    0.686386    0.427233
     22          6           0       -4.004182    1.777698   -0.609178
     23          1           0       -5.044157    1.567847   -0.884527
     24          1           0       -4.021260    2.528261    0.191571
     25          8           0       -1.710541    0.934564    1.622465
     26          6           0       -3.219565    2.298789   -1.793664
     27          6           0       -2.309305    3.351370   -1.643520
     28          1           0       -2.206920    3.839314   -0.676839
     29          6           0       -3.330518    1.669332   -3.040469
     30          1           0       -4.037807    0.852058   -3.169650
     31          6           0       -1.523090    3.767410   -2.718368
     32          1           0       -0.817923    4.583355   -2.588884
     33          6           0       -2.543865    2.082474   -4.115933
     34          1           0       -2.636050    1.583810   -5.076259
     35          6           0       -1.639044    3.132669   -3.955335
     36          1           0       -1.024750    3.452913   -4.790796
     37          7           0       -0.971382    0.557064   -0.494865
     38          1           0       -1.168102    0.505261   -1.494643
     39          6           0        0.433881    0.756103   -0.178411
     40          1           0        0.550764    1.678510    0.400720
     41          6           0        1.152385    0.904466   -1.538118
     42          6           0        0.961191   -0.429041    0.665588
     43          1           0        1.374984   -1.208014    0.013283
     44          1           0        0.125858   -0.866955    1.214470
     45          8           0        0.505040    0.824589   -2.589643
     46          6           0        2.044849    0.009828    1.643173
     47          7           0        2.123912   -0.725354    2.781514
     48          1           0        2.877546   -0.528275    3.425291
     49          1           0        1.480971   -1.478192    2.979604
     50          8           0        2.791582    0.959471    1.417600
     51          7           0        2.476519    1.099702   -1.467019
     52          1           0        2.931716    1.096637   -0.550667
     53          6           0        3.316971    1.120045   -2.652300
     54          1           0        2.773598    0.608538   -3.450282
     55          6           0        4.589080    0.314650   -2.374306
     56          6           0        3.646947    2.562603   -3.104577
     57          1           0        3.981688    3.131922   -2.229683
     58          1           0        4.487999    2.535810   -3.803606
     59          8           0        5.295142    0.012293   -3.466028
     60          6           0        2.453892    3.251574   -3.775756
     61          1           0        1.567077    3.188783   -3.134929
     62          1           0        2.680458    4.320575   -3.899718
     63          6           0        2.087950    2.656033   -5.142670
     64          1           0        1.823281    1.601623   -5.046938
     65          1           0        1.202047    3.173927   -5.531960
     66          7           0        3.136041    2.757615   -6.149780
     67          1           0        3.380812    3.681379   -6.477548
     68          7           0        4.036306    0.616287   -5.907610
     69          1           0        4.526037   -0.086468   -6.461176
     70          1           0        4.803104    0.297040   -4.291245
     71          7           0        4.662497    2.057634   -7.712860
     72          1           0        5.280900    1.339759   -8.065847
     73          1           0        4.163925    2.557529   -8.439345
     74          6           0        3.947029    1.735277   -6.562695
     75          8           0        4.935168   -0.005306   -1.259043
 ---------------------------------------------------------------------

 SCF Done:  E(RB3LYP) =  -1917.45027420     A.U. after    1 cycles

 Alpha  occ. eigenvalues --  -19.28176 -19.27777 -19.21145 -19.20846 -19.18373
 Alpha  occ. eigenvalues --  -19.18148 -19.16270 -14.60568 -14.51387 -14.50100
 Alpha  occ. eigenvalues --  -14.44290 -14.42590 -14.41510 -14.41473 -14.41068
 Alpha  occ. eigenvalues --  -14.35659 -10.44943 -10.44633 -10.42793 -10.38036
 Alpha  occ. eigenvalues --  -10.36020 -10.35720 -10.35610 -10.35124 -10.34686
 Alpha  occ. eigenvalues --  -10.34512 -10.30845 -10.29431 -10.27879 -10.27601
 Alpha  occ. eigenvalues --  -10.27539 -10.26691 -10.26465 -10.26349 -10.26144
 Alpha  occ. eigenvalues --  -10.26104 -10.25949 -10.24056 -10.23984  -1.20564
 Alpha  occ. eigenvalues --   -1.19399  -1.14778  -1.13037  -1.12239  -1.10224
 Alpha  occ. eigenvalues --   -1.09768  -1.06863  -1.05785  -1.04464  -1.04186
 Alpha  occ. eigenvalues --   -1.01043  -0.98130  -0.97299  -0.95241  -0.95015
 Alpha  occ. eigenvalues --   -0.93341  -0.90821  -0.89124  -0.86045  -0.84806
 Alpha  occ. eigenvalues --   -0.84240  -0.81705  -0.81545  -0.79244  -0.76573
 Alpha  occ. eigenvalues --   -0.75407  -0.74692  -0.73982  -0.73362  -0.72998
 Alpha  occ. eigenvalues --   -0.71901  -0.68592  -0.68138  -0.67509  -0.66859
 Alpha  occ. eigenvalues --   -0.66509  -0.66100  -0.65640  -0.64811  -0.64543
 Alpha  occ. eigenvalues --   -0.63933  -0.63011  -0.62088  -0.61265  -0.60712
 Alpha  occ. eigenvalues --   -0.60227  -0.60056  -0.59153  -0.58847  -0.58544
 Alpha  occ. eigenvalues --   -0.58083  -0.57039  -0.56970  -0.55466  -0.54421
 Alpha  occ. eigenvalues --   -0.54299  -0.53951  -0.53597  -0.53139  -0.52848
 Alpha  occ. eigenvalues --   -0.52708  -0.52413  -0.52293  -0.51975  -0.51418
 Alpha  occ. eigenvalues --   -0.50598  -0.50118  -0.49324  -0.49257  -0.49046
 Alpha  occ. eigenvalues --   -0.48670  -0.48303  -0.47732  -0.46812  -0.46728
 Alpha  occ. eigenvalues --   -0.46116  -0.45826  -0.44957  -0.44376  -0.44022
 Alpha  occ. eigenvalues --   -0.43659  -0.43153  -0.42948  -0.42598  -0.42420
 Alpha  occ. eigenvalues --   -0.41745  -0.41431  -0.41390  -0.40733  -0.40541
 Alpha  occ. eigenvalues --   -0.40148  -0.39659  -0.38966  -0.35311  -0.34819
 Alpha  occ. eigenvalues --   -0.34122  -0.33687  -0.33630  -0.32639  -0.32222
 Alpha  occ. eigenvalues --   -0.32066  -0.31963  -0.31769  -0.31118  -0.29866
 Alpha  occ. eigenvalues --   -0.29090
 Alpha virt. eigenvalues --   -0.15208  -0.13793  -0.10981  -0.07950  -0.07704
 Alpha virt. eigenvalues --   -0.07424  -0.06845  -0.05990  -0.04030  -0.03587
 Alpha virt. eigenvalues --   -0.03257  -0.02454  -0.02003  -0.01687  -0.01587

 Mulliken charges:
               1
     1  N   -0.773978
     2  H    0.434599
     3  H    0.420147
     4  H    0.416183
     5  C   -0.119806
     6  H    0.222834
     7  C    0.653455
     8  C   -0.393810
     9  H    0.281864
    10  H    0.183807
    11  O   -0.510960
    12  C    0.534995
    13  N   -0.761390
    14  H    0.373179
    15  H    0.361547
    16  O   -0.415923
    17  N   -0.560633
    18  H    0.348082
    19  C   -0.095499
    20  H    0.204708
    21  C    0.640878
    22  C   -0.362740
    23  H    0.177167
    24  H    0.157397
    25  O   -0.571166
    26  C    0.144538
    27  C   -0.177489
    28  H    0.135922
    29  C   -0.195673
    30  H    0.130330
    31  C   -0.125792
    32  H    0.145201
    33  C   -0.114233
    34  H    0.147085
    35  C   -0.108469
    36  H    0.143534
    37  N   -0.613998
    38  H    0.378260
    39  C   -0.028887
    40  H    0.202998
    41  C    0.596381
    42  C   -0.410472
    43  H    0.196891
    44  H    0.199031
    45  O   -0.558979
    46  C    0.639206
    47  N   -0.764006
    48  H    0.351196
    49  H    0.351544
    50  O   -0.513861
    51  N   -0.616219
    52  H    0.397691
    53  C   -0.103258
    54  H    0.201309
    55  C    0.601275
    56  C   -0.261241
    57  H    0.156403
    58  H    0.158526
    59  O   -0.614107
    60  C   -0.274550
    61  H    0.160765
    62  H    0.129417
    63  C   -0.143799
    64  H    0.204287
    65  H    0.142093
    66  N   -0.593755
    67  H    0.329264
    68  N   -0.725399
    69  H    0.292014
    70  H    0.464750
    71  N   -0.760040
    72  H    0.338051
    73  H    0.335208
    74  C    0.654644
    75  O   -0.468528
 Sum of Mulliken charges =   1.00000

 Dipole moment (field-independent basis, Debye):
    X=            -18.3348    Y=             -5.5124    Z=              8.7357  Tot=             21.0443
 Quadrupole moment (field-independent basis, Debye-Ang):
   XX=           -156.7400   YY=           -176.0051   ZZ=            -57.9300
   XY=             45.2188   XZ=            -92.1181   YZ=            -77.7154

 Normal termination of Gaussian 16 at Tue May 31 12:09:46 2022.
