 Gaussian 16, Revision C.01,
 Gaussian 16:  ES64L-G16RevC.01  3-Jul-2019

 ----------------------------------------------------------------------
 # B3LYP/6-31G* empiricaldispersion=gd3 guess=read geom=check nosymm in
 tegral(ultrafinegrid)
 ----------------------------------------------------------------------

 ------------------------------------------------------
 Candidate Structure: Conf:669 Charge calc in gas phase
 ------------------------------------------------------
 Structure from the checkpoint file:  "conf-669.chk"
 Charge =  1 Multiplicity = 1

                          Input orientation:
 ---------------------------------------------------------------------
 Center     Atomic      Atomic             Coordinates (Angstroms)
 Number     Number       Type             X           Y           Z
 ---------------------------------------------------------------------
      1          7           0       -4.148197    3.817098    2.474450
      2          1           0       -4.673276    2.943292    2.691127
      3          1           0       -3.382923    3.970573    3.198627
      4          1           0       -4.767520    4.626676    2.414974
      5          6           0       -3.411387    3.512950    1.192630
      6          1           0       -4.062706    3.764469    0.349723
      7          6           0       -3.278619    1.967770    1.219330
      8          6           0       -2.097915    4.305138    1.138878
      9          1           0       -1.600798    4.131803    0.182562
     10          1           0       -2.315688    5.377637    1.208295
     11          8           0       -4.126576    1.333097    1.856906
     12          6           0       -1.227346    3.915621    2.335117
     13          7           0        0.019254    3.512403    2.077981
     14          1           0        0.535228    3.107497    2.850089
     15          1           0        0.273654    3.230340    1.126594
     16          8           0       -1.718899    3.982603    3.479343
     17          7           0       -2.264856    1.455029    0.526386
     18          1           0       -1.584626    2.047213    0.032380
     19          6           0       -2.105566    0.027381    0.319005
     20          1           0       -2.768975   -0.476743    1.028184
     21          6           0       -0.639858   -0.313531    0.667963
     22          6           0       -2.513468   -0.346340   -1.142021
     23          1           0       -1.685799   -0.090721   -1.812121
     24          1           0       -2.682080   -1.429589   -1.194165
     25          8           0        0.014334    0.398007    1.428683
     26          6           0       -3.756059    0.398823   -1.575882
     27          6           0       -5.032493   -0.047825   -1.217710
     28          1           0       -5.141901   -0.981583   -0.671058
     29          6           0       -3.628472    1.612656   -2.268205
     30          1           0       -2.633621    1.961268   -2.538224
     31          6           0       -6.165079    0.700918   -1.542606
     32          1           0       -7.149932    0.339404   -1.260507
     33          6           0       -4.760381    2.364351   -2.590368
     34          1           0       -4.651546    3.299556   -3.134651
     35          6           0       -6.032089    1.910960   -2.226967
     36          1           0       -6.913958    2.491656   -2.483756
     37          7           0       -0.110827   -1.410039    0.058563
     38          1           0       -0.638706   -1.853878   -0.681323
     39          6           0        1.343932   -1.626608    0.014855
     40          1           0        1.746387   -1.364260    0.995740
     41          6           0        1.861594   -0.665496   -1.088068
     42          6           0        1.661634   -3.087028   -0.302732
     43          1           0        1.294489   -3.332943   -1.304604
     44          1           0        1.166511   -3.724111    0.433653
     45          8           0        1.984292   -1.047665   -2.250936
     46          6           0        3.170077   -3.334156   -0.178947
     47          7           0        3.860399   -3.269525   -1.356296
     48          1           0        4.869924   -3.286357   -1.291410
     49          1           0        3.442259   -2.796323   -2.147437
     50          8           0        3.688490   -3.560071    0.903128
     51          7           0        2.064168    0.610518   -0.647129
     52          1           0        1.744648    0.770220    0.305483
     53          6           0        2.000709    1.822473   -1.491261
     54          1           0        2.430424    2.626799   -0.884263
     55          6           0        0.476724    2.126810   -1.634151
     56          6           0        2.819067    1.677610   -2.779945
     57          1           0        3.792127    1.259652   -2.500878
     58          1           0        2.348386    0.933732   -3.422948
     59          8           0       -0.158378    1.669042   -2.625793
     60          6           0        3.067254    2.983514   -3.554599
     61          1           0        3.549794    3.733665   -2.914925
     62          1           0        3.781178    2.759685   -4.358395
     63          6           0        1.807136    3.626756   -4.165527
     64          1           0        1.193510    4.090194   -3.388418
     65          1           0        2.063306    4.423577   -4.872936
     66          7           0        0.935244    2.642633   -4.812973
     67          1           0        0.384301    2.103520   -4.100158
     68          7           0        2.005251    2.576354   -6.894785
     69          1           0        1.867480    2.486748   -7.891582
     70          1           0        2.712793    3.229066   -6.593441
     71          7           0        0.125040    1.286249   -6.495183
     72          1           0        0.388676    0.640653   -7.226901
     73          1           0       -0.579994    0.954622   -5.849446
     74          6           0        1.038130    2.178534   -6.041074
     75          8           0       -0.043692    2.736764   -0.657310
 ---------------------------------------------------------------------

 SCF Done:  E(RB3LYP) =  -1917.49565116     A.U. after    1 cycles

 Alpha  occ. eigenvalues --  -19.22546 -19.22343 -19.21119 -19.20558 -19.20483
 Alpha  occ. eigenvalues --  -19.20473 -19.16790 -14.54499 -14.51234 -14.50507
 Alpha  occ. eigenvalues --  -14.49107 -14.45703 -14.45490 -14.44509 -14.44407
 Alpha  occ. eigenvalues --  -14.40953 -10.46819 -10.39729 -10.39559 -10.38340
 Alpha  occ. eigenvalues --  -10.38111 -10.37502 -10.37413 -10.34757 -10.34710
 Alpha  occ. eigenvalues --  -10.32823 -10.32083 -10.31955 -10.31358 -10.29839
 Alpha  occ. eigenvalues --  -10.28163 -10.27689 -10.27435 -10.26724 -10.26611
 Alpha  occ. eigenvalues --  -10.26539 -10.26458 -10.26405 -10.26232  -1.15382
 Alpha  occ. eigenvalues --   -1.15226  -1.13776  -1.13624  -1.13117  -1.11933
 Alpha  occ. eigenvalues --   -1.08983  -1.08673  -1.05240  -1.04029  -1.03806
 Alpha  occ. eigenvalues --   -1.02924  -1.02028  -1.00779  -1.00049  -0.95876
 Alpha  occ. eigenvalues --   -0.93223  -0.90578  -0.90254  -0.87694  -0.85769
 Alpha  occ. eigenvalues --   -0.84157  -0.81976  -0.81870  -0.79491  -0.79007
 Alpha  occ. eigenvalues --   -0.76797  -0.74984  -0.73800  -0.72869  -0.71269
 Alpha  occ. eigenvalues --   -0.70531  -0.69908  -0.69756  -0.68545  -0.68073
 Alpha  occ. eigenvalues --   -0.67658  -0.66407  -0.65929  -0.65733  -0.64635
 Alpha  occ. eigenvalues --   -0.64210  -0.63528  -0.63370  -0.62662  -0.61666
 Alpha  occ. eigenvalues --   -0.61065  -0.60107  -0.58921  -0.58813  -0.58518
 Alpha  occ. eigenvalues --   -0.58071  -0.57801  -0.57281  -0.56897  -0.56238
 Alpha  occ. eigenvalues --   -0.55950  -0.55625  -0.54839  -0.54607  -0.53600
 Alpha  occ. eigenvalues --   -0.53161  -0.52732  -0.52407  -0.51768  -0.51528
 Alpha  occ. eigenvalues --   -0.51375  -0.50635  -0.50318  -0.49845  -0.49504
 Alpha  occ. eigenvalues --   -0.49365  -0.48943  -0.48287  -0.48235  -0.47708
 Alpha  occ. eigenvalues --   -0.47484  -0.47427  -0.46875  -0.46579  -0.45770
 Alpha  occ. eigenvalues --   -0.45520  -0.45171  -0.44389  -0.44231  -0.43652
 Alpha  occ. eigenvalues --   -0.43265  -0.42712  -0.42229  -0.41819  -0.41455
 Alpha  occ. eigenvalues --   -0.39281  -0.37781  -0.37660  -0.37063  -0.36558
 Alpha  occ. eigenvalues --   -0.36179  -0.35956  -0.35629  -0.34915  -0.34360
 Alpha  occ. eigenvalues --   -0.33080  -0.32553  -0.32432  -0.32057  -0.31932
 Alpha  occ. eigenvalues --   -0.30401
 Alpha virt. eigenvalues --   -0.11268  -0.09418  -0.09319  -0.08007  -0.07860
 Alpha virt. eigenvalues --   -0.07615  -0.07498  -0.06724  -0.05226  -0.04938
 Alpha virt. eigenvalues --   -0.03970  -0.03219  -0.01843  -0.00655  -0.00269

 Mulliken charges:
               1
     1  N   -0.759034
     2  H    0.418959
     3  H    0.438133
     4  H    0.393904
     5  C   -0.131761
     6  H    0.225904
     7  C    0.659731
     8  C   -0.416274
     9  H    0.226584
    10  H    0.192773
    11  O   -0.546550
    12  C    0.622147
    13  N   -0.736386
    14  H    0.360678
    15  H    0.399074
    16  O   -0.554463
    17  N   -0.614131
    18  H    0.414316
    19  C   -0.064497
    20  H    0.219418
    21  C    0.626255
    22  C   -0.416072
    23  H    0.190192
    24  H    0.155139
    25  O   -0.538125
    26  C    0.154330
    27  C   -0.162958
    28  H    0.137116
    29  C   -0.210046
    30  H    0.157721
    31  C   -0.132727
    32  H    0.146846
    33  C   -0.152107
    34  H    0.130314
    35  C   -0.136079
    36  H    0.141003
    37  N   -0.602929
    38  H    0.348741
    39  C   -0.069397
    40  H    0.207084
    41  C    0.617171
    42  C   -0.362801
    43  H    0.160262
    44  H    0.190668
    45  O   -0.542633
    46  C    0.560906
    47  N   -0.736308
    48  H    0.340944
    49  H    0.355843
    50  O   -0.490857
    51  N   -0.614588
    52  H    0.368864
    53  C   -0.019746
    54  H    0.151689
    55  C    0.602098
    56  C   -0.287574
    57  H    0.168263
    58  H    0.179265
    59  O   -0.597211
    60  C   -0.284169
    61  H    0.167495
    62  H    0.145278
    63  C   -0.194338
    64  H    0.200262
    65  H    0.166847
    66  N   -0.592337
    67  H    0.420806
    68  N   -0.756978
    69  H    0.378124
    70  H    0.382031
    71  N   -0.753500
    72  H    0.372824
    73  H    0.387679
    74  C    0.780825
    75  O   -0.587929
 Sum of Mulliken charges =   1.00000

 Dipole moment (field-independent basis, Debye):
    X=             -4.8627    Y=             15.9475    Z=            -18.1006  Tot=             24.6090
 Quadrupole moment (field-independent basis, Debye-Ang):
   XX=           -163.9354   YY=           -163.9047   ZZ=            -96.4491
   XY=            -12.5600   XZ=            -51.7270   YZ=            -20.5193

 Normal termination of Gaussian 16 at Tue May 31 12:09:36 2022.
