 Gaussian 16, Revision C.01,
 Gaussian 16:  ES64L-G16RevC.01  3-Jul-2019

 -------------------------------------------------------------------
 # B3LYP/6-31G* guess=read geom=check nosymm integral(ultrafinegrid)
 -------------------------------------------------------------------

 ------------------------------------------------------
 Candidate Structure: Conf:197 Charge calc in gas phase
 ------------------------------------------------------
 Structure from the checkpoint file:  "conf-197.chk"
 Charge =  1 Multiplicity = 1

                          Input orientation:
 ---------------------------------------------------------------------
 Center     Atomic      Atomic             Coordinates (Angstroms)
 Number     Number       Type             X           Y           Z
 ---------------------------------------------------------------------
      1          7           0       -5.546648   -0.695009    4.222779
      2          1           0       -6.444465   -0.222822    4.084935
      3          1           0       -5.501721   -1.484296    3.544264
      4          1           0       -5.428169   -0.967193    5.237255
      5          6           0       -4.383617    0.189311    3.862333
      6          1           0       -4.662531    1.223645    4.076472
      7          6           0       -4.148252   -0.061451    2.350891
      8          6           0       -3.138649   -0.225708    4.674039
      9          1           0       -2.823839   -1.228974    4.355710
     10          1           0       -2.319948    0.455019    4.421319
     11          8           0       -4.591841   -1.107207    1.872216
     12          6           0       -3.401758   -0.281419    6.180535
     13          7           0       -2.410660    0.125968    6.987777
     14          1           0       -2.533183    0.040147    7.989802
     15          1           0       -1.527541    0.472658    6.640765
     16          8           0       -4.478792   -0.715834    6.616041
     17          7           0       -3.441608    0.881426    1.725919
     18          1           0       -2.944043    1.593149    2.265852
     19          6           0       -2.850310    0.737389    0.398560
     20          1           0       -2.869779   -0.322305    0.127833
     21          6           0       -1.394238    1.241960    0.571040
     22          6           0       -3.610926    1.568938   -0.669553
     23          1           0       -3.491472    2.630905   -0.424473
     24          1           0       -3.109367    1.410089   -1.631606
     25          8           0       -1.087343    1.866358    1.596104
     26          6           0       -5.080439    1.221947   -0.776424
     27          6           0       -6.052020    2.048447   -0.197899
     28          1           0       -5.744931    2.961625    0.307694
     29          6           0       -5.497952    0.064428   -1.447442
     30          1           0       -4.759397   -0.584726   -1.913151
     31          6           0       -7.408590    1.728154   -0.285946
     32          1           0       -8.150036    2.390873    0.152903
     33          6           0       -6.850998   -0.260471   -1.535500
     34          1           0       -7.156764   -1.157666   -2.066428
     35          6           0       -7.811162    0.570927   -0.953853
     36          1           0       -8.866309    0.324212   -1.032787
     37          7           0       -0.560289    0.978431   -0.438465
     38          1           0       -0.848428    0.472678   -1.276283
     39          6           0        0.819785    1.439700   -0.513652
     40          1           0        0.878463    2.491754   -0.219512
     41          6           0        1.228767    1.245160   -1.988778
     42          6           0        1.749185    0.629406    0.418922
     43          1           0        1.856059   -0.395860    0.056232
     44          1           0        1.282928    0.603318    1.411215
     45          8           0        0.533039    0.551703   -2.733331
     46          6           0        3.110343    1.302090    0.591029
     47          7           0        4.154444    0.455512    0.832258
     48          1           0        5.055431    0.922115    0.848316
     49          1           0        4.151039   -0.401181    0.285234
     50          8           0        3.222204    2.527813    0.583662
     51          7           0        2.373903    1.861500   -2.365791
     52          1           0        2.896501    2.308321   -1.617191
     53          6           0        3.163523    1.319956   -3.469227
     54          1           0        2.434957    0.971345   -4.208281
     55          6           0        3.937720    0.027985   -3.003695
     56          6           0        4.051230    2.434787   -4.099643
     57          1           0        3.848814    3.361001   -3.552660
     58          1           0        5.112509    2.211371   -3.935728
     59          8           0        3.691966   -0.440445   -1.887970
     60          6           0        3.795267    2.719673   -5.602534
     61          1           0        2.739857    2.529332   -5.832365
     62          1           0        3.971226    3.782089   -5.808789
     63          6           0        4.682476    1.933301   -6.586043
     64          1           0        4.302617    2.069045   -7.606712
     65          1           0        5.705408    2.332675   -6.562378
     66          7           0        4.721462    0.521035   -6.236037
     67          1           0        4.778525    0.254595   -5.182055
     68          7           0        4.777521   -0.476410   -8.371318
     69          1           0        4.371075   -1.220347   -8.920685
     70          1           0        4.847852    0.421771   -8.825255
     71          7           0        4.506138   -1.749286   -6.440292
     72          1           0        4.910359   -2.554967   -6.897726
     73          1           0        4.525906   -1.745385   -5.415530
     74          6           0        4.672726   -0.533190   -7.019067
     75          8           0        4.747977   -0.455716   -3.875045
 ---------------------------------------------------------------------

 SCF Done:  E(RB3LYP) =  -1917.37674227     A.U. after    2 cycles

 Alpha  occ. eigenvalues --  -19.26312 -19.24949 -19.20631 -19.17961 -19.17053
 Alpha  occ. eigenvalues --  -19.15135 -19.14000 -14.57095 -14.49674 -14.47814
 Alpha  occ. eigenvalues --  -14.46618 -14.44277 -14.43951 -14.43558 -14.40920
 Alpha  occ. eigenvalues --  -14.39596 -10.43895 -10.42059 -10.41463 -10.40120
 Alpha  occ. eigenvalues --  -10.37622 -10.35292 -10.34738 -10.34393 -10.33372
 Alpha  occ. eigenvalues --  -10.32419 -10.31072 -10.30045 -10.28210 -10.27659
 Alpha  occ. eigenvalues --  -10.27167 -10.26312 -10.26246 -10.26121 -10.26059
 Alpha  occ. eigenvalues --  -10.25954 -10.25896 -10.25473 -10.25358  -1.18207
 Alpha  occ. eigenvalues --   -1.17104  -1.12517  -1.11619  -1.10172  -1.09782
 Alpha  occ. eigenvalues --   -1.08552  -1.07587  -1.04681  -1.04604  -1.00517
 Alpha  occ. eigenvalues --   -1.00176  -0.98805  -0.98161  -0.97603  -0.94940
 Alpha  occ. eigenvalues --   -0.93527  -0.92689  -0.88145  -0.86513  -0.84496
 Alpha  occ. eigenvalues --   -0.83205  -0.81468  -0.80712  -0.80148  -0.75533
 Alpha  occ. eigenvalues --   -0.74804  -0.74080  -0.73395  -0.72396  -0.71657
 Alpha  occ. eigenvalues --   -0.70335  -0.69826  -0.67634  -0.67479  -0.67156
 Alpha  occ. eigenvalues --   -0.66926  -0.66598  -0.66032  -0.64801  -0.64090
 Alpha  occ. eigenvalues --   -0.63149  -0.62718  -0.61933  -0.61358  -0.59620
 Alpha  occ. eigenvalues --   -0.59323  -0.58480  -0.58023  -0.57864  -0.57604
 Alpha  occ. eigenvalues --   -0.57389  -0.56919  -0.56619  -0.56174  -0.55341
 Alpha  occ. eigenvalues --   -0.54535  -0.54121  -0.53910  -0.53031  -0.52839
 Alpha  occ. eigenvalues --   -0.52564  -0.52081  -0.51544  -0.51282  -0.50789
 Alpha  occ. eigenvalues --   -0.50184  -0.50035  -0.49649  -0.49336  -0.49017
 Alpha  occ. eigenvalues --   -0.48581  -0.47997  -0.47433  -0.47194  -0.46466
 Alpha  occ. eigenvalues --   -0.45905  -0.45698  -0.45492  -0.44672  -0.44393
 Alpha  occ. eigenvalues --   -0.43158  -0.42741  -0.41887  -0.41826  -0.41501
 Alpha  occ. eigenvalues --   -0.41397  -0.41101  -0.40917  -0.40901  -0.40596
 Alpha  occ. eigenvalues --   -0.39487  -0.39287  -0.37779  -0.37331  -0.35008
 Alpha  occ. eigenvalues --   -0.34158  -0.34043  -0.33320  -0.32739  -0.32080
 Alpha  occ. eigenvalues --   -0.31784  -0.31506  -0.30320  -0.30119  -0.28590
 Alpha  occ. eigenvalues --   -0.27950
 Alpha virt. eigenvalues --   -0.11975  -0.10693  -0.08304  -0.07937  -0.07182
 Alpha virt. eigenvalues --   -0.06317  -0.05843  -0.04224  -0.04100  -0.03308
 Alpha virt. eigenvalues --   -0.03037  -0.02854  -0.01374  -0.00263  -0.00192

 Mulliken charges:
               1
     1  N   -0.753795
     2  H    0.410055
     3  H    0.416644
     4  H    0.441734
     5  C   -0.125929
     6  H    0.216263
     7  C    0.647196
     8  C   -0.405562
     9  H    0.227494
    10  H    0.212840
    11  O   -0.520883
    12  C    0.645622
    13  N   -0.726158
    14  H    0.381103
    15  H    0.373675
    16  O   -0.535915
    17  N   -0.586772
    18  H    0.361224
    19  C   -0.084502
    20  H    0.196253
    21  C    0.640295
    22  C   -0.365860
    23  H    0.165806
    24  H    0.178538
    25  O   -0.561362
    26  C    0.181687
    27  C   -0.196040
    28  H    0.124233
    29  C   -0.169318
    30  H    0.132820
    31  C   -0.137343
    32  H    0.137877
    33  C   -0.127470
    34  H    0.145439
    35  C   -0.131930
    36  H    0.143579
    37  N   -0.628294
    38  H    0.363927
    39  C   -0.055505
    40  H    0.205051
    41  C    0.622253
    42  C   -0.345435
    43  H    0.183496
    44  H    0.185337
    45  O   -0.547235
    46  C    0.576989
    47  N   -0.728282
    48  H    0.333674
    49  H    0.370823
    50  O   -0.524055
    51  N   -0.609449
    52  H    0.355440
    53  C   -0.076912
    54  H    0.183214
    55  C    0.611298
    56  C   -0.317361
    57  H    0.167657
    58  H    0.166448
    59  O   -0.553892
    60  C   -0.274306
    61  H    0.160378
    62  H    0.157167
    63  C   -0.153879
    64  H    0.142346
    65  H    0.178082
    66  N   -0.621667
    67  H    0.451020
    68  N   -0.757782
    69  H    0.365157
    70  H    0.366774
    71  N   -0.773470
    72  H    0.351675
    73  H    0.401119
    74  C    0.753026
    75  O   -0.636363
 Sum of Mulliken charges =   1.00000

 Dipole moment (field-independent basis, Debye):
    X=             -8.7070    Y=              0.0922    Z=              0.7166  Tot=              8.7369
 Quadrupole moment (field-independent basis, Debye-Ang):
   XX=           -101.0601   YY=           -217.0294   ZZ=              8.5021
   XY=             -2.7388   XZ=           -135.2279   YZ=              0.5767

 Normal termination of Gaussian 16 at Tue Jun  7 03:13:05 2022.
