 Gaussian 16, Revision C.01,
 Gaussian 16:  ES64L-G16RevC.01  3-Jul-2019

 -------------------------------------------------------------------
 # B3LYP/6-31G* guess=read geom=check nosymm integral(ultrafinegrid)
 -------------------------------------------------------------------

 ------------------------------------------------------
 Candidate Structure: Conf:315 Charge calc in gas phase
 ------------------------------------------------------
 Structure from the checkpoint file:  "conf-315.chk"
 Charge =  1 Multiplicity = 1

                          Input orientation:
 ---------------------------------------------------------------------
 Center     Atomic      Atomic             Coordinates (Angstroms)
 Number     Number       Type             X           Y           Z
 ---------------------------------------------------------------------
      1          7           0       -3.329930   -2.664001    4.091192
      2          1           0       -4.182213   -3.222365    4.190584
      3          1           0       -2.864719   -2.890403    3.145880
      4          1           0       -2.705195   -2.878550    4.872225
      5          6           0       -3.607907   -1.187197    3.912033
      6          1           0       -4.643851   -0.977159    4.180565
      7          6           0       -3.338318   -0.992673    2.391216
      8          6           0       -2.648411   -0.339279    4.765996
      9          1           0       -2.562444   -0.765023    5.775128
     10          1           0       -1.653538   -0.313459    4.307244
     11          8           0       -2.758874   -1.921952    1.805405
     12          6           0       -3.174988    1.098436    4.893594
     13          7           0       -2.432996    1.918980    5.663546
     14          1           0       -2.708737    2.890868    5.725375
     15          1           0       -1.515333    1.665970    6.001563
     16          8           0       -4.226780    1.446613    4.357237
     17          7           0       -3.713689    0.162694    1.857165
     18          1           0       -4.103377    0.846347    2.507275
     19          6           0       -3.072692    0.661415    0.644435
     20          1           0       -3.143642   -0.116115   -0.122158
     21          6           0       -1.573709    0.923804    0.974599
     22          6           0       -3.786020    1.945499    0.160266
     23          1           0       -3.655253    2.723533    0.923307
     24          1           0       -3.260152    2.297487   -0.733823
     25          8           0       -1.172999    0.958260    2.143064
     26          6           0       -5.257788    1.743307   -0.135723
     27          6           0       -6.235852    2.172986    0.769754
     28          1           0       -5.937320    2.683277    1.683670
     29          6           0       -5.665702    1.107940   -1.316705
     30          1           0       -4.920393    0.781787   -2.039631
     31          6           0       -7.591730    1.968685    0.505275
     32          1           0       -8.338001    2.315872    1.214586
     33          6           0       -7.018754    0.901730   -1.583276
     34          1           0       -7.318612    0.414559   -2.506901
     35          6           0       -7.986037    1.330905   -0.671192
     36          1           0       -9.040482    1.176712   -0.881908
     37          7           0       -0.794960    1.127879   -0.097346
     38          1           0       -1.136931    1.040993   -1.054265
     39          6           0        0.632718    1.402226   -0.045259
     40          1           0        0.816184    2.181465    0.702284
     41          6           0        1.007114    1.910789   -1.457202
     42          6           0        1.435698    0.118389    0.325613
     43          1           0        1.081613   -0.704654   -0.298600
     44          1           0        1.228753   -0.116624    1.375330
     45          8           0        0.308235    1.594717   -2.424508
     46          6           0        2.935106    0.263258    0.053844
     47          7           0        3.640012    1.022088    0.955826
     48          1           0        4.486325    1.451797    0.591597
     49          1           0        3.144803    1.565045    1.650568
     50          8           0        3.453409   -0.244410   -0.927114
     51          7           0        2.114332    2.666784   -1.509632
     52          1           0        2.693006    2.815737   -0.680437
     53          6           0        2.909026    2.889761   -2.715031
     54          1           0        2.883956    1.976337   -3.320371
     55          6           0        4.376776    3.100975   -2.203972
     56          6           0        2.318236    4.064844   -3.553472
     57          1           0        1.239020    4.023252   -3.384212
     58          1           0        2.656936    5.022855   -3.136115
     59          8           0        5.277357    3.137176   -3.107070
     60          6           0        2.545316    4.024926   -5.089449
     61          1           0        2.837174    3.014554   -5.402897
     62          1           0        1.596502    4.230636   -5.597581
     63          6           0        3.564890    5.027499   -5.651020
     64          1           0        3.578487    4.955524   -6.747252
     65          1           0        3.277976    6.054702   -5.387592
     66          7           0        4.887012    4.728580   -5.103398
     67          1           0        4.943442    3.887792   -4.467817
     68          7           0        5.926362    6.775581   -5.531333
     69          1           0        6.649185    7.445538   -5.315580
     70          1           0        5.465979    6.868628   -6.424199
     71          7           0        6.745111    5.314838   -3.897883
     72          1           0        7.651748    5.755901   -3.867469
     73          1           0        6.542790    4.481863   -3.319782
     74          6           0        5.855544    5.601514   -4.859353
     75          8           0        4.551590    3.216808   -0.977952
 ---------------------------------------------------------------------

 SCF Done:  E(RB3LYP) =  -1917.35987735     A.U. after    2 cycles

 Alpha  occ. eigenvalues --  -19.26216 -19.24407 -19.20577 -19.17702 -19.15894
 Alpha  occ. eigenvalues --  -19.14814 -19.14054 -14.59488 -14.47978 -14.47709
 Alpha  occ. eigenvalues --  -14.46569 -14.44137 -14.44064 -14.43002 -14.40376
 Alpha  occ. eigenvalues --  -14.39950 -10.42506 -10.42456 -10.41186 -10.40405
 Alpha  occ. eigenvalues --  -10.37634 -10.34709 -10.34639 -10.33733 -10.33462
 Alpha  occ. eigenvalues --  -10.32364 -10.31119 -10.30179 -10.28624 -10.27175
 Alpha  occ. eigenvalues --  -10.27106 -10.26068 -10.25982 -10.25847 -10.25810
 Alpha  occ. eigenvalues --  -10.25771 -10.25657 -10.25559 -10.24472  -1.18755
 Alpha  occ. eigenvalues --   -1.16182  -1.13288  -1.12110  -1.09936  -1.09425
 Alpha  occ. eigenvalues --   -1.07744  -1.07563  -1.05089  -1.03012  -1.00665
 Alpha  occ. eigenvalues --   -0.99957  -0.98698  -0.97906  -0.97050  -0.94828
 Alpha  occ. eigenvalues --   -0.93544  -0.92605  -0.88232  -0.85760  -0.84516
 Alpha  occ. eigenvalues --   -0.83197  -0.81320  -0.80808  -0.79682  -0.75591
 Alpha  occ. eigenvalues --   -0.74370  -0.73986  -0.73317  -0.73082  -0.71726
 Alpha  occ. eigenvalues --   -0.71033  -0.69645  -0.67627  -0.67354  -0.66781
 Alpha  occ. eigenvalues --   -0.66303  -0.66035  -0.65711  -0.64682  -0.63682
 Alpha  occ. eigenvalues --   -0.63473  -0.63005  -0.62670  -0.61711  -0.59657
 Alpha  occ. eigenvalues --   -0.59086  -0.58733  -0.58467  -0.58237  -0.58139
 Alpha  occ. eigenvalues --   -0.57789  -0.56911  -0.55271  -0.54973  -0.54647
 Alpha  occ. eigenvalues --   -0.54075  -0.53735  -0.53696  -0.53045  -0.52602
 Alpha  occ. eigenvalues --   -0.52244  -0.51872  -0.51437  -0.50916  -0.50604
 Alpha  occ. eigenvalues --   -0.50343  -0.49317  -0.49290  -0.48987  -0.48865
 Alpha  occ. eigenvalues --   -0.48743  -0.47646  -0.47328  -0.46812  -0.46152
 Alpha  occ. eigenvalues --   -0.45600  -0.45252  -0.45196  -0.44382  -0.43865
 Alpha  occ. eigenvalues --   -0.43212  -0.42558  -0.42071  -0.41496  -0.41288
 Alpha  occ. eigenvalues --   -0.41158  -0.40867  -0.40786  -0.40252  -0.39396
 Alpha  occ. eigenvalues --   -0.39164  -0.38498  -0.38242  -0.37049  -0.34895
 Alpha  occ. eigenvalues --   -0.33978  -0.33852  -0.32123  -0.31917  -0.31653
 Alpha  occ. eigenvalues --   -0.31401  -0.31212  -0.29836  -0.29284  -0.29139
 Alpha  occ. eigenvalues --   -0.28319
 Alpha virt. eigenvalues --   -0.11465  -0.10939  -0.10253  -0.07983  -0.07079
 Alpha virt. eigenvalues --   -0.06372  -0.05915  -0.05897  -0.03812  -0.03625
 Alpha virt. eigenvalues --   -0.02614  -0.02556  -0.02357  -0.00505   0.00111

 Mulliken charges:
               1
     1  N   -0.766316
     2  H    0.417231
     3  H    0.437455
     4  H    0.409420
     5  C   -0.109298
     6  H    0.237332
     7  C    0.650299
     8  C   -0.409514
     9  H    0.185383
    10  H    0.244223
    11  O   -0.543029
    12  C    0.649900
    13  N   -0.734620
    14  H    0.372840
    15  H    0.362509
    16  O   -0.519884
    17  N   -0.584353
    18  H    0.397026
    19  C   -0.068924
    20  H    0.198203
    21  C    0.650973
    22  C   -0.405090
    23  H    0.167056
    24  H    0.184275
    25  O   -0.576207
    26  C    0.187505
    27  C   -0.198503
    28  H    0.134426
    29  C   -0.183925
    30  H    0.133119
    31  C   -0.129562
    32  H    0.143117
    33  C   -0.127331
    34  H    0.146965
    35  C   -0.128313
    36  H    0.146309
    37  N   -0.616402
    38  H    0.361942
    39  C   -0.043762
    40  H    0.163424
    41  C    0.616660
    42  C   -0.347258
    43  H    0.183709
    44  H    0.165375
    45  O   -0.554845
    46  C    0.557338
    47  N   -0.734747
    48  H    0.374895
    49  H    0.320111
    50  O   -0.484240
    51  N   -0.617415
    52  H    0.355660
    53  C   -0.058803
    54  H    0.184513
    55  C    0.614452
    56  C   -0.274977
    57  H    0.172898
    58  H    0.140806
    59  O   -0.627858
    60  C   -0.305347
    61  H    0.172215
    62  H    0.160102
    63  C   -0.144682
    64  H    0.160033
    65  H    0.160631
    66  N   -0.612921
    67  H    0.419597
    68  N   -0.757849
    69  H    0.363253
    70  H    0.371003
    71  N   -0.779413
    72  H    0.349429
    73  H    0.416033
    74  C    0.771658
    75  O   -0.565918
 Sum of Mulliken charges =   1.00000

 Dipole moment (field-independent basis, Debye):
    X=             -6.5844    Y=              8.5374    Z=              9.1272  Tot=             14.1261
 Quadrupole moment (field-independent basis, Debye-Ang):
   XX=           -115.9523   YY=           -105.6810   ZZ=            -62.7832
   XY=            103.7415   XZ=           -102.3069   YZ=           -101.5667

 Normal termination of Gaussian 16 at Tue Jun  7 03:13:05 2022.
