 Gaussian 16, Revision C.01,
 Gaussian 16:  ES64L-G16RevC.01  3-Jul-2019

 ----------------------------------------------------------------------
 # B3LYP/6-31G* empiricaldispersion=gd3 guess=read geom=check nosymm in
 tegral(ultrafinegrid)
 ----------------------------------------------------------------------

 ------------------------------------------------------
 Candidate Structure: Conf:293 Charge calc in gas phase
 ------------------------------------------------------
 Structure from the checkpoint file:  "conf-293.chk"
 Charge =  1 Multiplicity = 1

                          Input orientation:
 ---------------------------------------------------------------------
 Center     Atomic      Atomic             Coordinates (Angstroms)
 Number     Number       Type             X           Y           Z
 ---------------------------------------------------------------------
      1          7           0       -3.871901    0.391060    4.696980
      2          1           0       -4.869210    0.257884    4.885643
      3          1           0       -3.449493   -0.539528    4.388836
      4          1           0       -3.419314    0.734614    5.548072
      5          6           0       -3.605423    1.255093    3.481858
      6          1           0       -4.508125    1.803875    3.211687
      7          6           0       -3.202529    0.205947    2.409259
      8          6           0       -2.457979    2.240786    3.762237
      9          1           0       -2.712103    2.858550    4.633977
     10          1           0       -1.532945    1.693615    3.965555
     11          8           0       -2.945635   -0.940846    2.799209
     12          6           0       -2.293828    3.172228    2.546388
     13          7           0       -1.071215    3.670194    2.325679
     14          1           0       -0.892211    4.011898    1.372540
     15          1           0       -0.281400    3.203371    2.752360
     16          8           0       -3.286688    3.422469    1.849084
     17          7           0       -3.120102    0.639353    1.148848
     18          1           0       -3.309090    1.631103    1.008964
     19          6           0       -2.209598   -0.008471    0.214711
     20          1           0       -2.555053   -1.029839    0.027557
     21          6           0       -0.790226   -0.006984    0.850693
     22          6           0       -2.107752    0.809795   -1.110664
     23          1           0       -1.409034    1.634321   -0.939378
     24          1           0       -1.661295    0.153449   -1.865426
     25          8           0       -0.532031    0.722825    1.808391
     26          6           0       -3.408298    1.390279   -1.618797
     27          6           0       -4.278623    0.656348   -2.434962
     28          1           0       -4.017125   -0.359964   -2.721741
     29          6           0       -3.755913    2.704462   -1.265439
     30          1           0       -3.079216    3.288738   -0.647354
     31          6           0       -5.474764    1.216339   -2.888747
     32          1           0       -6.138060    0.635053   -3.523145
     33          6           0       -4.964021    3.259652   -1.699531
     34          1           0       -5.235216    4.266744   -1.392186
     35          6           0       -5.825170    2.519054   -2.517618
     36          1           0       -6.763134    2.949617   -2.856762
     37          7           0        0.142818   -0.749695    0.214540
     38          1           0       -0.126646   -1.268665   -0.612315
     39          6           0        1.583482   -0.520915    0.416436
     40          1           0        1.678577   -0.079819    1.411860
     41          6           0        2.072809    0.492039   -0.662597
     42          6           0        2.373351   -1.829818    0.366884
     43          1           0        2.451473   -2.185171   -0.665133
     44          1           0        1.851921   -2.575055    0.972174
     45          8           0        2.922606    0.183868   -1.500840
     46          6           0        3.751870   -1.629462    1.013850
     47          7           0        4.782619   -1.449162    0.140253
     48          1           0        5.666938   -1.170209    0.546235
     49          1           0        4.562721   -1.098093   -0.784827
     50          8           0        3.873127   -1.640016    2.230632
     51          7           0        1.429839    1.677086   -0.627520
     52          1           0        0.741676    1.864228    0.097111
     53          6           0        1.457122    2.718682   -1.653416
     54          1           0        2.453820    3.169949   -1.711513
     55          6           0        0.429557    3.801506   -1.228579
     56          6           0        1.084274    2.130668   -3.043783
     57          1           0        1.613170    1.178501   -3.124110
     58          1           0        0.009898    1.898662   -3.054157
     59          8           0        0.463045    4.885690   -1.863439
     60          6           0        1.465384    2.952993   -4.288841
     61          1           0        2.471791    3.371331   -4.165059
     62          1           0        1.534111    2.257804   -5.137792
     63          6           0        0.535922    4.107392   -4.693484
     64          1           0        0.552437    4.884284   -3.934990
     65          1           0        0.871388    4.539342   -5.642793
     66          7           0       -0.849998    3.646376   -4.884801
     67          1           0       -0.976277    2.933311   -5.591494
     68          7           0       -1.898494    4.797691   -3.137206
     69          1           0       -2.769473    5.000539   -2.667895
     70          1           0       -1.017064    4.979018   -2.594860
     71          7           0       -3.142317    3.494248   -4.592251
     72          1           0       -3.892051    3.394176   -3.917006
     73          1           0       -3.193504    2.884196   -5.394442
     74          6           0       -1.942011    3.975535   -4.180733
     75          8           0       -0.417100    3.473149   -0.348661
 ---------------------------------------------------------------------

 SCF Done:  E(RB3LYP) =  -1917.47926991     A.U. after    1 cycles

 Alpha  occ. eigenvalues --  -19.26463 -19.22601 -19.22263 -19.19679 -19.18175
 Alpha  occ. eigenvalues --  -19.17455 -19.16473 -14.59706 -14.48718 -14.48126
 Alpha  occ. eigenvalues --  -14.48003 -14.46802 -14.45986 -14.44256 -14.42935
 Alpha  occ. eigenvalues --  -14.40215 -10.44287 -10.42854 -10.40129 -10.40076
 Alpha  occ. eigenvalues --  -10.39612 -10.36643 -10.35739 -10.35209 -10.34312
 Alpha  occ. eigenvalues --  -10.33537 -10.32079 -10.31241 -10.30276 -10.29959
 Alpha  occ. eigenvalues --  -10.29823 -10.29499 -10.29469 -10.29435 -10.29410
 Alpha  occ. eigenvalues --  -10.28814 -10.27474 -10.26759 -10.26366  -1.18959
 Alpha  occ. eigenvalues --   -1.14621  -1.13943  -1.13333  -1.12701  -1.11558
 Alpha  occ. eigenvalues --   -1.10921  -1.08276  -1.05641  -1.03062  -1.02710
 Alpha  occ. eigenvalues --   -1.02294  -1.00193  -1.00077  -0.99300  -0.96072
 Alpha  occ. eigenvalues --   -0.95315  -0.92920  -0.89751  -0.87985  -0.86435
 Alpha  occ. eigenvalues --   -0.84752  -0.84097  -0.82537  -0.81430  -0.77448
 Alpha  occ. eigenvalues --   -0.76386  -0.74582  -0.73779  -0.73526  -0.73219
 Alpha  occ. eigenvalues --   -0.71651  -0.70549  -0.70314  -0.69317  -0.68869
 Alpha  occ. eigenvalues --   -0.68711  -0.67609  -0.66031  -0.65706  -0.64775
 Alpha  occ. eigenvalues --   -0.63621  -0.63411  -0.62620  -0.62276  -0.61505
 Alpha  occ. eigenvalues --   -0.61301  -0.60971  -0.60118  -0.59343  -0.58699
 Alpha  occ. eigenvalues --   -0.58500  -0.57580  -0.57027  -0.56471  -0.56389
 Alpha  occ. eigenvalues --   -0.56114  -0.55575  -0.55468  -0.55313  -0.53855
 Alpha  occ. eigenvalues --   -0.53344  -0.53151  -0.52839  -0.52489  -0.52228
 Alpha  occ. eigenvalues --   -0.51785  -0.51140  -0.50940  -0.50690  -0.50231
 Alpha  occ. eigenvalues --   -0.49815  -0.49318  -0.49099  -0.48345  -0.48100
 Alpha  occ. eigenvalues --   -0.47531  -0.47181  -0.47079  -0.46442  -0.45864
 Alpha  occ. eigenvalues --   -0.45377  -0.45156  -0.44200  -0.44015  -0.43910
 Alpha  occ. eigenvalues --   -0.43446  -0.42606  -0.42476  -0.41672  -0.41104
 Alpha  occ. eigenvalues --   -0.39275  -0.38774  -0.37786  -0.36961  -0.36845
 Alpha  occ. eigenvalues --   -0.36510  -0.36085  -0.35489  -0.34914  -0.34138
 Alpha  occ. eigenvalues --   -0.33132  -0.32885  -0.32416  -0.31903  -0.31357
 Alpha  occ. eigenvalues --   -0.30072
 Alpha virt. eigenvalues --   -0.12066  -0.11489  -0.10989  -0.10720  -0.09173
 Alpha virt. eigenvalues --   -0.08741  -0.08169  -0.05779  -0.05426  -0.05174
 Alpha virt. eigenvalues --   -0.03863  -0.03282  -0.02473  -0.02068  -0.00852

 Mulliken charges:
               1
     1  N   -0.762303
     2  H    0.416543
     3  H    0.434109
     4  H    0.414465
     5  C   -0.116205
     6  H    0.237637
     7  C    0.651621
     8  C   -0.384024
     9  H    0.197624
    10  H    0.209726
    11  O   -0.538684
    12  C    0.610942
    13  N   -0.720114
    14  H    0.397895
    15  H    0.352705
    16  O   -0.542713
    17  N   -0.612424
    18  H    0.412013
    19  C   -0.041691
    20  H    0.186737
    21  C    0.641224
    22  C   -0.449620
    23  H    0.233840
    24  H    0.153296
    25  O   -0.557382
    26  C    0.167215
    27  C   -0.182743
    28  H    0.140167
    29  C   -0.226234
    30  H    0.199413
    31  C   -0.138573
    32  H    0.157722
    33  C   -0.186004
    34  H    0.160068
    35  C   -0.151291
    36  H    0.160469
    37  N   -0.590957
    38  H    0.338967
    39  C   -0.086157
    40  H    0.217004
    41  C    0.622990
    42  C   -0.350256
    43  H    0.162026
    44  H    0.181581
    45  O   -0.541499
    46  C    0.556010
    47  N   -0.730939
    48  H    0.340112
    49  H    0.365870
    50  O   -0.499419
    51  N   -0.638367
    52  H    0.367238
    53  C   -0.008918
    54  H    0.176558
    55  C    0.583133
    56  C   -0.299215
    57  H    0.189875
    58  H    0.119167
    59  O   -0.586235
    60  C   -0.275037
    61  H    0.174849
    62  H    0.139043
    63  C   -0.175845
    64  H    0.235064
    65  H    0.173913
    66  N   -0.597411
    67  H    0.341128
    68  N   -0.772301
    69  H    0.354535
    70  H    0.434124
    71  N   -0.776522
    72  H    0.382216
    73  H    0.354455
    74  C    0.785032
    75  O   -0.591240
 Sum of Mulliken charges =   1.00000

 Dipole moment (field-independent basis, Debye):
    X=            -18.6899    Y=              6.4612    Z=             -0.1630  Tot=             19.7759
 Quadrupole moment (field-independent basis, Debye-Ang):
   XX=           -148.3025   YY=           -220.5853   ZZ=            -93.7255
   XY=            -17.4893   XZ=            -35.4494   YZ=            -11.1517

 Normal termination of Gaussian 16 at Tue May 31 12:09:50 2022.
