 Gaussian 16, Revision C.01,
 Gaussian 16:  ES64L-G16RevC.01  3-Jul-2019

 -------------------------------------------------------------------
 # B3LYP/6-31G* guess=read geom=check nosymm integral(ultrafinegrid)
 -------------------------------------------------------------------

 ------------------------------------------------------
 Candidate Structure: Conf:584 Charge calc in gas phase
 ------------------------------------------------------
 Structure from the checkpoint file:  "conf-584.chk"
 Charge =  1 Multiplicity = 1

                          Input orientation:
 ---------------------------------------------------------------------
 Center     Atomic      Atomic             Coordinates (Angstroms)
 Number     Number       Type             X           Y           Z
 ---------------------------------------------------------------------
      1          7           0       -5.076831    0.876228    5.531722
      2          1           0       -5.666335    1.711680    5.592281
      3          1           0       -5.461062    0.239738    4.756801
      4          1           0       -5.074855    0.407155    6.441358
      5          6           0       -3.689463    1.158679    4.986909
      6          1           0       -3.480310    2.224202    5.098966
      7          6           0       -3.851756    0.764101    3.485635
      8          6           0       -2.653018    0.296783    5.743114
      9          1           0       -2.493280    0.716830    6.743937
     10          1           0       -3.026474   -0.726972    5.841293
     11          8           0       -4.821365    0.037500    3.206395
     12          6           0       -1.342734    0.185625    4.936884
     13          7           0       -0.513664    1.261539    5.026669
     14          1           0        0.305203    1.272549    4.428988
     15          1           0       -0.549878    1.922510    5.789477
     16          8           0       -1.165051   -0.757873    4.188630
     17          7           0       -2.950850    1.248218    2.649915
     18          1           0       -2.125402    1.761171    2.984371
     19          6           0       -2.737355    0.774548    1.281435
     20          1           0       -2.846439   -0.316314    1.277932
     21          6           0       -1.251620    1.125737    1.001897
     22          6           0       -3.748171    1.369166    0.264776
     23          1           0       -3.568301    0.885906   -0.702623
     24          1           0       -4.745129    1.047220    0.585022
     25          8           0       -0.585234    1.708873    1.865950
     26          6           0       -3.698252    2.874721    0.113231
     27          6           0       -4.468962    3.701516    0.942100
     28          1           0       -5.135028    3.250267    1.675031
     29          6           0       -2.883513    3.472106   -0.859220
     30          1           0       -2.299732    2.846656   -1.530407
     31          6           0       -4.416263    5.090190    0.818348
     32          1           0       -5.029107    5.716213    1.461741
     33          6           0       -2.828112    4.860957   -0.983743
     34          1           0       -2.194664    5.307585   -1.745050
     35          6           0       -3.589961    5.674119   -0.143300
     36          1           0       -3.550653    6.754900   -0.245631
     37          7           0       -0.774169    0.737706   -0.185145
     38          1           0       -1.380068    0.390029   -0.927813
     39          6           0        0.555661    1.078518   -0.669542
     40          1           0        0.845895    2.060556   -0.284990
     41          6           0        0.426589    1.115428   -2.213814
     42          6           0        1.616683    0.062181   -0.181978
     43          1           0        1.431754   -0.926767   -0.616290
     44          1           0        1.514336   -0.024559    0.905517
     45          8           0       -0.630820    0.747559   -2.746417
     46          6           0        3.021358    0.589148   -0.483695
     47          7           0        3.914295   -0.301279   -0.997432
     48          1           0        4.710486    0.114332   -1.469368
     49          1           0        3.576161   -1.161519   -1.406409
     50          8           0        3.299740    1.764270   -0.265357
     51          7           0        1.508528    1.525480   -2.891662
     52          1           0        2.370014    1.789383   -2.415110
     53          6           0        1.669577    1.367300   -4.336663
     54          1           0        1.017794    0.552214   -4.662881
     55          6           0        3.160926    0.972487   -4.569216
     56          6           0        1.232724    2.678912   -5.057128
     57          1           0        0.337825    3.013443   -4.522606
     58          1           0        1.996376    3.450136   -4.886136
     59          8           0        3.407221    0.365911   -5.671219
     60          6           0        0.865369    2.597916   -6.561777
     61          1           0        0.555744    1.577765   -6.823650
     62          1           0       -0.013233    3.228794   -6.740214
     63          6           0        1.932551    3.065813   -7.564887
     64          1           0        1.491098    3.098069   -8.570080
     65          1           0        2.266665    4.081174   -7.313941
     66          7           0        3.075155    2.151992   -7.545824
     67          1           0        2.956922    1.294609   -6.958206
     68          7           0        4.711540    3.647558   -8.283994
     69          1           0        5.688552    3.869585   -8.407120
     70          1           0        4.076640    4.055462   -8.954502
     71          7           0        5.276481    1.688107   -7.125950
     72          1           0        6.263186    1.872513   -7.223594
     73          1           0        4.923657    0.998343   -6.430471
     74          6           0        4.356434    2.497645   -7.658551
     75          8           0        3.983078    1.292669   -3.697404
 ---------------------------------------------------------------------

 SCF Done:  E(RB3LYP) =  -1917.35283043     A.U. after    2 cycles

 Alpha  occ. eigenvalues --  -19.26486 -19.22624 -19.20815 -19.18042 -19.16590
 Alpha  occ. eigenvalues --  -19.14595 -19.13809 -14.60231 -14.48253 -14.46945
 Alpha  occ. eigenvalues --  -14.46613 -14.43893 -14.43848 -14.43280 -14.40977
 Alpha  occ. eigenvalues --  -14.40449 -10.43025 -10.41496 -10.41252 -10.40922
 Alpha  occ. eigenvalues --  -10.37765 -10.34996 -10.34728 -10.34399 -10.33559
 Alpha  occ. eigenvalues --  -10.32078 -10.30417 -10.30347 -10.28116 -10.27294
 Alpha  occ. eigenvalues --  -10.26946 -10.26229 -10.26195 -10.25970 -10.25947
 Alpha  occ. eigenvalues --  -10.25656 -10.25615 -10.25571 -10.24867  -1.18984
 Alpha  occ. eigenvalues --   -1.14716  -1.13847  -1.12638  -1.10036  -1.09701
 Alpha  occ. eigenvalues --   -1.08453  -1.07396  -1.05218  -1.01768  -1.00611
 Alpha  occ. eigenvalues --   -0.99838  -0.98611  -0.97901  -0.97286  -0.95419
 Alpha  occ. eigenvalues --   -0.93665  -0.92517  -0.88119  -0.85991  -0.84526
 Alpha  occ. eigenvalues --   -0.83286  -0.81226  -0.80952  -0.79950  -0.75714
 Alpha  occ. eigenvalues --   -0.75231  -0.74290  -0.73862  -0.73449  -0.71659
 Alpha  occ. eigenvalues --   -0.70016  -0.69746  -0.67717  -0.67417  -0.66826
 Alpha  occ. eigenvalues --   -0.66347  -0.65950  -0.64996  -0.64836  -0.63810
 Alpha  occ. eigenvalues --   -0.63751  -0.63051  -0.62945  -0.61646  -0.59463
 Alpha  occ. eigenvalues --   -0.59010  -0.58592  -0.58370  -0.58233  -0.58147
 Alpha  occ. eigenvalues --   -0.57231  -0.56276  -0.55735  -0.55090  -0.54641
 Alpha  occ. eigenvalues --   -0.54005  -0.53594  -0.53256  -0.52625  -0.52588
 Alpha  occ. eigenvalues --   -0.52034  -0.51652  -0.51553  -0.51311  -0.50787
 Alpha  occ. eigenvalues --   -0.50152  -0.49551  -0.49404  -0.49130  -0.49011
 Alpha  occ. eigenvalues --   -0.48728  -0.47438  -0.47209  -0.46673  -0.46456
 Alpha  occ. eigenvalues --   -0.46306  -0.46009  -0.45528  -0.44556  -0.44339
 Alpha  occ. eigenvalues --   -0.42832  -0.42577  -0.42408  -0.41687  -0.41382
 Alpha  occ. eigenvalues --   -0.41161  -0.40890  -0.40738  -0.40453  -0.39267
 Alpha  occ. eigenvalues --   -0.38588  -0.37897  -0.37154  -0.36403  -0.35103
 Alpha  occ. eigenvalues --   -0.34094  -0.33780  -0.32525  -0.32288  -0.31828
 Alpha  occ. eigenvalues --   -0.31801  -0.31370  -0.30155  -0.29742  -0.28688
 Alpha  occ. eigenvalues --   -0.27980
 Alpha virt. eigenvalues --   -0.12303  -0.11284  -0.10162  -0.07346  -0.07271
 Alpha virt. eigenvalues --   -0.06340  -0.06012  -0.05846  -0.04427  -0.03892
 Alpha virt. eigenvalues --   -0.02669  -0.02550  -0.02249  -0.00862  -0.00326

 Mulliken charges:
               1
     1  N   -0.756114
     2  H    0.416267
     3  H    0.436275
     4  H    0.414194
     5  C   -0.114894
     6  H    0.219261
     7  C    0.656211
     8  C   -0.379182
     9  H    0.183011
    10  H    0.208737
    11  O   -0.547828
    12  C    0.574256
    13  N   -0.731945
    14  H    0.386696
    15  H    0.347983
    16  O   -0.459930
    17  N   -0.593655
    18  H    0.389558
    19  C   -0.055013
    20  H    0.206383
    21  C    0.646517
    22  C   -0.388125
    23  H    0.178494
    24  H    0.182542
    25  O   -0.561532
    26  C    0.171412
    27  C   -0.180984
    28  H    0.099992
    29  C   -0.191094
    30  H    0.153209
    31  C   -0.127421
    32  H    0.131776
    33  C   -0.127071
    34  H    0.143413
    35  C   -0.126154
    36  H    0.143773
    37  N   -0.626622
    38  H    0.366532
    39  C   -0.059001
    40  H    0.216208
    41  C    0.610844
    42  C   -0.345339
    43  H    0.150352
    44  H    0.195565
    45  O   -0.562946
    46  C    0.578345
    47  N   -0.719930
    48  H    0.366998
    49  H    0.337135
    50  O   -0.512514
    51  N   -0.618506
    52  H    0.384398
    53  C   -0.058556
    54  H    0.171822
    55  C    0.586239
    56  C   -0.267773
    57  H    0.162843
    58  H    0.147107
    59  O   -0.638083
    60  C   -0.305563
    61  H    0.170719
    62  H    0.158682
    63  C   -0.145211
    64  H    0.162788
    65  H    0.161782
    66  N   -0.611548
    67  H    0.408410
    68  N   -0.755124
    69  H    0.362415
    70  H    0.369806
    71  N   -0.772106
    72  H    0.348425
    73  H    0.417154
    74  C    0.771341
    75  O   -0.556106
 Sum of Mulliken charges =   1.00000

 Dipole moment (field-independent basis, Debye):
    X=             -9.3236    Y=             11.9063    Z=              6.9572  Tot=             16.6461
 Quadrupole moment (field-independent basis, Debye-Ang):
   XX=           -109.8309   YY=           -185.1532   ZZ=             45.7408
   XY=             -1.5320   XZ=           -166.3729   YZ=            -33.8271

 Normal termination of Gaussian 16 at Tue Jun  7 03:13:02 2022.
