 Gaussian 16, Revision C.01,
 Gaussian 16:  ES64L-G16RevC.01  3-Jul-2019

 ----------------------------------------------------------------------
 # B3LYP/6-31G* empiricaldispersion=gd3 guess=read geom=check nosymm in
 tegral(ultrafinegrid)
 ----------------------------------------------------------------------

 ------------------------------------------------------
 Candidate Structure: Conf:771 Charge calc in gas phase
 ------------------------------------------------------
 Structure from the checkpoint file:  "conf-771.chk"
 Charge =  1 Multiplicity = 1

                          Input orientation:
 ---------------------------------------------------------------------
 Center     Atomic      Atomic             Coordinates (Angstroms)
 Number     Number       Type             X           Y           Z
 ---------------------------------------------------------------------
      1          7           0       -4.108319    0.661572    4.144387
      2          1           0       -4.398568   -0.227014    3.701130
      3          1           0       -3.239897    0.422737    4.764681
      4          1           0       -4.868377    1.077315    4.684420
      5          6           0       -3.574104    1.551980    3.050663
      6          1           0       -4.292564    2.351798    2.851328
      7          6           0       -3.408538    0.637570    1.815254
      8          6           0       -2.210891    2.149676    3.485969
      9          1           0       -1.759735    2.667157    2.637557
     10          1           0       -2.384051    2.886082    4.279004
     11          8           0       -3.517900   -0.577180    1.958366
     12          6           0       -1.274138    1.076606    4.063812
     13          7           0       -0.034008    1.029010    3.593737
     14          1           0        0.650944    0.325521    3.903515
     15          1           0        0.203101    1.569810    2.768326
     16          8           0       -1.714901    0.324052    4.961810
     17          7           0       -3.093318    1.248895    0.645910
     18          1           0       -2.890150    2.243701    0.674187
     19          6           0       -2.246042    0.524730   -0.308169
     20          1           0       -2.559746   -0.521119   -0.277842
     21          6           0       -0.805388    0.663313    0.225694
     22          6           0       -2.405766    1.054607   -1.753267
     23          1           0       -1.733637    0.461887   -2.386134
     24          1           0       -3.429658    0.827360   -2.069096
     25          8           0       -0.458288    1.702825    0.797866
     26          6           0       -2.115254    2.531164   -1.917653
     27          6           0       -3.156930    3.470188   -1.900310
     28          1           0       -4.186284    3.128892   -1.810926
     29          6           0       -0.797872    2.987565   -2.052074
     30          1           0        0.040049    2.298446   -2.060053
     31          6           0       -2.886913    4.836230   -2.017838
     32          1           0       -3.705550    5.550492   -2.015343
     33          6           0       -0.521436    4.352729   -2.147113
     34          1           0        0.520011    4.655861   -2.188707
     35          6           0       -1.567605    5.280990   -2.137256
     36          1           0       -1.357865    6.344883   -2.208691
     37          7           0        0.006884   -0.398699    0.057460
     38          1           0       -0.349957   -1.237137   -0.384159
     39          6           0        1.341113   -0.463445    0.659195
     40          1           0        1.466299    0.483345    1.186481
     41          6           0        2.399524   -0.544636   -0.468440
     42          6           0        1.436095   -1.628457    1.652458
     43          1           0        1.628506   -2.557808    1.108580
     44          1           0        0.497059   -1.713001    2.203679
     45          8           0        2.991613   -1.595863   -0.723870
     46          6           0        2.530175   -1.319525    2.668728
     47          7           0        3.767563   -1.733899    2.325283
     48          1           0        4.549990   -1.465916    2.907743
     49          1           0        3.944058   -2.097894    1.395817
     50          8           0        2.282580   -0.684365    3.698015
     51          7           0        2.530731    0.614155   -1.130518
     52          1           0        2.012033    1.447230   -0.849693
     53          6           0        3.181521    0.809942   -2.422564
     54          1           0        4.201973    0.419186   -2.402092
     55          6           0        3.193131    2.342105   -2.668864
     56          6           0        2.347947    0.064352   -3.501079
     57          1           0        2.300855   -0.980342   -3.176817
     58          1           0        1.321539    0.456647   -3.446313
     59          8           0        4.035683    2.788247   -3.500274
     60          6           0        2.853654    0.110900   -4.960483
     61          1           0        3.920008    0.365793   -4.987352
     62          1           0        2.768246   -0.887725   -5.404061
     63          6           0        2.085271    1.065350   -5.893294
     64          1           0        2.338667    0.850460   -6.937386
     65          1           0        1.006861    0.904276   -5.778965
     66          7           0        2.410523    2.465888   -5.613652
     67          1           0        3.352939    2.593629   -5.226349
     68          7           0        0.259110    3.415438   -5.495142
     69          1           0       -0.369371    3.879678   -4.851182
     70          1           0       -0.129378    2.652644   -6.028516
     71          7           0        2.122313    4.503187   -4.612313
     72          1           0        1.504263    5.228319   -4.278282
     73          1           0        2.954292    4.288414   -4.036875
     74          6           0        1.584383    3.438758   -5.223922
     75          8           0        2.296152    2.996875   -2.080783
 ---------------------------------------------------------------------

 SCF Done:  E(RB3LYP) =  -1917.49032181     A.U. after    1 cycles

 Alpha  occ. eigenvalues --  -19.26923 -19.24603 -19.24128 -19.20460 -19.20156
 Alpha  occ. eigenvalues --  -19.16357 -19.16211 -14.56290 -14.49630 -14.48747
 Alpha  occ. eigenvalues --  -14.47780 -14.46244 -14.46198 -14.45059 -14.43954
 Alpha  occ. eigenvalues --  -14.43286 -10.43751 -10.42937 -10.41836 -10.41110
 Alpha  occ. eigenvalues --  -10.40553 -10.37977 -10.37234 -10.36109 -10.34168
 Alpha  occ. eigenvalues --  -10.34161 -10.33813 -10.32657 -10.31073 -10.29603
 Alpha  occ. eigenvalues --  -10.29429 -10.28753 -10.28739 -10.28448 -10.28349
 Alpha  occ. eigenvalues --  -10.27872 -10.27783 -10.27669 -10.27054  -1.19155
 Alpha  occ. eigenvalues --   -1.16125  -1.16042  -1.12031  -1.11844  -1.11594
 Alpha  occ. eigenvalues --   -1.11022  -1.09574  -1.06489  -1.04792  -1.02135
 Alpha  occ. eigenvalues --   -1.01749  -1.00980  -0.99549  -0.99408  -0.98953
 Alpha  occ. eigenvalues --   -0.95356  -0.93042  -0.90277  -0.88410  -0.87614
 Alpha  occ. eigenvalues --   -0.84272  -0.83697  -0.82668  -0.81483  -0.78566
 Alpha  occ. eigenvalues --   -0.76598  -0.74893  -0.73317  -0.72735  -0.72489
 Alpha  occ. eigenvalues --   -0.72103  -0.71069  -0.69843  -0.69575  -0.68784
 Alpha  occ. eigenvalues --   -0.68134  -0.68024  -0.67228  -0.66491  -0.65203
 Alpha  occ. eigenvalues --   -0.65030  -0.64429  -0.63367  -0.62449  -0.62108
 Alpha  occ. eigenvalues --   -0.61089  -0.60628  -0.60332  -0.59838  -0.59128
 Alpha  occ. eigenvalues --   -0.59004  -0.58786  -0.57959  -0.57502  -0.56604
 Alpha  occ. eigenvalues --   -0.55851  -0.55641  -0.55323  -0.54812  -0.54534
 Alpha  occ. eigenvalues --   -0.54071  -0.53971  -0.53470  -0.53075  -0.52654
 Alpha  occ. eigenvalues --   -0.52094  -0.51666  -0.51192  -0.50975  -0.50539
 Alpha  occ. eigenvalues --   -0.50203  -0.49715  -0.49624  -0.49200  -0.49016
 Alpha  occ. eigenvalues --   -0.48640  -0.48495  -0.48190  -0.47655  -0.46528
 Alpha  occ. eigenvalues --   -0.45805  -0.45675  -0.45356  -0.44551  -0.43725
 Alpha  occ. eigenvalues --   -0.43377  -0.43256  -0.42766  -0.41959  -0.40973
 Alpha  occ. eigenvalues --   -0.40273  -0.39157  -0.38836  -0.38544  -0.38275
 Alpha  occ. eigenvalues --   -0.37739  -0.35954  -0.35481  -0.34500  -0.34282
 Alpha  occ. eigenvalues --   -0.34146  -0.33791  -0.33386  -0.31770  -0.30749
 Alpha  occ. eigenvalues --   -0.30459
 Alpha virt. eigenvalues --   -0.13343  -0.10995  -0.10397  -0.10138  -0.09734
 Alpha virt. eigenvalues --   -0.07971  -0.07857  -0.07342  -0.05753  -0.04252
 Alpha virt. eigenvalues --   -0.03865  -0.03133  -0.02568  -0.02338  -0.00589

 Mulliken charges:
               1
     1  N   -0.769392
     2  H    0.418309
     3  H    0.451946
     4  H    0.399454
     5  C   -0.119561
     6  H    0.213850
     7  C    0.631344
     8  C   -0.397289
     9  H    0.217475
    10  H    0.215073
    11  O   -0.502697
    12  C    0.627744
    13  N   -0.767710
    14  H    0.412927
    15  H    0.388970
    16  O   -0.555424
    17  N   -0.571954
    18  H    0.358938
    19  C   -0.090985
    20  H    0.195232
    21  C    0.648163
    22  C   -0.363132
    23  H    0.165136
    24  H    0.180164
    25  O   -0.562688
    26  C    0.142065
    27  C   -0.203608
    28  H    0.137463
    29  C   -0.188594
    30  H    0.161981
    31  C   -0.129640
    32  H    0.150624
    33  C   -0.189046
    34  H    0.180174
    35  C   -0.138219
    36  H    0.150500
    37  N   -0.594982
    38  H    0.351152
    39  C   -0.089387
    40  H    0.195487
    41  C    0.628429
    42  C   -0.364272
    43  H    0.189996
    44  H    0.175099
    45  O   -0.545225
    46  C    0.585702
    47  N   -0.724201
    48  H    0.357536
    49  H    0.376781
    50  O   -0.527577
    51  N   -0.613896
    52  H    0.369037
    53  C   -0.029289
    54  H    0.178982
    55  C    0.603180
    56  C   -0.287153
    57  H    0.177140
    58  H    0.121708
    59  O   -0.626535
    60  C   -0.296241
    61  H    0.185265
    62  H    0.163167
    63  C   -0.152217
    64  H    0.185083
    65  H    0.139626
    66  N   -0.574996
    67  H    0.396967
    68  N   -0.763534
    69  H    0.370043
    70  H    0.363153
    71  N   -0.729515
    72  H    0.345940
    73  H    0.398672
    74  C    0.751918
    75  O   -0.588635
 Sum of Mulliken charges =   1.00000

 Dipole moment (field-independent basis, Debye):
    X=            -13.1862    Y=              7.3401    Z=             -1.3143  Tot=             15.1486
 Quadrupole moment (field-independent basis, Debye-Ang):
   XX=           -168.6062   YY=           -193.5538   ZZ=           -140.8120
   XY=            -36.0932   XZ=            -36.1524   YZ=             -3.5865

 Normal termination of Gaussian 16 at Tue May 31 12:09:37 2022.
