 Gaussian 16, Revision C.01,
 Gaussian 16:  ES64L-G16RevC.01  3-Jul-2019

 ----------------------------------------------------------------------
 # B3LYP/6-31G* empiricaldispersion=gd3 guess=read geom=check nosymm in
 tegral(ultrafinegrid)
 ----------------------------------------------------------------------

 ------------------------------------------------------
 Candidate Structure: Conf:549 Charge calc in gas phase
 ------------------------------------------------------
 Structure from the checkpoint file:  "conf-549.chk"
 Charge =  1 Multiplicity = 1

                          Input orientation:
 ---------------------------------------------------------------------
 Center     Atomic      Atomic             Coordinates (Angstroms)
 Number     Number       Type             X           Y           Z
 ---------------------------------------------------------------------
      1          7           0       -6.623951    2.553309    4.399896
      2          1           0       -6.732466    2.276544    5.377526
      3          1           0       -7.289946    3.297087    4.185190
      4          1           0       -5.649349    2.892453    4.271989
      5          6           0       -6.735155    1.389930    3.459492
      6          1           0       -7.435613    0.655245    3.870501
      7          6           0       -5.310651    0.823952    3.419204
      8          6           0       -7.253109    1.849330    2.074106
      9          1           0       -8.237585    2.297620    2.280046
     10          8           0       -4.375729    1.604556    3.641634
     11          6           0       -6.366368    2.921650    1.428013
     12          1           0       -5.388674    2.516827    1.161695
     13          1           0       -6.836421    3.284777    0.510853
     14          1           0       -6.203493    3.787598    2.079187
     15          6           0       -7.462096    0.660989    1.129505
     16          1           0       -6.502665    0.264316    0.783114
     17          1           0       -8.032709   -0.147712    1.600723
     18          1           0       -8.018982    0.986886    0.247458
     19          7           0       -5.167825   -0.470357    3.117198
     20          1           0       -5.987457   -1.009868    2.870230
     21          6           0       -3.861079   -1.118019    2.971914
     22          1           0       -3.175679   -0.621641    3.666111
     23          6           0       -3.312491   -0.952067    1.536987
     24          6           0       -3.961896   -2.602759    3.343323
     25          1           0       -4.648128   -3.106743    2.645145
     26          1           0       -4.370019   -2.688447    4.354962
     27          8           0       -2.984430   -1.940256    0.874252
     28          8           0       -2.690004   -3.202929    3.349817
     29          1           0       -2.411626   -3.216214    2.417940
     30          7           0       -3.258109    0.311362    1.076364
     31          1           0       -3.327092    1.068518    1.747384
     32          6           0       -2.723763    0.647736   -0.256136
     33          1           0       -2.960962   -0.201253   -0.902612
     34          6           0       -1.186378    0.782989   -0.120992
     35          6           0       -3.415408    1.901112   -0.770931
     36          1           0       -3.225339    2.041020   -1.845061
     37          1           0       -3.100096    2.777676   -0.194073
     38          1           0       -4.498480    1.763268   -0.676364
     39          8           0       -0.616737    1.867104   -0.102857
     40          7           0       -0.568560   -0.405845    0.140720
     41          1           0       -1.084475   -1.267350   -0.000098
     42          6           0        0.874385   -0.547112    0.216179
     43          1           0        1.284690    0.462163    0.266038
     44          6           0        1.337778   -1.301503   -1.032629
     45          6           0        1.281816   -1.366809    1.451468
     46          1           0        0.885440   -0.866044    2.343273
     47          1           0        0.783948   -2.340890    1.378103
     48          8           0        0.785717   -2.352994   -1.339175
     49          6           0        2.795560   -1.591009    1.615683
     50          1           0        3.163279   -2.089166    0.707426
     51          6           0        3.567090   -0.278353    1.789232
     52          1           0        3.247949    0.238143    2.702554
     53          1           0        4.643180   -0.469257    1.867503
     54          1           0        3.422745    0.409128    0.949524
     55          6           0        3.050825   -2.524664    2.804466
     56          1           0        2.675653   -2.076967    3.732145
     57          1           0        4.121218   -2.718496    2.935048
     58          1           0        2.547843   -3.487499    2.666925
     59          7           0        2.367974   -0.763850   -1.734828
     60          1           0        2.980465   -0.080041   -1.313506
     61          6           0        2.849787   -1.402340   -2.936454
     62          1           0        2.413246   -2.404603   -2.946042
     63          6           0        4.368627   -1.461124   -2.876458
     64          6           0        2.357240   -0.646769   -4.214683
     65          1           0        2.564753   -1.274622   -5.089814
     66          1           0        2.949131    0.270474   -4.322635
     67          8           0        5.031417   -0.791401   -2.086537
     68          6           0        0.905346   -0.291967   -4.094642
     69          6           0       -0.136749   -1.115746   -4.553282
     70          1           0        0.106006   -2.040389   -5.075846
     71          6           0        0.553633    0.890294   -3.417354
     72          1           0        1.344901    1.528711   -3.022915
     73          6           0       -1.465261   -0.787237   -4.345421
     74          1           0       -2.263330   -1.434184   -4.696781
     75          6           0       -0.757188    1.256097   -3.216251
     76          1           0       -0.983945    2.182063   -2.705966
     77          8           0       -3.060699    0.749165   -3.470894
     78          6           0       -1.852819    0.428412   -3.661632
     79          7           0        4.956894   -2.272893   -3.797485
     80          1           0        4.407694   -2.802117   -4.461261
     81          6           0        6.398792   -2.340733   -3.905352
     82          1           0        6.806362   -1.328809   -3.804486
     83          6           0        6.732178   -2.885810   -5.281121
     84          6           0        6.995561   -3.213577   -2.777304
     85          1           0        6.545945   -2.843752   -1.851436
     86          1           0        6.661826   -4.249146   -2.911560
     87          8           0        5.974312   -3.517567   -5.978827
     88          6           0        8.518728   -3.147209   -2.660894
     89          1           0        8.827400   -2.095486   -2.597234
     90          1           0        8.980703   -3.551669   -3.569885
     91          6           0        9.020434   -3.894456   -1.421897
     92          1           0        8.518781   -3.502767   -0.529524
     93          1           0        8.748875   -4.956296   -1.489779
     94          6           0       10.520227   -3.767161   -1.186800
     95          1           0       10.814510   -4.189093   -0.223096
     96          1           0       10.824300   -2.716770   -1.199109
     97          7           0       11.319087   -4.474100   -2.255746
     98          1           0       12.336227   -4.353872   -2.123626
     99          1           0       11.118468   -5.486526   -2.261140
    100          1           0       11.080844   -4.109963   -3.191125
    101          8           0        8.006451   -2.605338   -5.643496
    102          1           0        8.135312   -3.009084   -6.520278
 ---------------------------------------------------------------------

 SCF Done:  E(RB3LYP) =  -2312.08111888     A.U. after    1 cycles

 Alpha  occ. eigenvalues --  -19.28479 -19.26134 -19.22566 -19.20029 -19.18849
 Alpha  occ. eigenvalues --  -19.16770 -19.13103 -19.12968 -19.03950 -14.61246
 Alpha  occ. eigenvalues --  -14.61025 -14.49798 -14.42255 -14.41692 -14.37691
 Alpha  occ. eigenvalues --  -14.37145 -10.43009 -10.40457 -10.40273 -10.39162
 Alpha  occ. eigenvalues --  -10.35827 -10.33642 -10.33464 -10.32290 -10.32276
 Alpha  occ. eigenvalues --  -10.31613 -10.31019 -10.30426 -10.30089 -10.29935
 Alpha  occ. eigenvalues --  -10.28982 -10.28652 -10.27966 -10.25751 -10.25390
 Alpha  occ. eigenvalues --  -10.24857 -10.22417 -10.21302 -10.21030 -10.21001
 Alpha  occ. eigenvalues --  -10.20390 -10.18947 -10.18929 -10.15781 -10.15531
 Alpha  occ. eigenvalues --  -10.15471 -10.13555 -10.13238  -1.19335  -1.19111
 Alpha  occ. eigenvalues --   -1.15627  -1.14926  -1.10893  -1.10391  -1.08871
 Alpha  occ. eigenvalues --   -1.07791  -1.05882  -1.05466  -1.04675  -0.98766
 Alpha  occ. eigenvalues --   -0.98490  -0.94825  -0.94622  -0.93911  -0.93473
 Alpha  occ. eigenvalues --   -0.93321  -0.87756  -0.87407  -0.84580  -0.83921
 Alpha  occ. eigenvalues --   -0.82914  -0.81491  -0.80300  -0.80002  -0.78302
 Alpha  occ. eigenvalues --   -0.76697  -0.76125  -0.76000  -0.74326  -0.74287
 Alpha  occ. eigenvalues --   -0.73069  -0.72629  -0.72263  -0.71953  -0.71702
 Alpha  occ. eigenvalues --   -0.70648  -0.70547  -0.69331  -0.68908  -0.67851
 Alpha  occ. eigenvalues --   -0.67091  -0.65405  -0.64921  -0.64592  -0.64309
 Alpha  occ. eigenvalues --   -0.63090  -0.62371  -0.61408  -0.60742  -0.60147
 Alpha  occ. eigenvalues --   -0.59850  -0.59291  -0.59005  -0.58524  -0.58076
 Alpha  occ. eigenvalues --   -0.57769  -0.56808  -0.56729  -0.56275  -0.55754
 Alpha  occ. eigenvalues --   -0.55349  -0.55092  -0.54067  -0.53705  -0.53474
 Alpha  occ. eigenvalues --   -0.52690  -0.52295  -0.52066  -0.51246  -0.50758
 Alpha  occ. eigenvalues --   -0.50584  -0.50376  -0.49854  -0.49603  -0.49324
 Alpha  occ. eigenvalues --   -0.49291  -0.48978  -0.48681  -0.48450  -0.47883
 Alpha  occ. eigenvalues --   -0.47084  -0.46913  -0.46728  -0.46647  -0.46426
 Alpha  occ. eigenvalues --   -0.46180  -0.45990  -0.45560  -0.45070  -0.44766
 Alpha  occ. eigenvalues --   -0.44427  -0.44150  -0.43835  -0.43634  -0.42733
 Alpha  occ. eigenvalues --   -0.42509  -0.42149  -0.41750  -0.41699  -0.41114
 Alpha  occ. eigenvalues --   -0.40512  -0.40349  -0.40322  -0.40137  -0.39623
 Alpha  occ. eigenvalues --   -0.39196  -0.39044  -0.38733  -0.38214  -0.38176
 Alpha  occ. eigenvalues --   -0.37640  -0.37019  -0.36234  -0.36218  -0.35854
 Alpha  occ. eigenvalues --   -0.35663  -0.35456  -0.33704  -0.33605  -0.32823
 Alpha  occ. eigenvalues --   -0.32060  -0.31535  -0.31478  -0.30704  -0.30398
 Alpha  occ. eigenvalues --   -0.28303  -0.27136  -0.26772  -0.26744  -0.25584
 Alpha  occ. eigenvalues --   -0.21333  -0.17666  -0.13772
 Alpha virt. eigenvalues --   -0.12972  -0.12625  -0.11101  -0.07666  -0.06753
 Alpha virt. eigenvalues --   -0.06296  -0.06144  -0.06027  -0.04356  -0.03078
 Alpha virt. eigenvalues --   -0.02339  -0.02292  -0.00871  -0.00700  -0.00236

 Mulliken charges:
               1
     1  N   -0.739823
     2  H    0.423093
     3  H    0.418501
     4  H    0.435139
     5  C   -0.129957
     6  H    0.203521
     7  C    0.663969
     8  C   -0.107652
     9  H    0.155846
    10  O   -0.547692
    11  C   -0.476653
    12  H    0.207037
    13  H    0.203137
    14  H    0.126599
    15  C   -0.481570
    16  H    0.199117
    17  H    0.150349
    18  H    0.204092
    19  N   -0.589643
    20  H    0.354707
    21  C   -0.112358
    22  H    0.214743
    23  C    0.643112
    24  C   -0.029684
    25  H    0.140675
    26  H    0.146896
    27  O   -0.535820
    28  O   -0.617712
    29  H    0.426857
    30  N   -0.614721
    31  H    0.355780
    32  C   -0.075675
    33  H    0.219756
    34  C    0.646909
    35  C   -0.477208
    36  H    0.253948
    37  H    0.128651
    38  H    0.110487
    39  O   -0.532388
    40  N   -0.614964
    41  H    0.364932
    42  C   -0.060090
    43  H    0.170331
    44  C    0.649153
    45  C   -0.255914
    46  H    0.127646
    47  H    0.146442
    48  O   -0.540075
    49  C   -0.085635
    50  H    0.134860
    51  C   -0.441520
    52  H    0.140404
    53  H    0.135151
    54  H    0.145983
    55  C   -0.440053
    56  H    0.139553
    57  H    0.128505
    58  H    0.146276
    59  N   -0.601064
    60  H    0.344883
    61  C   -0.060313
    62  H    0.188563
    63  C    0.625946
    64  C   -0.363834
    65  H    0.126102
    66  H    0.137794
    67  O   -0.556048
    68  C    0.152837
    69  C   -0.166609
    70  H    0.080002
    71  C   -0.169608
    72  H    0.080624
    73  C   -0.204604
    74  H    0.088389
    75  C   -0.239324
    76  H    0.109903
    77  O   -0.664540
    78  C    0.417111
    79  N   -0.629328
    80  H    0.360183
    81  C   -0.009484
    82  H    0.195274
    83  C    0.573705
    84  C   -0.278953
    85  H    0.197773
    86  H    0.154462
    87  O   -0.445546
    88  C   -0.284566
    89  H    0.165501
    90  H    0.127225
    91  C   -0.287299
    92  H    0.202750
    93  H    0.163200
    94  C   -0.211603
    95  H    0.217754
    96  H    0.218948
    97  N   -0.660904
    98  H    0.367353
    99  H    0.364609
   100  H    0.373568
   101  O   -0.576085
   102  H    0.419905
 Sum of Mulliken charges =   1.00000

 Dipole moment (field-independent basis, Debye):
    X=             17.6793    Y=             -9.6804    Z=             15.9536  Tot=             25.7057
 Quadrupole moment (field-independent basis, Debye-Ang):
   XX=            391.8410   YY=           -202.4559   ZZ=           -224.1616
   XY=           -244.0003   XZ=           -239.4648   YZ=             80.9634

 Normal termination of Gaussian 16 at Mon Jun 27 02:25:47 2022.
