 Gaussian 16, Revision C.01,
 Gaussian 16:  ES64L-G16RevC.01  3-Jul-2019

 ----------------------------------------------------------------------
 # B3LYP/6-31G* empiricaldispersion=gd3 guess=read geom=check nosymm in
 tegral(ultrafinegrid)
 ----------------------------------------------------------------------

 ------------------------------------------------------
 Candidate Structure: Conf:950 Charge calc in gas phase
 ------------------------------------------------------
 Structure from the checkpoint file:  "conf-950.chk"
 Charge =  1 Multiplicity = 1

                          Input orientation:
 ---------------------------------------------------------------------
 Center     Atomic      Atomic             Coordinates (Angstroms)
 Number     Number       Type             X           Y           Z
 ---------------------------------------------------------------------
      1          7           0       -8.218082    5.303193    0.000563
      2          1           0       -8.243191    5.753452    0.922570
      3          1           0       -9.176299    5.251528   -0.365776
      4          1           0       -7.632614    5.892642   -0.625983
      5          6           0       -7.550238    3.951607    0.040483
      6          1           0       -7.943618    3.375133    0.884123
      7          6           0       -6.067889    4.257393    0.247918
      8          6           0       -7.811708    3.157749   -1.266095
      9          1           0       -7.561052    3.828312   -2.104282
     10          8           0       -5.623917    5.265577   -0.314822
     11          6           0       -6.907523    1.913422   -1.374374
     12          1           0       -7.041063    1.246476   -0.513205
     13          1           0       -7.179019    1.356139   -2.274716
     14          1           0       -5.841298    2.150555   -1.453168
     15          6           0       -9.299146    2.761550   -1.369999
     16          1           0       -9.567327    2.067824   -0.562714
     17          1           0       -9.997601    3.613761   -1.319072
     18          1           0       -9.485864    2.255911   -2.320931
     19          7           0       -5.387385    3.382984    0.988744
     20          1           0       -5.778882    2.461534    1.219158
     21          6           0       -3.936154    3.331163    0.901965
     22          1           0       -3.644602    3.625057   -0.113895
     23          6           0       -3.607943    1.835472    1.086399
     24          6           0       -3.231304    4.272185    1.891448
     25          1           0       -3.321782    3.886558    2.919787
     26          1           0       -3.723291    5.255436    1.842863
     27          8           0       -4.527132    1.005264    1.210482
     28          8           0       -1.877366    4.349301    1.469850
     29          1           0       -1.360521    4.819098    2.144079
     30          7           0       -2.312199    1.533912    1.007904
     31          1           0       -1.616555    2.274078    0.943801
     32          6           0       -1.842811    0.165377    1.005264
     33          1           0       -2.317058   -0.411612    1.811992
     34          6           0       -0.326541    0.166921    1.105562
     35          6           0       -2.192865   -0.514922   -0.338381
     36          1           0       -1.877538   -1.566888   -0.330067
     37          1           0       -1.693058   -0.006716   -1.159733
     38          1           0       -3.271213   -0.463763   -0.499236
     39          8           0        0.366265    1.151462    0.841660
     40          7           0        0.206619   -1.065649    1.293560
     41          1           0       -0.415965   -1.843829    1.475262
     42          6           0        1.639549   -1.339823    1.201331
     43          1           0        2.187515   -0.456614    1.545013
     44          6           0        1.948877   -1.483189   -0.322311
     45          6           0        2.040070   -2.549133    2.044586
     46          1           0        1.596816   -3.455497    1.602185
     47          1           0        3.132575   -2.656280    1.956317
     48          8           0        2.413160   -2.540652   -0.823743
     49          6           0        1.676390   -2.469701    3.542869
     50          1           0        0.582431   -2.393340    3.624301
     51          6           0        2.121058   -3.763327    4.244368
     52          1           0        3.211661   -3.886926    4.175078
     53          1           0        1.856349   -3.750540    5.306985
     54          1           0        1.652357   -4.648404    3.793497
     55          6           0        2.296307   -1.238241    4.223478
     56          1           0        3.392680   -1.271560    4.159866
     57          1           0        2.029979   -1.210208    5.285815
     58          1           0        1.958506   -0.298878    3.773117
     59          7           0        1.660794   -0.409525   -1.058063
     60          1           0        1.477160    0.457364   -0.545361
     61          6           0        1.966127   -0.315132   -2.482674
     62          1           0        1.359164   -1.078319   -2.985527
     63          6           0        3.446896   -0.620698   -2.715845
     64          6           0        1.636062    1.111201   -3.039296
     65          1           0        1.888489    1.070329   -4.110881
     66          1           0        2.342029    1.804813   -2.562412
     67          8           0        4.323320   -0.273263   -1.926081
     68          6           0        0.244944    1.664427   -2.809560
     69          6           0       -0.949606    1.179267   -3.387354
     70          1           0       -0.899454    0.327779   -4.073668
     71          6           0        0.115083    2.760620   -1.931018
     72          1           0        1.012212    3.148986   -1.444655
     73          6           0       -2.189326    1.751983   -3.098292
     74          1           0       -3.100683    1.350747   -3.538683
     75          6           0       -1.099587    3.365075   -1.657904
     76          1           0       -1.152374    4.194463   -0.958029
     77          8           0       -3.483215    3.392262   -1.869448
     78          6           0       -2.351032    2.881758   -2.190731
     79          7           0        3.706114   -1.310304   -3.868036
     80          1           0        2.993592   -1.354826   -4.589560
     81          6           0        5.055576   -1.646403   -4.269919
     82          1           0        5.732468   -1.199676   -3.537679
     83          6           0        5.356254   -1.043827   -5.637279
     84          6           0        5.280718   -3.180343   -4.311809
     85          1           0        4.715271   -3.608103   -5.149965
     86          1           0        6.342301   -3.356524   -4.528932
     87          8           0        4.511119   -0.674615   -6.423594
     88          6           0        4.886169   -3.904280   -3.012618
     89          1           0        5.085580   -4.979093   -3.156787
     90          1           0        3.803462   -3.795619   -2.861090
     91          6           0        5.631453   -3.406815   -1.757156
     92          1           0        6.710439   -3.371181   -1.956340
     93          1           0        5.322839   -2.381815   -1.519900
     94          6           0        5.434940   -4.304393   -0.532267
     95          1           0        5.869851   -3.845970    0.359141
     96          1           0        5.943336   -5.262325   -0.681832
     97          7           0        3.976576   -4.587926   -0.239583
     98          1           0        3.830922   -4.863579    0.737042
     99          1           0        3.333778   -3.729363   -0.415509
    100          1           0        3.622466   -5.341113   -0.836942
    101          8           0        6.684527   -1.019232   -5.881920
    102          1           0        6.802240   -0.650595   -6.782491
 ---------------------------------------------------------------------

 SCF Done:  E(RB3LYP) =  -2312.17381117     A.U. after    1 cycles

 Alpha  occ. eigenvalues --  -19.27113 -19.22891 -19.21466 -19.20859 -19.20170
 Alpha  occ. eigenvalues --  -19.20131 -19.18613 -19.17311 -19.06883 -14.58449
 Alpha  occ. eigenvalues --  -14.56303 -14.45170 -14.44004 -14.43367 -14.43149
 Alpha  occ. eigenvalues --  -14.40855 -10.39465 -10.38649 -10.37264 -10.36993
 Alpha  occ. eigenvalues --  -10.36541 -10.36187 -10.35777 -10.33899 -10.33098
 Alpha  occ. eigenvalues --  -10.31394 -10.30267 -10.29986 -10.29865 -10.29317
 Alpha  occ. eigenvalues --  -10.29232 -10.29208 -10.28687 -10.28324 -10.27983
 Alpha  occ. eigenvalues --  -10.27860 -10.26240 -10.26206 -10.25433 -10.24592
 Alpha  occ. eigenvalues --  -10.23815 -10.22839 -10.21963 -10.19135 -10.18592
 Alpha  occ. eigenvalues --  -10.18420 -10.16764 -10.15774  -1.17810  -1.14121
 Alpha  occ. eigenvalues --   -1.13607  -1.12177  -1.10824  -1.10501  -1.10358
 Alpha  occ. eigenvalues --   -1.08992  -1.08888  -1.07873  -1.02072  -1.00535
 Alpha  occ. eigenvalues --   -1.00073  -1.00035  -0.98113  -0.95424  -0.91127
 Alpha  occ. eigenvalues --   -0.90818  -0.90520  -0.86921  -0.85832  -0.84566
 Alpha  occ. eigenvalues --   -0.83677  -0.82329  -0.81755  -0.80255  -0.79355
 Alpha  occ. eigenvalues --   -0.77045  -0.76695  -0.75215  -0.74873  -0.73395
 Alpha  occ. eigenvalues --   -0.72872  -0.72379  -0.71906  -0.71282  -0.70761
 Alpha  occ. eigenvalues --   -0.70529  -0.69749  -0.68941  -0.68455  -0.68004
 Alpha  occ. eigenvalues --   -0.66415  -0.66369  -0.65940  -0.65536  -0.65443
 Alpha  occ. eigenvalues --   -0.64541  -0.63083  -0.63052  -0.61174  -0.60833
 Alpha  occ. eigenvalues --   -0.60085  -0.59637  -0.59176  -0.58848  -0.57919
 Alpha  occ. eigenvalues --   -0.57518  -0.56856  -0.56623  -0.56233  -0.55766
 Alpha  occ. eigenvalues --   -0.55674  -0.54883  -0.54696  -0.54595  -0.53794
 Alpha  occ. eigenvalues --   -0.52803  -0.52754  -0.52564  -0.51690  -0.51627
 Alpha  occ. eigenvalues --   -0.51593  -0.51204  -0.50912  -0.50697  -0.49989
 Alpha  occ. eigenvalues --   -0.49735  -0.49550  -0.49208  -0.49052  -0.48586
 Alpha  occ. eigenvalues --   -0.48313  -0.48220  -0.47536  -0.47277  -0.46967
 Alpha  occ. eigenvalues --   -0.46741  -0.46635  -0.46409  -0.46231  -0.46148
 Alpha  occ. eigenvalues --   -0.45663  -0.45522  -0.45088  -0.45034  -0.44626
 Alpha  occ. eigenvalues --   -0.44198  -0.43899  -0.43629  -0.43389  -0.43211
 Alpha  occ. eigenvalues --   -0.42952  -0.42629  -0.42189  -0.42157  -0.41879
 Alpha  occ. eigenvalues --   -0.41800  -0.41577  -0.41470  -0.41298  -0.40451
 Alpha  occ. eigenvalues --   -0.40049  -0.39152  -0.39106  -0.38320  -0.37815
 Alpha  occ. eigenvalues --   -0.36157  -0.35562  -0.35170  -0.35006  -0.34560
 Alpha  occ. eigenvalues --   -0.33983  -0.33601  -0.33279  -0.33083  -0.32762
 Alpha  occ. eigenvalues --   -0.32630  -0.32023  -0.31200  -0.30526  -0.29384
 Alpha  occ. eigenvalues --   -0.24123  -0.20820  -0.17285
 Alpha virt. eigenvalues --   -0.09273  -0.09167  -0.08695  -0.06616  -0.06467
 Alpha virt. eigenvalues --   -0.05594  -0.04755  -0.04038  -0.03843  -0.02641
 Alpha virt. eigenvalues --   -0.01536  -0.01436  -0.01019   0.00248   0.00415

 Mulliken charges:
               1
     1  N   -0.732354
     2  H    0.417248
     3  H    0.407007
     4  H    0.423404
     5  C   -0.131219
     6  H    0.188136
     7  C    0.656215
     8  C   -0.091487
     9  H    0.172095
    10  O   -0.528077
    11  C   -0.493614
    12  H    0.153935
    13  H    0.167623
    14  H    0.237392
    15  C   -0.465979
    16  H    0.167761
    17  H    0.118916
    18  H    0.193098
    19  N   -0.625950
    20  H    0.363622
    21  C   -0.113020
    22  H    0.315125
    23  C    0.621843
    24  C   -0.032614
    25  H    0.119222
    26  H    0.147045
    27  O   -0.585812
    28  O   -0.602214
    29  H    0.405085
    30  N   -0.613780
    31  H    0.401553
    32  C   -0.029838
    33  H    0.160949
    34  C    0.627897
    35  C   -0.468356
    36  H    0.111018
    37  H    0.224447
    38  H    0.194305
    39  O   -0.531140
    40  N   -0.604507
    41  H    0.340105
    42  C   -0.072309
    43  H    0.207523
    44  C    0.662500
    45  C   -0.297172
    46  H    0.125732
    47  H    0.124132
    48  O   -0.621160
    49  C   -0.069783
    50  H    0.134698
    51  C   -0.447652
    52  H    0.134270
    53  H    0.169947
    54  H    0.137060
    55  C   -0.457970
    56  H    0.145521
    57  H    0.163372
    58  H    0.166331
    59  N   -0.589117
    60  H    0.407343
    61  C   -0.036001
    62  H    0.158651
    63  C    0.643274
    64  C   -0.405779
    65  H    0.152772
    66  H    0.165710
    67  O   -0.543751
    68  C    0.152305
    69  C   -0.204894
    70  H    0.079635
    71  C   -0.182506
    72  H    0.091486
    73  C   -0.214312
    74  H    0.081958
    75  C   -0.245597
    76  H    0.115278
    77  O   -0.682618
    78  C    0.419424
    79  N   -0.602856
    80  H    0.349210
    81  C   -0.057015
    82  H    0.210023
    83  C    0.588169
    84  C   -0.276254
    85  H    0.159038
    86  H    0.170913
    87  O   -0.453741
    88  C   -0.290867
    89  H    0.135478
    90  H    0.161198
    91  C   -0.304687
    92  H    0.174623
    93  H    0.220660
    94  C   -0.196147
    95  H    0.206193
    96  H    0.198097
    97  N   -0.779246
    98  H    0.398267
    99  H    0.471378
   100  H    0.401266
   101  O   -0.562501
   102  H    0.425416
 Sum of Mulliken charges =   1.00000

 Dipole moment (field-independent basis, Debye):
    X=             -6.7041    Y=             -7.8104    Z=              5.7554  Tot=             11.7929
 Quadrupole moment (field-independent basis, Debye-Ang):
   XX=              5.0788   YY=           -151.4439   ZZ=           -257.8980
   XY=           -181.0704   XZ=            -34.3973   YZ=             34.5998

 Normal termination of Gaussian 16 at Mon Jun 27 02:45:15 2022.
