 Gaussian 16, Revision C.01,
 Gaussian 16:  ES64L-G16RevC.01  3-Jul-2019

 ----------------------------------------------------------------------
 # B3LYP/6-31G* empiricaldispersion=gd3 guess=read geom=check nosymm in
 tegral(ultrafinegrid)
 ----------------------------------------------------------------------

 ------------------------------------------------------
 Candidate Structure: Conf:962 Charge calc in gas phase
 ------------------------------------------------------
 Structure from the checkpoint file:  "conf-962.chk"
 Charge =  1 Multiplicity = 1

                          Input orientation:
 ---------------------------------------------------------------------
 Center     Atomic      Atomic             Coordinates (Angstroms)
 Number     Number       Type             X           Y           Z
 ---------------------------------------------------------------------
      1          7           0       -5.936583    3.092563   -1.112483
      2          1           0       -6.738025    3.384525   -1.667333
      3          1           0       -5.311576    1.597845   -1.863973
      4          1           0       -5.187551    3.765032   -1.274066
      5          6           0       -6.283932    3.113803    0.317799
      6          1           0       -6.848490    4.027136    0.574864
      7          6           0       -4.964647    3.194250    1.102904
      8          6           0       -7.174226    1.902214    0.714132
      9          1           0       -7.535798    2.106135    1.734341
     10          8           0       -3.892689    3.430026    0.536847
     11          6           0       -8.416362    1.830184   -0.187022
     12          1           0       -8.141718    1.542550   -1.208028
     13          1           0       -9.114533    1.074652    0.187359
     14          1           0       -8.949055    2.788671   -0.224441
     15          6           0       -6.424389    0.561186    0.725042
     16          1           0       -6.051803    0.304254   -0.269652
     17          1           0       -5.571628    0.577014    1.411969
     18          1           0       -7.098932   -0.238732    1.049609
     19          7           0       -5.041462    3.023096    2.445578
     20          1           0       -5.914021    2.710965    2.850707
     21          6           0       -3.860515    3.017180    3.308660
     22          1           0       -3.161926    3.762677    2.916776
     23          6           0       -3.167301    1.633501    3.286320
     24          6           0       -4.260276    3.399035    4.743508
     25          1           0       -5.039738    2.702637    5.096317
     26          1           0       -4.686254    4.407041    4.732760
     27          8           0       -3.077927    0.937900    4.301267
     28          8           0       -3.145607    3.417442    5.603473
     29          1           0       -2.871602    2.486372    5.683696
     30          7           0       -2.708342    1.243628    2.070279
     31          1           0       -2.721033    1.907125    1.298891
     32          6           0       -2.047880   -0.030098    1.870730
     33          1           0       -2.036714   -0.528801    2.843938
     34          6           0       -0.617236    0.218227    1.387360
     35          6           0       -2.781262   -0.900504    0.832017
     36          1           0       -2.266380   -1.857592    0.689271
     37          1           0       -2.827439   -0.389939   -0.134183
     38          1           0       -3.800106   -1.101642    1.173175
     39          8           0       -0.307591    1.206329    0.724822
     40          7           0        0.285306   -0.761154    1.693623
     41          1           0       -0.044928   -1.615906    2.122447
     42          6           0        1.646092   -0.726144    1.166487
     43          1           0        1.916409    0.331890    1.108303
     44          6           0        1.703984   -1.296227   -0.268407
     45          6           0        2.628034   -1.464181    2.076895
     46          1           0        2.393500   -2.538493    2.036422
     47          1           0        3.622625   -1.339356    1.619990
     48          8           0        2.273283   -2.368790   -0.525427
     49          6           0        2.687076   -0.992558    3.538844
     50          1           0        1.709786   -1.184798    4.001452
     51          6           0        3.736585   -1.823423    4.292389
     52          1           0        4.743797   -1.639817    3.882438
     53          1           0        3.780755   -1.558368    5.353444
     54          1           0        3.516387   -2.900019    4.238651
     55          6           0        2.984731    0.507877    3.658527
     56          1           0        3.921929    0.765505    3.147476
     57          1           0        3.085615    0.800830    4.708708
     58          1           0        2.184442    1.114912    3.224160
     59          7           0        1.107139   -0.544687   -1.205400
     60          1           0        0.651447    0.319665   -0.921032
     61          6           0        1.192220   -0.878227   -2.624144
     62          1           0        0.714690   -1.852316   -2.786192
     63          6           0        2.683681   -0.928069   -3.011275
     64          6           0        0.477820    0.203123   -3.460848
     65          1           0        0.606067   -0.067280   -4.516090
     66          1           0        1.017891    1.144707   -3.309792
     67          8           0        3.424218    0.023546   -2.785919
     68          6           0       -0.989108    0.357585   -3.128926
     69          6           0       -1.931879   -0.568857   -3.602477
     70          1           0       -1.600638   -1.401841   -4.220469
     71          6           0       -1.452348    1.416729   -2.340935
     72          1           0       -0.749467    2.148089   -1.948664
     73          6           0       -3.285921   -0.431396   -3.323628
     74          1           0       -4.016140   -1.135401   -3.710361
     75          6           0       -2.808402    1.570004   -2.046173
     76          1           0       -3.137878    2.394266   -1.422518
     77          8           0       -5.074782    0.753763   -2.344933
     78          6           0       -3.742613    0.653265   -2.554797
     79          7           0        3.102672   -2.077789   -3.600262
     80          1           0        2.463596   -2.851066   -3.732413
     81          6           0        4.488075   -2.320572   -3.952490
     82          1           0        4.952455   -1.364934   -4.211204
     83          6           0        4.510782   -3.250959   -5.158498
     84          6           0        5.278343   -2.989918   -2.793921
     85          1           0        4.708747   -3.883337   -2.504479
     86          1           0        6.248911   -3.333689   -3.172439
     87          8           0        3.592728   -3.972573   -5.480252
     88          6           0        5.478802   -2.049523   -1.595787
     89          1           0        4.547077   -1.529775   -1.374125
     90          1           0        6.207986   -1.276386   -1.860032
     91          6           0        5.945033   -2.749195   -0.305385
     92          1           0        6.919037   -3.238637   -0.439413
     93          1           0        6.078000   -1.973424    0.463156
     94          6           0        4.904588   -3.761380    0.177021
     95          1           0        4.999401   -4.735030   -0.307599
     96          1           0        3.884472   -3.381898    0.054128
     97          7           0        5.074390   -4.026491    1.675868
     98          1           0        4.446727   -4.769801    2.002157
     99          1           0        6.036227   -4.300711    1.907898
    100          1           0        4.848358   -3.183065    2.220822
    101          8           0        5.702413   -3.217664   -5.783890
    102          1           0        5.663058   -3.858249   -6.520178
 ---------------------------------------------------------------------

 SCF Done:  E(RB3LYP) =  -2312.24626407     A.U. after    1 cycles

 Alpha  occ. eigenvalues --  -19.28525 -19.22973 -19.21807 -19.21190 -19.20287
 Alpha  occ. eigenvalues --  -19.20184 -19.19244 -19.19241 -19.19068 -14.62485
 Alpha  occ. eigenvalues --  -14.46347 -14.44694 -14.44649 -14.44277 -14.42908
 Alpha  occ. eigenvalues --  -14.40899 -10.40959 -10.38297 -10.38264 -10.38026
 Alpha  occ. eigenvalues --  -10.37122 -10.36500 -10.36170 -10.33457 -10.32820
 Alpha  occ. eigenvalues --  -10.32615 -10.31459 -10.31346 -10.30576 -10.30500
 Alpha  occ. eigenvalues --  -10.30308 -10.29955 -10.29610 -10.29553 -10.29456
 Alpha  occ. eigenvalues --  -10.29232 -10.28820 -10.27112 -10.26728 -10.26250
 Alpha  occ. eigenvalues --  -10.25630 -10.24443 -10.24312 -10.24249 -10.24177
 Alpha  occ. eigenvalues --  -10.23426 -10.23301 -10.23083  -1.19476  -1.16439
 Alpha  occ. eigenvalues --   -1.13692  -1.12906  -1.12265  -1.11266  -1.10882
 Alpha  occ. eigenvalues --   -1.10552  -1.08687  -1.06951  -1.02690  -1.01258
 Alpha  occ. eigenvalues --   -1.00973  -1.00926  -0.99591  -0.97533  -0.93319
 Alpha  occ. eigenvalues --   -0.92266  -0.90483  -0.88186  -0.87088  -0.86584
 Alpha  occ. eigenvalues --   -0.85280  -0.84033  -0.82753  -0.82208  -0.79619
 Alpha  occ. eigenvalues --   -0.79275  -0.78928  -0.77624  -0.76191  -0.76108
 Alpha  occ. eigenvalues --   -0.75051  -0.74948  -0.74228  -0.73613  -0.72462
 Alpha  occ. eigenvalues --   -0.71305  -0.69681  -0.69053  -0.68252  -0.67718
 Alpha  occ. eigenvalues --   -0.67395  -0.67028  -0.66933  -0.66275  -0.65692
 Alpha  occ. eigenvalues --   -0.64402  -0.64170  -0.63996  -0.62415  -0.61281
 Alpha  occ. eigenvalues --   -0.60553  -0.59955  -0.59607  -0.58925  -0.58726
 Alpha  occ. eigenvalues --   -0.58142  -0.57839  -0.57197  -0.57117  -0.56538
 Alpha  occ. eigenvalues --   -0.56128  -0.56030  -0.55598  -0.55343  -0.54997
 Alpha  occ. eigenvalues --   -0.54490  -0.54321  -0.53938  -0.53503  -0.52467
 Alpha  occ. eigenvalues --   -0.52369  -0.51987  -0.51927  -0.51736  -0.51169
 Alpha  occ. eigenvalues --   -0.50858  -0.50479  -0.50145  -0.49797  -0.49638
 Alpha  occ. eigenvalues --   -0.49410  -0.49086  -0.49036  -0.48884  -0.48627
 Alpha  occ. eigenvalues --   -0.48260  -0.47869  -0.47722  -0.47632  -0.47101
 Alpha  occ. eigenvalues --   -0.46932  -0.46837  -0.46646  -0.46413  -0.46173
 Alpha  occ. eigenvalues --   -0.45557  -0.45488  -0.45177  -0.44953  -0.44720
 Alpha  occ. eigenvalues --   -0.44295  -0.44271  -0.44178  -0.43978  -0.43538
 Alpha  occ. eigenvalues --   -0.43470  -0.43329  -0.43248  -0.42928  -0.42137
 Alpha  occ. eigenvalues --   -0.41272  -0.40629  -0.40596  -0.40405  -0.39960
 Alpha  occ. eigenvalues --   -0.39210  -0.38283  -0.37861  -0.37236  -0.36664
 Alpha  occ. eigenvalues --   -0.35939  -0.35487  -0.35117  -0.34216  -0.34104
 Alpha  occ. eigenvalues --   -0.33369  -0.33124  -0.32878  -0.32501  -0.32391
 Alpha  occ. eigenvalues --   -0.31185  -0.30113  -0.26282
 Alpha virt. eigenvalues --   -0.13354  -0.08773  -0.08034  -0.07499  -0.07135
 Alpha virt. eigenvalues --   -0.06763  -0.06501  -0.05863  -0.05245  -0.04698
 Alpha virt. eigenvalues --   -0.04583  -0.03589  -0.02711  -0.01659  -0.00833

 Mulliken charges:
               1
     1  N   -0.778369
     2  H    0.333666
     3  H    0.477811
     4  H    0.347608
     5  C   -0.060855
     6  H    0.161406
     7  C    0.630219
     8  C   -0.087037
     9  H    0.121896
    10  O   -0.542025
    11  C   -0.466971
    12  H    0.168383
    13  H    0.165090
    14  H    0.146642
    15  C   -0.488917
    16  H    0.191940
    17  H    0.142242
    18  H    0.152979
    19  N   -0.604781
    20  H    0.345347
    21  C   -0.085607
    22  H    0.204756
    23  C    0.619348
    24  C   -0.035758
    25  H    0.128608
    26  H    0.160989
    27  O   -0.544467
    28  O   -0.622269
    29  H    0.415764
    30  N   -0.602872
    31  H    0.386613
    32  C   -0.076551
    33  H    0.182751
    34  C    0.641803
    35  C   -0.466005
    36  H    0.138948
    37  H    0.202697
    38  H    0.181570
    39  O   -0.530227
    40  N   -0.605973
    41  H    0.336527
    42  C   -0.070535
    43  H    0.208137
    44  C    0.650830
    45  C   -0.300520
    46  H    0.119357
    47  H    0.126206
    48  O   -0.573127
    49  C   -0.063209
    50  H    0.149477
    51  C   -0.468549
    52  H    0.124554
    53  H    0.190610
    54  H    0.117126
    55  C   -0.460513
    56  H    0.144423
    57  H    0.167487
    58  H    0.179394
    59  N   -0.612117
    60  H    0.392406
    61  C   -0.019966
    62  H    0.156031
    63  C    0.644490
    64  C   -0.407887
    65  H    0.169186
    66  H    0.183169
    67  O   -0.543556
    68  C    0.164123
    69  C   -0.189243
    70  H    0.120513
    71  C   -0.202923
    72  H    0.140236
    73  C   -0.163678
    74  H    0.140487
    75  C   -0.235044
    76  H    0.168855
    77  O   -0.696151
    78  C    0.341373
    79  N   -0.597184
    80  H    0.348452
    81  C   -0.043128
    82  H    0.209353
    83  C    0.582148
    84  C   -0.277594
    85  H    0.140929
    86  H    0.168795
    87  O   -0.457949
    88  C   -0.277530
    89  H    0.200990
    90  H    0.173140
    91  C   -0.301465
    92  H    0.165845
    93  H    0.153999
    94  C   -0.242135
    95  H    0.208972
    96  H    0.288246
    97  N   -0.751049
    98  H    0.420620
    99  H    0.416119
   100  H    0.425550
   101  O   -0.559912
   102  H    0.426416
 Sum of Mulliken charges =   1.00000

 Dipole moment (field-independent basis, Debye):
    X=             12.9060    Y=            -14.4584    Z=              5.3599  Tot=             20.1082
 Quadrupole moment (field-independent basis, Debye-Ang):
   XX=           -106.4295   YY=           -211.1426   ZZ=           -261.4753
   XY=           -116.5765   XZ=             12.0261   YZ=            -21.8631

 Normal termination of Gaussian 16 at Mon Jun 27 02:45:16 2022.
