 Gaussian 16, Revision C.01,
 Gaussian 16:  ES64L-G16RevC.01  3-Jul-2019

 ----------------------------------------------------------------------
 # B3LYP/6-31G* empiricaldispersion=gd3 guess=read geom=check nosymm in
 tegral(ultrafinegrid)
 ----------------------------------------------------------------------

 ------------------------------------------------------
 Candidate Structure: Conf:772 Charge calc in gas phase
 ------------------------------------------------------
 Structure from the checkpoint file:  "conf-772.chk"
 Charge =  1 Multiplicity = 1

                          Input orientation:
 ---------------------------------------------------------------------
 Center     Atomic      Atomic             Coordinates (Angstroms)
 Number     Number       Type             X           Y           Z
 ---------------------------------------------------------------------
      1          7           0       -6.197447   -1.725577   -0.212772
      2          1           0       -6.941634   -2.347182    0.113074
      3          1           0       -5.924011   -1.997749   -1.160655
      4          1           0       -6.553111   -0.725037   -0.201076
      5          6           0       -5.012128   -1.650139    0.736092
      6          1           0       -5.116749   -2.457614    1.466162
      7          6           0       -5.233686   -0.274185    1.422567
      8          6           0       -3.682666   -1.822733   -0.050359
      9          1           0       -3.737582   -2.840411   -0.467585
     10          8           0       -6.070502    0.491741    0.934912
     11          6           0       -3.525276   -0.815982   -1.203102
     12          1           0       -3.605399    0.209822   -0.840511
     13          1           0       -2.529966   -0.926100   -1.641118
     14          1           0       -4.257244   -0.968103   -2.009288
     15          6           0       -2.473466   -1.780784    0.895532
     16          1           0       -2.290128   -0.764387    1.246756
     17          1           0       -2.594936   -2.460069    1.750136
     18          1           0       -1.576306   -2.074416    0.347567
     19          7           0       -4.540503   -0.043605    2.548414
     20          1           0       -3.788249   -0.681933    2.784997
     21          6           0       -4.316954    1.312354    3.041638
     22          1           0       -5.273452    1.843848    3.056093
     23          6           0       -3.361917    2.030772    2.040389
     24          6           0       -3.746466    1.196204    4.455336
     25          1           0       -4.484551    0.705191    5.104958
     26          1           0       -3.548840    2.192406    4.875412
     27          8           0       -3.205155    1.562724    0.911542
     28          8           0       -2.561446    0.423509    4.318749
     29          1           0       -2.117490    0.322885    5.174391
     30          7           0       -2.759766    3.162569    2.446862
     31          1           0       -2.822280    3.457551    3.411539
     32          6           0       -1.789817    3.881770    1.597086
     33          1           0       -2.167847    3.803240    0.573311
     34          6           0       -0.404647    3.181178    1.681723
     35          6           0       -1.697885    5.338490    2.030394
     36          1           0       -1.010066    5.876451    1.374066
     37          1           0       -1.294362    5.415651    3.044802
     38          1           0       -2.681162    5.816277    1.983278
     39          8           0        0.539079    3.705209    2.262968
     40          7           0       -0.362851    1.963706    1.086600
     41          1           0       -1.190720    1.603045    0.621089
     42          6           0        0.809539    1.102641    1.089438
     43          1           0        1.692440    1.742236    1.170657
     44          6           0        0.798883    0.332671   -0.238128
     45          6           0        0.790705    0.064099    2.236866
     46          1           0       -0.087786   -0.574286    2.079929
     47          1           0        1.673978   -0.581868    2.125873
     48          8           0       -0.257112   -0.138005   -0.682961
     49          6           0        0.757663    0.635861    3.664560
     50          1           0       -0.093801    1.326268    3.726726
     51          6           0        0.510671   -0.506628    4.662639
     52          1           0        1.343928   -1.220341    4.659590
     53          1           0        0.421979   -0.121867    5.687218
     54          1           0       -0.401773   -1.065530    4.417850
     55          6           0        2.038923    1.401610    4.019464
     56          1           0        2.920071    0.755310    3.912542
     57          1           0        2.007410    1.747087    5.059520
     58          1           0        2.163666    2.283138    3.386340
     59          7           0        1.992242    0.173355   -0.835180
     60          1           0        2.855115    0.500425   -0.407375
     61          6           0        2.185230   -0.646952   -2.017743
     62          1           0        1.657545   -1.598018   -1.873430
     63          6           0        3.701477   -0.932944   -2.090739
     64          6           0        1.598568    0.043276   -3.285996
     65          1           0        2.134073    0.986096   -3.440620
     66          1           0        0.562187    0.291756   -3.033443
     67          8           0        4.486027   -0.448684   -1.276877
     68          6           0        1.656581   -0.803589   -4.540326
     69          6           0        2.414530   -0.398685   -5.650787
     70          1           0        2.936883    0.553621   -5.617788
     71          6           0        1.025465   -2.056195   -4.606724
     72          1           0        0.417156   -2.394413   -3.769719
     73          6           0        2.556217   -1.211765   -6.770564
     74          1           0        3.155853   -0.899017   -7.619518
     75          6           0        1.173352   -2.890573   -5.716342
     76          1           0        0.678371   -3.857454   -5.748803
     77          8           0        2.160390   -3.244376   -7.905575
     78          6           0        1.952639   -2.479294   -6.811980
     79          7           0        4.079042   -1.770510   -3.082464
     80          1           0        3.404826   -1.948799   -3.815334
     81          6           0        5.473448   -2.061236   -3.376305
     82          1           0        5.924400   -2.592704   -2.532897
     83          6           0        6.323488   -0.807115   -3.581962
     84          6           0        5.543281   -2.912495   -4.662889
     85          1           0        5.145713   -2.299081   -5.482783
     86          1           0        6.596461   -3.108768   -4.889452
     87          8           0        7.507719   -0.756994   -3.352567
     88          6           0        4.745575   -4.225487   -4.582033
     89          1           0        3.785499   -4.034830   -4.087571
     90          1           0        5.274669   -4.949800   -3.949299
     91          6           0        4.448740   -4.812042   -5.970878
     92          1           0        4.145706   -3.998351   -6.637097
     93          1           0        5.356399   -5.247883   -6.409335
     94          6           0        3.316217   -5.849338   -5.953082
     95          1           0        2.558181   -5.546535   -5.221275
     96          1           0        3.694946   -6.833375   -5.637422
     97          7           0        2.634230   -5.895140   -7.267395
     98          1           0        1.923085   -6.625541   -7.272258
     99          1           0        2.115979   -4.221040   -7.684350
    100          1           0        3.302989   -6.147669   -7.995924
    101          8           0        5.622978    0.209986   -4.141509
    102          1           0        6.257873    0.941584   -4.258421
 ---------------------------------------------------------------------

 SCF Done:  E(RB3LYP) =  -2312.24025778     A.U. after    1 cycles

 Alpha  occ. eigenvalues --  -19.27340 -19.26768 -19.24947 -19.22856 -19.20312
 Alpha  occ. eigenvalues --  -19.19169 -19.18901 -19.18689 -19.18518 -14.59535
 Alpha  occ. eigenvalues --  -14.49485 -14.47170 -14.43169 -14.42441 -14.42185
 Alpha  occ. eigenvalues --  -14.40801 -10.43537 -10.40097 -10.40027 -10.37111
 Alpha  occ. eigenvalues --  -10.36414 -10.36111 -10.36030 -10.35756 -10.35517
 Alpha  occ. eigenvalues --  -10.33222 -10.32001 -10.30585 -10.30251 -10.30207
 Alpha  occ. eigenvalues --  -10.29830 -10.28207 -10.28170 -10.27879 -10.25775
 Alpha  occ. eigenvalues --  -10.25761 -10.25550 -10.25525 -10.25522 -10.25342
 Alpha  occ. eigenvalues --  -10.25299 -10.24975 -10.24897 -10.24807 -10.24553
 Alpha  occ. eigenvalues --  -10.24467 -10.24009 -10.22319  -1.19281  -1.15663
 Alpha  occ. eigenvalues --   -1.15362  -1.14353  -1.13439  -1.11225  -1.10465
 Alpha  occ. eigenvalues --   -1.10063  -1.08953  -1.06681  -1.06309  -1.03110
 Alpha  occ. eigenvalues --   -0.99797  -0.99437  -0.99214  -0.96431  -0.94080
 Alpha  occ. eigenvalues --   -0.91290  -0.89596  -0.87821  -0.87036  -0.85573
 Alpha  occ. eigenvalues --   -0.84945  -0.84232  -0.82062  -0.81729  -0.80576
 Alpha  occ. eigenvalues --   -0.79615  -0.78438  -0.76975  -0.75672  -0.74533
 Alpha  occ. eigenvalues --   -0.74277  -0.74170  -0.73522  -0.72967  -0.72479
 Alpha  occ. eigenvalues --   -0.70807  -0.69880  -0.69096  -0.68209  -0.67676
 Alpha  occ. eigenvalues --   -0.67378  -0.66224  -0.65881  -0.65385  -0.64987
 Alpha  occ. eigenvalues --   -0.64742  -0.64518  -0.63635  -0.63465  -0.62346
 Alpha  occ. eigenvalues --   -0.61612  -0.60816  -0.59398  -0.59320  -0.58619
 Alpha  occ. eigenvalues --   -0.58452  -0.56867  -0.56558  -0.56475  -0.56398
 Alpha  occ. eigenvalues --   -0.56025  -0.55237  -0.54969  -0.54603  -0.53854
 Alpha  occ. eigenvalues --   -0.53785  -0.53424  -0.53330  -0.53167  -0.52965
 Alpha  occ. eigenvalues --   -0.52419  -0.52180  -0.52053  -0.51261  -0.50961
 Alpha  occ. eigenvalues --   -0.50541  -0.50397  -0.50083  -0.50056  -0.49446
 Alpha  occ. eigenvalues --   -0.49279  -0.49039  -0.48682  -0.48229  -0.48051
 Alpha  occ. eigenvalues --   -0.47821  -0.47352  -0.47065  -0.46864  -0.46541
 Alpha  occ. eigenvalues --   -0.46457  -0.46224  -0.45928  -0.45693  -0.45493
 Alpha  occ. eigenvalues --   -0.45394  -0.45232  -0.45074  -0.44952  -0.44692
 Alpha  occ. eigenvalues --   -0.44399  -0.44294  -0.43866  -0.43240  -0.42803
 Alpha  occ. eigenvalues --   -0.42551  -0.42328  -0.41505  -0.41126  -0.40925
 Alpha  occ. eigenvalues --   -0.40536  -0.40217  -0.39880  -0.39751  -0.39619
 Alpha  occ. eigenvalues --   -0.39162  -0.38873  -0.38826  -0.38440  -0.37654
 Alpha  occ. eigenvalues --   -0.36936  -0.36749  -0.36312  -0.34284  -0.33763
 Alpha  occ. eigenvalues --   -0.33080  -0.33028  -0.32496  -0.31716  -0.31577
 Alpha  occ. eigenvalues --   -0.31349  -0.30795  -0.27136
 Alpha virt. eigenvalues --   -0.12438  -0.10730  -0.09128  -0.06775  -0.06247
 Alpha virt. eigenvalues --   -0.06024  -0.05382  -0.04969  -0.04617  -0.04432
 Alpha virt. eigenvalues --   -0.03818  -0.03429  -0.02095  -0.00531   0.00153

 Mulliken charges:
               1
     1  N   -0.760210
     2  H    0.413361
     3  H    0.412963
     4  H    0.434755
     5  C   -0.121162
     6  H    0.205619
     7  C    0.678393
     8  C   -0.102036
     9  H    0.149950
    10  O   -0.533289
    11  C   -0.500241
    12  H    0.226436
    13  H    0.218010
    14  H    0.115329
    15  C   -0.488891
    16  H    0.197902
    17  H    0.136639
    18  H    0.204235
    19  N   -0.592875
    20  H    0.373681
    21  C   -0.101498
    22  H    0.219072
    23  C    0.673710
    24  C   -0.066170
    25  H    0.171468
    26  H    0.152945
    27  O   -0.536339
    28  O   -0.619440
    29  H    0.429556
    30  N   -0.597833
    31  H    0.344210
    32  C   -0.071026
    33  H    0.189821
    34  C    0.627296
    35  C   -0.463441
    36  H    0.188992
    37  H    0.172511
    38  H    0.157312
    39  O   -0.515351
    40  N   -0.630349
    41  H    0.381437
    42  C   -0.051747
    43  H    0.180754
    44  C    0.624616
    45  C   -0.264578
    46  H    0.140970
    47  H    0.143519
    48  O   -0.571334
    49  C   -0.066043
    50  H    0.124059
    51  C   -0.462531
    52  H    0.156178
    53  H    0.135288
    54  H    0.126387
    55  C   -0.463411
    56  H    0.138350
    57  H    0.140891
    58  H    0.189998
    59  N   -0.613493
    60  H    0.365016
    61  C   -0.057683
    62  H    0.171558
    63  C    0.626512
    64  C   -0.339371
    65  H    0.160404
    66  H    0.182323
    67  O   -0.533386
    68  C    0.093808
    69  C   -0.177137
    70  H    0.142712
    71  C   -0.202359
    72  H    0.123093
    73  C   -0.167119
    74  H    0.149312
    75  C   -0.190283
    76  H    0.126482
    77  O   -0.690108
    78  C    0.364867
    79  N   -0.636945
    80  H    0.374578
    81  C    0.000430
    82  H    0.188549
    83  C    0.599721
    84  C   -0.327249
    85  H    0.166519
    86  H    0.177340
    87  O   -0.457706
    88  C   -0.274377
    89  H    0.141471
    90  H    0.149702
    91  C   -0.288542
    92  H    0.171910
    93  H    0.147467
    94  C   -0.138242
    95  H    0.146031
    96  H    0.144776
    97  N   -0.768846
    98  H    0.322760
    99  H    0.457336
   100  H    0.329111
   101  O   -0.574865
   102  H    0.417108
 Sum of Mulliken charges =   1.00000

 Dipole moment (field-independent basis, Debye):
    X=            -20.3465    Y=            -10.5474    Z=              1.4996  Tot=             22.9669
 Quadrupole moment (field-independent basis, Debye-Ang):
   XX=           -174.4678   YY=           -207.1624   ZZ=           -212.1907
   XY=             11.9884   XZ=            -50.5740   YZ=             49.2152

 Normal termination of Gaussian 16 at Mon Jun 27 02:45:13 2022.
