 Gaussian 16, Revision C.01,
 Gaussian 16:  ES64L-G16RevC.01  3-Jul-2019

 ----------------------------------------------------------------------
 # B3LYP/6-31G* empiricaldispersion=gd3 guess=read geom=check nosymm in
 tegral(ultrafinegrid)
 ----------------------------------------------------------------------

 ------------------------------------------------------
 Candidate Structure: Conf:705 Charge calc in gas phase
 ------------------------------------------------------
 Structure from the checkpoint file:  "conf-705.chk"
 Charge =  1 Multiplicity = 1

                          Input orientation:
 ---------------------------------------------------------------------
 Center     Atomic      Atomic             Coordinates (Angstroms)
 Number     Number       Type             X           Y           Z
 ---------------------------------------------------------------------
      1          7           0       -6.211735    2.483297    3.431202
      2          1           0       -6.237300    2.607904    4.447621
      3          1           0       -6.976692    3.020385    3.006419
      4          1           0       -5.280403    2.823638    3.095652
      5          6           0       -6.189229    1.016108    3.027386
      6          1           0       -6.788098    0.436781    3.736859
      7          6           0       -4.703581    0.687380    3.123426
      8          6           0       -6.790507    0.851503    1.605034
      9          1           0       -7.838270    1.185734    1.680415
     10          8           0       -3.893335    1.621686    2.887794
     11          6           0       -6.084714    1.709424    0.542956
     12          1           0       -5.046687    1.397636    0.408356
     13          1           0       -6.597998    1.599763   -0.416551
     14          1           0       -6.079464    2.779952    0.781635
     15          6           0       -6.794469   -0.631958    1.210640
     16          1           0       -5.778427   -0.982899    1.001787
     17          1           0       -7.227482   -1.266500    1.993585
     18          1           0       -7.391508   -0.770987    0.305008
     19          7           0       -4.341630   -0.581367    3.389279
     20          1           0       -5.030583   -1.313052    3.522447
     21          6           0       -2.946833   -1.019251    3.448201
     22          1           0       -2.361378   -0.178999    3.841774
     23          6           0       -2.378345   -1.365101    2.045134
     24          6           0       -2.861983   -2.213110    4.395232
     25          1           0       -2.960515   -1.863147    5.433468
     26          1           0       -1.888108   -2.694894    4.262826
     27          8           0       -1.817568   -2.437051    1.820572
     28          8           0       -3.939295   -3.078762    4.046603
     29          1           0       -3.782173   -3.954547    4.427191
     30          7           0       -2.540424   -0.387374    1.121384
     31          1           0       -2.821065    0.536873    1.441600
     32          6           0       -2.040380   -0.508320   -0.253314
     33          1           0       -2.111261   -1.568656   -0.516216
     34          6           0       -0.559296   -0.080827   -0.309815
     35          6           0       -2.884484    0.333393   -1.203254
     36          1           0       -2.530691    0.212907   -2.229821
     37          1           0       -2.802620    1.396470   -0.957585
     38          1           0       -3.932012    0.019786   -1.151753
     39          8           0       -0.212940    0.959550   -0.856890
     40          7           0        0.311555   -0.921592    0.316067
     41          1           0       -0.037221   -1.796290    0.695745
     42          6           0        1.746059   -0.635061    0.321087
     43          1           0        1.826527    0.455091    0.308280
     44          6           0        2.416822   -1.161802   -0.972200
     45          6           0        2.401172   -1.189886    1.582141
     46          1           0        1.815710   -0.849404    2.446648
     47          1           0        2.342501   -2.286340    1.553857
     48          8           0        3.128978   -2.180599   -0.986407
     49          6           0        3.870485   -0.767532    1.766197
     50          1           0        4.405092   -1.095450    0.865201
     51          6           0        4.060680    0.750560    1.881985
     52          1           0        3.510983    1.150697    2.743295
     53          1           0        5.119168    1.000589    2.016583
     54          1           0        3.722732    1.269090    0.980590
     55          6           0        4.448510   -1.479230    3.001485
     56          1           0        3.904371   -1.195237    3.909118
     57          1           0        5.504010   -1.225280    3.167291
     58          1           0        4.352119   -2.578599    2.927502
     59          7           0        2.121511   -0.421560   -2.059664
     60          1           0        1.670095    0.479741   -1.899191
     61          6           0        2.890975   -0.515253   -3.279219
     62          1           0        2.927419   -1.572478   -3.577344
     63          6           0        4.343884   -0.097299   -2.989388
     64          6           0        2.220758    0.327178   -4.402132
     65          1           0        1.229673   -0.110066   -4.577729
     66          1           0        2.800939    0.176315   -5.323674
     67          8           0        4.716339    0.367396   -1.918127
     68          6           0        2.110610    1.784342   -4.049431
     69          6           0        0.937647    2.300582   -3.457197
     70          1           0        0.092700    1.630674   -3.290680
     71          6           0        3.185387    2.678532   -4.259093
     72          1           0        4.097237    2.304748   -4.729701
     73          6           0        0.839527    3.620330   -3.059854
     74          1           0       -0.068110    3.997202   -2.594855
     75          6           0        3.108755    4.003224   -3.879108
     76          1           0        3.941359    4.682328   -4.046320
     77          8           0        1.854531    5.768682   -2.877921
     78          6           0        1.927185    4.566018   -3.240355
     79          7           0        5.211150   -0.397663   -4.004688
     80          1           0        4.858549   -0.832117   -4.846312
     81          6           0        6.637936   -0.408144   -3.771800
     82          1           0        6.812758    0.255469   -2.918441
     83          6           0        7.475597    0.140109   -4.917617
     84          6           0        7.090111   -1.836589   -3.379490
     85          1           0        6.901745   -2.523610   -4.216544
     86          1           0        8.170071   -1.845065   -3.196289
     87          8           0        8.686040    0.141527   -4.899298
     88          6           0        6.283165   -2.276226   -2.154469
     89          1           0        5.215449   -2.197326   -2.376539
     90          1           0        6.465572   -1.543610   -1.352408
     91          6           0        6.517881   -3.704996   -1.661077
     92          1           0        6.280845   -4.428087   -2.449436
     93          1           0        7.570378   -3.879521   -1.390303
     94          6           0        5.596460   -3.996569   -0.476266
     95          1           0        5.539148   -5.056654   -0.218397
     96          1           0        4.586836   -3.610609   -0.655754
     97          7           0        6.108212   -3.261505    0.753062
     98          1           0        5.391359   -3.161364    1.481378
     99          1           0        6.923198   -3.727125    1.162327
    100          1           0        6.388266   -2.309261    0.488596
    101          8           0        6.733342    0.608852   -5.940450
    102          1           0        7.356244    0.953508   -6.609340
 ---------------------------------------------------------------------

 SCF Done:  E(RB3LYP) =  -2312.09533240     A.U. after    3 cycles

 Alpha  occ. eigenvalues --  -19.25977 -19.25426 -19.25254 -19.21584 -19.19888
 Alpha  occ. eigenvalues --  -19.19064 -19.18794 -19.17516 -19.03965 -14.59915
 Alpha  occ. eigenvalues --  -14.59792 -14.49107 -14.45343 -14.43188 -14.42169
 Alpha  occ. eigenvalues --  -14.41099 -10.41518 -10.39898 -10.38600 -10.38318
 Alpha  occ. eigenvalues --  -10.36528 -10.35727 -10.35390 -10.34617 -10.34377
 Alpha  occ. eigenvalues --  -10.34092 -10.33775 -10.31529 -10.30752 -10.30540
 Alpha  occ. eigenvalues --  -10.30180 -10.29607 -10.29558 -10.28282 -10.28250
 Alpha  occ. eigenvalues --  -10.28038 -10.27768 -10.27170 -10.26880 -10.25660
 Alpha  occ. eigenvalues --  -10.24524 -10.22675 -10.19500 -10.17122 -10.16979
 Alpha  occ. eigenvalues --  -10.16947 -10.14608 -10.14537  -1.17609  -1.16726
 Alpha  occ. eigenvalues --   -1.14308  -1.13792  -1.12990  -1.12425  -1.10969
 Alpha  occ. eigenvalues --   -1.10204  -1.09098  -1.07710  -1.05136  -1.01674
 Alpha  occ. eigenvalues --   -0.99682  -0.99263  -0.98203  -0.94659  -0.93279
 Alpha  occ. eigenvalues --   -0.91653  -0.89995  -0.88591  -0.86402  -0.85504
 Alpha  occ. eigenvalues --   -0.84410  -0.83877  -0.82271  -0.81151  -0.80776
 Alpha  occ. eigenvalues --   -0.79105  -0.77190  -0.75842  -0.75351  -0.74968
 Alpha  occ. eigenvalues --   -0.74091  -0.73439  -0.73348  -0.72596  -0.72098
 Alpha  occ. eigenvalues --   -0.71707  -0.71660  -0.70525  -0.69014  -0.68852
 Alpha  occ. eigenvalues --   -0.68321  -0.67202  -0.66514  -0.65814  -0.65423
 Alpha  occ. eigenvalues --   -0.64646  -0.64128  -0.63312  -0.62784  -0.62344
 Alpha  occ. eigenvalues --   -0.62051  -0.61295  -0.60509  -0.59796  -0.59616
 Alpha  occ. eigenvalues --   -0.57740  -0.57514  -0.57229  -0.56989  -0.56407
 Alpha  occ. eigenvalues --   -0.55975  -0.55797  -0.55481  -0.55030  -0.54534
 Alpha  occ. eigenvalues --   -0.54090  -0.53961  -0.53447  -0.53297  -0.53105
 Alpha  occ. eigenvalues --   -0.52896  -0.52572  -0.51924  -0.51818  -0.51340
 Alpha  occ. eigenvalues --   -0.51063  -0.50439  -0.50244  -0.49916  -0.49517
 Alpha  occ. eigenvalues --   -0.49262  -0.48550  -0.48117  -0.47928  -0.47785
 Alpha  occ. eigenvalues --   -0.47521  -0.46983  -0.46920  -0.46744  -0.46659
 Alpha  occ. eigenvalues --   -0.46502  -0.46229  -0.46140  -0.45577  -0.45541
 Alpha  occ. eigenvalues --   -0.45340  -0.44958  -0.44837  -0.44362  -0.44219
 Alpha  occ. eigenvalues --   -0.43675  -0.43564  -0.43176  -0.42690  -0.42614
 Alpha  occ. eigenvalues --   -0.42266  -0.41553  -0.41003  -0.40895  -0.40685
 Alpha  occ. eigenvalues --   -0.40169  -0.39727  -0.39600  -0.39099  -0.37903
 Alpha  occ. eigenvalues --   -0.37721  -0.36585  -0.36101  -0.34946  -0.34554
 Alpha  occ. eigenvalues --   -0.34441  -0.34361  -0.32867  -0.32389  -0.31829
 Alpha  occ. eigenvalues --   -0.31557  -0.31413  -0.30706  -0.30426  -0.27673
 Alpha  occ. eigenvalues --   -0.22675  -0.17443  -0.14367
 Alpha virt. eigenvalues --   -0.13311  -0.10703  -0.10609  -0.08405  -0.06102
 Alpha virt. eigenvalues --   -0.05843  -0.05332  -0.05165  -0.04818  -0.04467
 Alpha virt. eigenvalues --   -0.04074  -0.03488  -0.02703  -0.01612  -0.01352

 Mulliken charges:
               1
     1  N   -0.740168
     2  H    0.407798
     3  H    0.402962
     4  H    0.433785
     5  C   -0.117071
     6  H    0.196274
     7  C    0.626475
     8  C   -0.100472
     9  H    0.154681
    10  O   -0.586798
    11  C   -0.475667
    12  H    0.189697
    13  H    0.191600
    14  H    0.138144
    15  C   -0.473322
    16  H    0.182026
    17  H    0.155883
    18  H    0.189188
    19  N   -0.602126
    20  H    0.371798
    21  C   -0.095499
    22  H    0.202321
    23  C    0.638197
    24  C   -0.042775
    25  H    0.144290
    26  H    0.174960
    27  O   -0.531382
    28  O   -0.635681
    29  H    0.421616
    30  N   -0.618673
    31  H    0.373392
    32  C   -0.071207
    33  H    0.184444
    34  C    0.628873
    35  C   -0.462404
    36  H    0.191547
    37  H    0.181489
    38  H    0.141982
    39  O   -0.498434
    40  N   -0.630160
    41  H    0.356970
    42  C   -0.067124
    43  H    0.203451
    44  C    0.655550
    45  C   -0.260344
    46  H    0.139664
    47  H    0.127418
    48  O   -0.589352
    49  C   -0.101892
    50  H    0.122305
    51  C   -0.453000
    52  H    0.146710
    53  H    0.147194
    54  H    0.201769
    55  C   -0.482360
    56  H    0.177467
    57  H    0.146038
    58  H    0.115843
    59  N   -0.596543
    60  H    0.399734
    61  C   -0.067641
    62  H    0.145269
    63  C    0.653644
    64  C   -0.375994
    65  H    0.148670
    66  H    0.137069
    67  O   -0.537750
    68  C    0.113371
    69  C   -0.189175
    70  H    0.086063
    71  C   -0.182101
    72  H    0.089128
    73  C   -0.214008
    74  H    0.082951
    75  C   -0.214286
    76  H    0.096077
    77  O   -0.622595
    78  C    0.418835
    79  N   -0.595273
    80  H    0.337170
    81  C   -0.066147
    82  H    0.220672
    83  C    0.595523
    84  C   -0.265782
    85  H    0.145114
    86  H    0.173306
    87  O   -0.458575
    88  C   -0.296563
    89  H    0.200976
    90  H    0.132630
    91  C   -0.297025
    92  H    0.190515
    93  H    0.150272
    94  C   -0.230610
    95  H    0.199435
    96  H    0.285696
    97  N   -0.750943
    98  H    0.428264
    99  H    0.410843
   100  H    0.423891
   101  O   -0.556937
   102  H    0.424935
 Sum of Mulliken charges =   1.00000

 Dipole moment (field-independent basis, Debye):
    X=             -9.3366    Y=            -20.4833    Z=             21.6597  Tot=             31.2390
 Quadrupole moment (field-independent basis, Debye-Ang):
   XX=             -6.8646   YY=           -296.1835   ZZ=           -214.1910
   XY=           -138.2894   XZ=            -64.4294   YZ=             50.1936

 Normal termination of Gaussian 16 at Mon Jun 27 02:26:33 2022.
