 Gaussian 16, Revision C.01,
 Gaussian 16:  ES64L-G16RevC.01  3-Jul-2019

 ----------------------------------------------------------------------
 # B3LYP/6-31G* empiricaldispersion=gd3 guess=read geom=check nosymm in
 tegral(ultrafinegrid)
 ----------------------------------------------------------------------

 ------------------------------------------------------
 Candidate Structure: Conf:102 Charge calc in gas phase
 ------------------------------------------------------
 Structure from the checkpoint file:  "conf-102.chk"
 Charge =  1 Multiplicity = 1

                          Input orientation:
 ---------------------------------------------------------------------
 Center     Atomic      Atomic             Coordinates (Angstroms)
 Number     Number       Type             X           Y           Z
 ---------------------------------------------------------------------
      1          7           0       -7.074108    0.014074    4.452746
      2          1           0       -7.696472    0.720739    4.855118
      3          1           0       -7.225303   -0.870572    4.943728
      4          1           0       -7.289227   -0.070480    3.418319
      5          6           0       -5.615926    0.443836    4.437271
      6          1           0       -5.482944    1.226782    5.189104
      7          6           0       -5.472244    0.997679    2.994714
      8          6           0       -4.693477   -0.762358    4.750053
      9          1           0       -4.873732   -1.517531    3.972081
     10          8           0       -6.313854    0.645497    2.158832
     11          6           0       -3.213025   -0.350095    4.681886
     12          1           0       -3.002680    0.489658    5.357391
     13          1           0       -2.590573   -1.188791    5.006839
     14          1           0       -2.910325   -0.095372    3.665281
     15          6           0       -5.012482   -1.356654    6.133917
     16          1           0       -4.861516   -0.613541    6.925844
     17          1           0       -6.032137   -1.754462    6.234223
     18          1           0       -4.342622   -2.197512    6.334201
     19          7           0       -4.475180    1.852527    2.758037
     20          1           0       -3.723267    1.949082    3.435737
     21          6           0       -4.063250    2.178764    1.400883
     22          1           0       -4.923969    2.543185    0.830920
     23          6           0       -3.462666    0.919531    0.740194
     24          6           0       -2.966456    3.267236    1.525616
     25          1           0       -3.406667    4.161908    1.977146
     26          1           0       -2.588655    3.538168    0.532235
     27          8           0       -3.226140   -0.101892    1.377010
     28          8           0       -1.939878    2.815123    2.381677
     29          1           0       -1.343677    2.253425    1.843924
     30          7           0       -3.125397    1.052732   -0.571282
     31          1           0       -3.210733    1.966522   -0.998384
     32          6           0       -2.093757    0.180093   -1.113807
     33          1           0       -2.463349   -0.849723   -1.078330
     34          6           0       -0.831657    0.292985   -0.231143
     35          6           0       -1.759631    0.581472   -2.555382
     36          1           0       -1.006975   -0.089642   -2.978330
     37          1           0       -1.356784    1.600246   -2.588767
     38          1           0       -2.654855    0.531338   -3.182116
     39          8           0       -0.571064    1.331679    0.395630
     40          7           0       -0.017553   -0.776460   -0.225633
     41          1           0       -0.246242   -1.580632   -0.796209
     42          6           0        1.243586   -0.803987    0.527501
     43          1           0        1.097345   -0.128698    1.374053
     44          6           0        2.349657   -0.227480   -0.390824
     45          6           0        1.558947   -2.212243    1.026655
     46          1           0        1.860458   -2.832596    0.174034
     47          1           0        2.444503   -2.134613    1.672675
     48          8           0        3.133153   -0.970845   -0.995545
     49          6           0        0.418477   -2.895389    1.808631
     50          1           0       -0.405176   -3.094653    1.107259
     51          6           0        0.905076   -4.245869    2.352320
     52          1           0        1.703249   -4.103362    3.092040
     53          1           0        0.090236   -4.789449    2.842880
     54          1           0        1.299622   -4.882450    1.551902
     55          6           0       -0.139990   -2.011817    2.934705
     56          1           0        0.658074   -1.692359    3.617701
     57          1           0       -0.877023   -2.569105    3.524410
     58          1           0       -0.642161   -1.119227    2.545600
     59          7           0        2.308018    1.112960   -0.493121
     60          1           0        1.560439    1.577364    0.014349
     61          6           0        2.992515    1.942625   -1.490276
     62          1           0        2.434586    1.888288   -2.433446
     63          6           0        4.437463    1.494331   -1.738082
     64          6           0        2.995245    3.420724   -1.001386
     65          1           0        3.496847    3.444104   -0.027162
     66          1           0        1.950377    3.731710   -0.854600
     67          8           0        5.212668    1.349207   -0.755425
     68          6           0        3.703837    4.286951   -2.012575
     69          6           0        5.093787    4.449744   -1.935075
     70          1           0        5.620061    4.128451   -1.039096
     71          6           0        3.046809    4.713223   -3.175434
     72          1           0        1.964417    4.608969   -3.249226
     73          6           0        5.817061    4.917221   -3.026073
     74          1           0        6.899979    4.968380   -2.998210
     75          6           0        3.762077    5.184866   -4.272425
     76          1           0        3.267375    5.435334   -5.204829
     77          8           0        5.863735    5.456260   -5.365809
     78          6           0        5.162822    5.211621   -4.233610
     79          7           0        4.783298    1.391202   -3.009380
     80          1           0        4.144642    1.680265   -3.766616
     81          6           0        6.141104    1.408944   -3.565143
     82          1           0        6.820809    1.832958   -2.824419
     83          6           0        6.038651    2.368652   -4.814586
     84          6           0        6.581543    0.012065   -4.033876
     85          1           0        5.953807   -0.262987   -4.889802
     86          1           0        7.610436    0.093673   -4.405059
     87          8           0        4.918741    2.349892   -5.375454
     88          6           0        6.467116   -1.078459   -2.960225
     89          1           0        6.636267   -2.066752   -3.407711
     90          1           0        5.428192   -1.077531   -2.603664
     91          6           0        7.445131   -0.878673   -1.791080
     92          1           0        8.449422   -1.212035   -2.077426
     93          1           0        7.526326    0.184934   -1.543344
     94          6           0        7.047527   -1.622535   -0.519735
     95          1           0        7.781024   -1.466190    0.275641
     96          1           0        6.931927   -2.698740   -0.679879
     97          7           0        5.729689   -1.091796   -0.005114
     98          1           0        4.899888   -1.478936   -0.481239
     99          1           0        5.612732   -1.256126    0.996024
    100          1           0        5.617865   -0.037982   -0.213992
    101          8           0        7.070740    3.032699   -5.076203
    102          1           0        6.472889    4.669823   -5.474004
 ---------------------------------------------------------------------

 SCF Done:  E(RB3LYP) =  -2312.20393549     A.U. after    3 cycles

 Alpha  occ. eigenvalues --  -19.28017 -19.25231 -19.24631 -19.24361 -19.22027
 Alpha  occ. eigenvalues --  -19.18134 -19.13933 -19.08959 -19.08922 -14.61026
 Alpha  occ. eigenvalues --  -14.50998 -14.50643 -14.48825 -14.48179 -14.45359
 Alpha  occ. eigenvalues --  -14.40440 -10.44699 -10.41655 -10.41325 -10.41101
 Alpha  occ. eigenvalues --  -10.38895 -10.36115 -10.35626 -10.35511 -10.35347
 Alpha  occ. eigenvalues --  -10.34993 -10.34006 -10.32859 -10.32218 -10.30522
 Alpha  occ. eigenvalues --  -10.30226 -10.29905 -10.28813 -10.28759 -10.27191
 Alpha  occ. eigenvalues --  -10.26809 -10.26215 -10.25947 -10.25250 -10.24715
 Alpha  occ. eigenvalues --  -10.24225 -10.24138 -10.22182 -10.21443 -10.21082
 Alpha  occ. eigenvalues --  -10.20642 -10.19549 -10.19325  -1.20577  -1.17017
 Alpha  occ. eigenvalues --   -1.15693  -1.14896  -1.13406  -1.13004  -1.09256
 Alpha  occ. eigenvalues --   -1.07299  -1.06203  -1.04972  -1.04854  -1.03268
 Alpha  occ. eigenvalues --   -1.02107  -1.01660  -0.97113  -0.96186  -0.93652
 Alpha  occ. eigenvalues --   -0.91667  -0.90437  -0.88465  -0.87930  -0.86915
 Alpha  occ. eigenvalues --   -0.85980  -0.85206  -0.83318  -0.82247  -0.81306
 Alpha  occ. eigenvalues --   -0.77911  -0.77582  -0.77021  -0.76556  -0.76051
 Alpha  occ. eigenvalues --   -0.75870  -0.75385  -0.75117  -0.74335  -0.73239
 Alpha  occ. eigenvalues --   -0.71692  -0.71039  -0.71010  -0.70488  -0.68710
 Alpha  occ. eigenvalues --   -0.67941  -0.67052  -0.66283  -0.65692  -0.64831
 Alpha  occ. eigenvalues --   -0.64538  -0.64239  -0.63946  -0.63203  -0.62846
 Alpha  occ. eigenvalues --   -0.62449  -0.61646  -0.61263  -0.60289  -0.59978
 Alpha  occ. eigenvalues --   -0.59765  -0.59145  -0.58326  -0.57608  -0.57417
 Alpha  occ. eigenvalues --   -0.56968  -0.56754  -0.56449  -0.55766  -0.55398
 Alpha  occ. eigenvalues --   -0.54941  -0.54350  -0.54199  -0.53646  -0.53243
 Alpha  occ. eigenvalues --   -0.53043  -0.52808  -0.52458  -0.51982  -0.51764
 Alpha  occ. eigenvalues --   -0.51392  -0.51190  -0.51151  -0.50790  -0.50419
 Alpha  occ. eigenvalues --   -0.50375  -0.49884  -0.49459  -0.48986  -0.48899
 Alpha  occ. eigenvalues --   -0.48616  -0.48428  -0.47987  -0.47905  -0.47713
 Alpha  occ. eigenvalues --   -0.47615  -0.47461  -0.47127  -0.46671  -0.46344
 Alpha  occ. eigenvalues --   -0.45800  -0.45512  -0.44432  -0.44153  -0.43642
 Alpha  occ. eigenvalues --   -0.43542  -0.42643  -0.42601  -0.42555  -0.42268
 Alpha  occ. eigenvalues --   -0.42211  -0.42096  -0.41960  -0.41367  -0.41284
 Alpha  occ. eigenvalues --   -0.39947  -0.39473  -0.39414  -0.39256  -0.38827
 Alpha  occ. eigenvalues --   -0.38681  -0.38551  -0.37765  -0.37343  -0.37310
 Alpha  occ. eigenvalues --   -0.36481  -0.35688  -0.35539  -0.34665  -0.34594
 Alpha  occ. eigenvalues --   -0.32509  -0.31487  -0.29305  -0.26846  -0.24505
 Alpha  occ. eigenvalues --   -0.23728  -0.23274  -0.22421
 Alpha virt. eigenvalues --   -0.13773  -0.12002  -0.11341  -0.10009  -0.08182
 Alpha virt. eigenvalues --   -0.07505  -0.05789  -0.05049  -0.04529  -0.04220
 Alpha virt. eigenvalues --   -0.03461  -0.02755  -0.01945  -0.01670  -0.01346

 Mulliken charges:
               1
     1  N   -0.758453
     2  H    0.417789
     3  H    0.410745
     4  H    0.433297
     5  C   -0.114407
     6  H    0.207372
     7  C    0.669041
     8  C   -0.100732
     9  H    0.177323
    10  O   -0.537646
    11  C   -0.506600
    12  H    0.155968
    13  H    0.182937
    14  H    0.219548
    15  C   -0.474681
    16  H    0.176733
    17  H    0.138221
    18  H    0.200720
    19  N   -0.587269
    20  H    0.374495
    21  C   -0.095802
    22  H    0.199828
    23  C    0.638656
    24  C   -0.070483
    25  H    0.182743
    26  H    0.158483
    27  O   -0.523742
    28  O   -0.647964
    29  H    0.451827
    30  N   -0.583729
    31  H    0.344773
    32  C   -0.046624
    33  H    0.186761
    34  C    0.666113
    35  C   -0.485546
    36  H    0.183754
    37  H    0.178663
    38  H    0.193717
    39  O   -0.589991
    40  N   -0.590345
    41  H    0.351497
    42  C   -0.081863
    43  H    0.187521
    44  C    0.636829
    45  C   -0.289352
    46  H    0.165596
    47  H    0.137267
    48  O   -0.566055
    49  C   -0.070903
    50  H    0.122853
    51  C   -0.445180
    52  H    0.146973
    53  H    0.152483
    54  H    0.152975
    55  C   -0.464962
    56  H    0.145388
    57  H    0.143328
    58  H    0.161587
    59  N   -0.619531
    60  H    0.365273
    61  C   -0.003915
    62  H    0.163671
    63  C    0.652648
    64  C   -0.387924
    65  H    0.165528
    66  H    0.133517
    67  O   -0.647597
    68  C    0.140731
    69  C   -0.191723
    70  H    0.125344
    71  C   -0.197426
    72  H    0.091851
    73  C   -0.172637
    74  H    0.142066
    75  C   -0.133736
    76  H    0.137502
    77  O   -0.695039
    78  C    0.373995
    79  N   -0.561480
    80  H    0.368109
    81  C   -0.066973
    82  H    0.158887
    83  C    0.620653
    84  C   -0.268083
    85  H    0.158819
    86  H    0.164231
    87  O   -0.588621
    88  C   -0.291420
    89  H    0.142620
    90  H    0.142101
    91  C   -0.287014
    92  H    0.170687
    93  H    0.185457
    94  C   -0.175511
    95  H    0.187239
    96  H    0.184666
    97  N   -0.794311
    98  H    0.425363
    99  H    0.374407
   100  H    0.459943
   101  O   -0.617503
   102  H    0.443663
 Sum of Mulliken charges =   1.00000

 Dipole moment (field-independent basis, Debye):
    X=            -26.6244    Y=            -11.4103    Z=             27.8574  Tot=             40.1881
 Quadrupole moment (field-independent basis, Debye-Ang):
   XX=           -128.4910   YY=           -303.5670   ZZ=           -258.8419
   XY=            -88.2770   XZ=            -31.0852   YZ=             41.8065

 Normal termination of Gaussian 16 at Mon Jun 27 02:26:27 2022.
