 Gaussian 16, Revision C.01,
 Gaussian 16:  ES64L-G16RevC.01  3-Jul-2019

 ----------------------------------------------------------------------
 # B3LYP/6-31G* empiricaldispersion=gd3 guess=read geom=check nosymm in
 tegral(ultrafinegrid)
 ----------------------------------------------------------------------

 ------------------------------------------------------
 Candidate Structure: Conf:883 Charge calc in gas phase
 ------------------------------------------------------
 Structure from the checkpoint file:  "conf-883.chk"
 Charge =  1 Multiplicity = 1

                          Input orientation:
 ---------------------------------------------------------------------
 Center     Atomic      Atomic             Coordinates (Angstroms)
 Number     Number       Type             X           Y           Z
 ---------------------------------------------------------------------
      1          7           0       -7.996340    2.713278    4.306943
      2          1           0       -7.642577    2.711752    5.267317
      3          1           0       -8.971608    2.402681    4.314633
      4          1           0       -7.908455    3.698486    3.909268
      5          6           0       -7.124415    1.920830    3.347811
      6          1           0       -6.462257    1.283639    3.939041
      7          6           0       -6.339910    3.047588    2.623312
      8          6           0       -8.006116    1.059566    2.406382
      9          1           0       -8.656008    0.471665    3.073108
     10          8           0       -6.765320    4.207780    2.741208
     11          6           0       -8.883826    1.918619    1.482427
     12          1           0       -8.271488    2.490217    0.777267
     13          1           0       -9.547941    1.272982    0.901226
     14          1           0       -9.517900    2.632238    2.023345
     15          6           0       -7.161037    0.056468    1.603982
     16          1           0       -6.551142    0.542895    0.836495
     17          1           0       -6.500614   -0.531707    2.252066
     18          1           0       -7.826919   -0.644318    1.092155
     19          7           0       -5.289153    2.676016    1.904718
     20          1           0       -5.048895    1.693009    1.777211
     21          6           0       -4.571305    3.544407    0.979804
     22          1           0       -5.228519    4.354541    0.653216
     23          6           0       -4.146295    2.642093   -0.182612
     24          6           0       -3.305718    4.165080    1.652243
     25          1           0       -2.695625    3.346398    2.059936
     26          1           0       -3.650396    4.790348    2.483206
     27          8           0       -4.160671    1.413955   -0.051794
     28          8           0       -2.585256    4.965400    0.751165
     29          1           0       -1.921422    4.379987    0.314823
     30          7           0       -3.699015    3.283717   -1.286333
     31          1           0       -3.526167    4.277414   -1.159410
     32          6           0       -2.763464    2.586914   -2.169811
     33          1           0       -3.250712    1.671196   -2.515237
     34          6           0       -1.506246    2.225639   -1.347603
     35          6           0       -2.389389    3.479117   -3.355717
     36          1           0       -1.711451    2.946916   -4.028924
     37          1           0       -1.879828    4.385286   -3.008801
     38          1           0       -3.283726    3.766312   -3.916526
     39          8           0       -1.100147    2.977629   -0.445177
     40          7           0       -0.904811    1.084546   -1.685892
     41          1           0       -1.228419    0.521510   -2.470126
     42          6           0        0.329973    0.579366   -1.097836
     43          1           0        0.915730    1.430983   -0.741402
     44          6           0        1.045531   -0.162933   -2.244725
     45          6           0        0.047709   -0.418580    0.048497
     46          1           0       -0.485002   -1.270814   -0.393350
     47          1           0        1.013113   -0.804091    0.405331
     48          8           0        0.371400   -0.665971   -3.149411
     49          6           0       -0.760204    0.130179    1.239531
     50          1           0       -1.682221    0.579292    0.846563
     51          6           0       -1.162861   -1.029138    2.163724
     52          1           0       -0.277253   -1.531654    2.573967
     53          1           0       -1.757881   -0.667025    3.011578
     54          1           0       -1.755918   -1.781166    1.630104
     55          6           0        0.009358    1.205144    2.019460
     56          1           0        0.951453    0.800911    2.413807
     57          1           0       -0.579365    1.557839    2.876320
     58          1           0        0.231431    2.073010    1.393742
     59          7           0        2.379312   -0.262615   -2.147552
     60          1           0        2.915113    0.246483   -1.450589
     61          6           0        3.197442   -0.910649   -3.167854
     62          1           0        2.730184   -1.861481   -3.437615
     63          6           0        4.586811   -1.123993   -2.539692
     64          6           0        3.290794   -0.022715   -4.450344
     65          1           0        3.740362    0.935828   -4.165202
     66          1           0        2.262504    0.162474   -4.779232
     67          8           0        5.001032   -0.276870   -1.727007
     68          6           0        4.105551   -0.734188   -5.497002
     69          6           0        5.477823   -0.487055   -5.625808
     70          1           0        5.914699    0.374384   -5.123418
     71          6           0        3.558286   -1.841023   -6.161171
     72          1           0        2.488329   -2.031071   -6.088022
     73          6           0        6.304066   -1.391713   -6.286894
     74          1           0        7.381704   -1.262061   -6.307868
     75          6           0        4.378598   -2.752226   -6.820855
     76          1           0        3.977451   -3.660625   -7.259391
     77          8           0        6.589949   -3.599984   -7.181769
     78          6           0        5.766095   -2.575013   -6.805441
     79          7           0        5.274415   -2.205492   -2.929986
     80          1           0        4.945926   -2.798662   -3.698310
     81          6           0        6.718469   -2.364470   -2.757780
     82          1           0        7.204405   -1.415408   -3.018068
     83          6           0        7.259858   -3.433318   -3.795838
     84          6           0        7.175480   -2.780548   -1.354952
     85          1           0        6.535750   -3.593529   -0.986861
     86          1           0        8.179521   -3.193355   -1.510464
     87          8           0        8.492103   -3.572505   -3.784415
     88          6           0        7.255898   -1.652368   -0.318159
     89          1           0        6.262212   -1.359935    0.032624
     90          1           0        7.681333   -0.759129   -0.793338
     91          6           0        8.155382   -2.069028    0.859048
     92          1           0        7.723273   -2.936894    1.378174
     93          1           0        9.133676   -2.379488    0.463440
     94          6           0        8.344580   -0.922530    1.833879
     95          1           0        7.425350   -0.646926    2.356324
     96          1           0        8.764986   -0.034980    1.354555
     97          7           0        9.352620   -1.321348    2.928299
     98          1           0        9.519898   -0.575093    3.613498
     99          1           0        9.022229   -2.151887    3.433827
    100          1           0       10.253864   -1.569804    2.502115
    101          8           0        6.377199   -4.000973   -4.503111
    102          1           0        6.793447   -4.033574   -6.308948
 ---------------------------------------------------------------------

 SCF Done:  E(RB3LYP) =  -2312.14724798     A.U. after    2 cycles

 Alpha  occ. eigenvalues --  -19.27182 -19.22588 -19.21942 -19.20255 -19.16861
 Alpha  occ. eigenvalues --  -19.14208 -19.12012 -19.07321 -19.06067 -14.62176
 Alpha  occ. eigenvalues --  -14.60356 -14.49885 -14.45311 -14.43632 -14.40774
 Alpha  occ. eigenvalues --  -14.36788 -10.43912 -10.40970 -10.39022 -10.38541
 Alpha  occ. eigenvalues --  -10.36951 -10.34897 -10.34035 -10.34016 -10.32806
 Alpha  occ. eigenvalues --  -10.32087 -10.31020 -10.30711 -10.29989 -10.29892
 Alpha  occ. eigenvalues --  -10.29780 -10.26536 -10.26430 -10.25102 -10.25065
 Alpha  occ. eigenvalues --  -10.24975 -10.24510 -10.23765 -10.23170 -10.22825
 Alpha  occ. eigenvalues --  -10.22274 -10.21453 -10.21104 -10.19438 -10.19054
 Alpha  occ. eigenvalues --  -10.19012 -10.17961 -10.17805  -1.19682  -1.15981
 Alpha  occ. eigenvalues --   -1.14628  -1.14032  -1.11738  -1.09757  -1.08808
 Alpha  occ. eigenvalues --   -1.06483  -1.05548  -1.02213  -1.01019  -1.00147
 Alpha  occ. eigenvalues --   -0.99929  -0.97095  -0.95507  -0.93410  -0.91553
 Alpha  occ. eigenvalues --   -0.91315  -0.88816  -0.87576  -0.85996  -0.85492
 Alpha  occ. eigenvalues --   -0.84036  -0.82859  -0.81923  -0.81571  -0.79536
 Alpha  occ. eigenvalues --   -0.76975  -0.75953  -0.75511  -0.74626  -0.74490
 Alpha  occ. eigenvalues --   -0.74364  -0.74343  -0.74191  -0.73836  -0.73437
 Alpha  occ. eigenvalues --   -0.72283  -0.70380  -0.69507  -0.69108  -0.68447
 Alpha  occ. eigenvalues --   -0.67162  -0.66150  -0.66002  -0.64854  -0.63368
 Alpha  occ. eigenvalues --   -0.62918  -0.62792  -0.62115  -0.61822  -0.61208
 Alpha  occ. eigenvalues --   -0.60845  -0.60203  -0.59180  -0.58790  -0.58477
 Alpha  occ. eigenvalues --   -0.57963  -0.57793  -0.57348  -0.56714  -0.55899
 Alpha  occ. eigenvalues --   -0.55106  -0.54694  -0.53940  -0.53449  -0.52800
 Alpha  occ. eigenvalues --   -0.52620  -0.52379  -0.52296  -0.51846  -0.51445
 Alpha  occ. eigenvalues --   -0.51064  -0.50816  -0.50646  -0.50546  -0.49804
 Alpha  occ. eigenvalues --   -0.49532  -0.49041  -0.48926  -0.48395  -0.47994
 Alpha  occ. eigenvalues --   -0.47890  -0.47494  -0.47433  -0.47365  -0.46972
 Alpha  occ. eigenvalues --   -0.46762  -0.46484  -0.46398  -0.46064  -0.45364
 Alpha  occ. eigenvalues --   -0.44812  -0.44722  -0.44264  -0.44093  -0.43967
 Alpha  occ. eigenvalues --   -0.43800  -0.43155  -0.42994  -0.42297  -0.41800
 Alpha  occ. eigenvalues --   -0.41780  -0.41771  -0.41381  -0.40464  -0.39974
 Alpha  occ. eigenvalues --   -0.39639  -0.39450  -0.38737  -0.38712  -0.38498
 Alpha  occ. eigenvalues --   -0.38173  -0.37753  -0.37205  -0.36849  -0.36737
 Alpha  occ. eigenvalues --   -0.36389  -0.36342  -0.34956  -0.34561  -0.34021
 Alpha  occ. eigenvalues --   -0.33795  -0.33298  -0.32896  -0.31027  -0.30100
 Alpha  occ. eigenvalues --   -0.28257  -0.27400  -0.25892  -0.24843  -0.23143
 Alpha  occ. eigenvalues --   -0.22336  -0.21205  -0.20488
 Alpha virt. eigenvalues --   -0.12867  -0.12644  -0.11588  -0.08738  -0.07174
 Alpha virt. eigenvalues --   -0.06241  -0.05996  -0.05758  -0.05062  -0.03183
 Alpha virt. eigenvalues --   -0.03030  -0.01711  -0.01083  -0.00721  -0.00178

 Mulliken charges:
               1
     1  N   -0.761007
     2  H    0.416735
     3  H    0.412566
     4  H    0.436157
     5  C   -0.108718
     6  H    0.209889
     7  C    0.648145
     8  C   -0.111319
     9  H    0.159093
    10  O   -0.541569
    11  C   -0.469719
    12  H    0.187030
    13  H    0.196149
    14  H    0.141578
    15  C   -0.484742
    16  H    0.194966
    17  H    0.163671
    18  H    0.191188
    19  N   -0.597266
    20  H    0.377787
    21  C   -0.098374
    22  H    0.202888
    23  C    0.620390
    24  C   -0.030727
    25  H    0.154246
    26  H    0.164624
    27  O   -0.542784
    28  O   -0.643047
    29  H    0.446322
    30  N   -0.581278
    31  H    0.351946
    32  C   -0.067273
    33  H    0.186532
    34  C    0.657658
    35  C   -0.474450
    36  H    0.187395
    37  H    0.172774
    38  H    0.180337
    39  O   -0.581605
    40  N   -0.588018
    41  H    0.362375
    42  C   -0.073262
    43  H    0.173013
    44  C    0.633987
    45  C   -0.250035
    46  H    0.153248
    47  H    0.142033
    48  O   -0.552208
    49  C   -0.081846
    50  H    0.142946
    51  C   -0.440304
    52  H    0.142951
    53  H    0.122143
    54  H    0.146882
    55  C   -0.458633
    56  H    0.129710
    57  H    0.125430
    58  H    0.178468
    59  N   -0.619963
    60  H    0.342068
    61  C   -0.024544
    62  H    0.177741
    63  C    0.605709
    64  C   -0.354365
    65  H    0.141185
    66  H    0.163641
    67  O   -0.593637
    68  C    0.143729
    69  C   -0.189076
    70  H    0.112905
    71  C   -0.209700
    72  H    0.120020
    73  C   -0.164154
    74  H    0.139453
    75  C   -0.151027
    76  H    0.130737
    77  O   -0.704615
    78  C    0.367066
    79  N   -0.600832
    80  H    0.369607
    81  C   -0.046298
    82  H    0.144139
    83  C    0.591005
    84  C   -0.271531
    85  H    0.133011
    86  H    0.170752
    87  O   -0.579294
    88  C   -0.257692
    89  H    0.166832
    90  H    0.151837
    91  C   -0.294971
    92  H    0.158144
    93  H    0.165622
    94  C   -0.205294
    95  H    0.219821
    96  H    0.226833
    97  N   -0.731348
    98  H    0.421452
    99  H    0.421826
   100  H    0.425901
   101  O   -0.628538
   102  H    0.440773
 Sum of Mulliken charges =   1.00000

 Dipole moment (field-independent basis, Debye):
    X=            -15.3660    Y=             12.7841    Z=             38.6965  Tot=             43.5542
 Quadrupole moment (field-independent basis, Debye-Ang):
   XX=            128.6187   YY=           -308.6835   ZZ=           -261.2757
   XY=            -26.9432   XZ=            106.2196   YZ=            -48.7412

 Normal termination of Gaussian 16 at Mon Jun 27 02:45:25 2022.
