 Gaussian 16, Revision C.01,
 Gaussian 16:  ES64L-G16RevC.01  3-Jul-2019

 ----------------------------------------------------------------------
 # B3LYP/6-31G* empiricaldispersion=gd3 guess=read geom=check nosymm in
 tegral(ultrafinegrid)
 ----------------------------------------------------------------------

 ------------------------------------------------------
 Candidate Structure: Conf:879 Charge calc in gas phase
 ------------------------------------------------------
 Structure from the checkpoint file:  "conf-879.chk"
 Charge =  1 Multiplicity = 1

                          Input orientation:
 ---------------------------------------------------------------------
 Center     Atomic      Atomic             Coordinates (Angstroms)
 Number     Number       Type             X           Y           Z
 ---------------------------------------------------------------------
      1          7           0       -4.668077   -4.353283    2.765524
      2          1           0       -3.899472   -4.967116    3.060993
      3          1           0       -5.474552   -4.935975    2.510038
      4          1           0       -4.913115   -3.745204    3.572567
      5          6           0       -4.258454   -3.421082    1.650940
      6          1           0       -3.757572   -3.993879    0.863335
      7          6           0       -3.292226   -2.446277    2.331933
      8          6           0       -5.489329   -2.712541    1.038188
      9          1           0       -6.051152   -2.269906    1.876447
     10          8           0       -3.588685   -2.100928    3.484401
     11          6           0       -5.058173   -1.581786    0.090527
     12          1           0       -4.429441   -1.967431   -0.721987
     13          1           0       -5.945785   -1.131673   -0.363354
     14          1           0       -4.498648   -0.785017    0.585050
     15          6           0       -6.398588   -3.714784    0.299396
     16          1           0       -5.868570   -4.156285   -0.554100
     17          1           0       -6.760865   -4.541822    0.930679
     18          1           0       -7.284129   -3.202572   -0.085800
     19          7           0       -2.218539   -2.066428    1.638236
     20          1           0       -2.147444   -2.254824    0.639619
     21          6           0       -1.361333   -0.974102    2.079510
     22          1           0       -1.270384   -1.018924    3.169587
     23          6           0       -1.977512    0.361673    1.650377
     24          6           0        0.029338   -1.168328    1.420276
     25          1           0        0.489885   -2.062842    1.855746
     26          1           0        0.668303   -0.300852    1.629807
     27          8           0       -2.428202    0.486006    0.525126
     28          8           0       -0.091578   -1.406165    0.031798
     29          1           0       -0.158166   -0.539646   -0.426674
     30          7           0       -1.922899    1.353667    2.553922
     31          1           0       -1.404349    1.182758    3.410736
     32          6           0       -2.074815    2.766772    2.164012
     33          1           0       -2.727799    2.761910    1.285771
     34          6           0       -0.688071    3.307651    1.743664
     35          6           0       -2.696517    3.579342    3.295370
     36          1           0       -2.819766    4.620045    2.988101
     37          1           0       -2.050283    3.571733    4.179602
     38          1           0       -3.674144    3.164192    3.562270
     39          8           0       -0.161260    4.259926    2.309313
     40          7           0       -0.134127    2.593329    0.730946
     41          1           0       -0.684034    1.913836    0.210487
     42          6           0        1.160190    2.909217    0.138303
     43          1           0        1.193294    3.979495   -0.093329
     44          6           0        1.229239    2.080347   -1.158299
     45          6           0        2.330404    2.585886    1.107669
     46          1           0        2.023015    2.929479    2.102713
     47          1           0        2.448287    1.493503    1.158740
     48          8           0        0.447177    1.128108   -1.361363
     49          6           0        3.679609    3.258586    0.777369
     50          1           0        4.061860    2.853435   -0.164380
     51          6           0        3.528219    4.792471    0.661757
     52          1           0        2.853060    5.167084    1.444124
     53          1           0        4.502218    5.276004    0.776949
     54          1           0        3.124304    5.100241   -0.308102
     55          6           0        4.728644    2.912572    1.841489
     56          1           0        4.439065    3.318547    2.822128
     57          1           0        5.693679    3.342813    1.555154
     58          1           0        4.845394    1.824854    1.943169
     59          7           0        2.188443    2.428877   -2.043787
     60          1           0        2.918491    3.064282   -1.719162
     61          6           0        2.597234    1.522737   -3.097627
     62          1           0        1.708971    1.288415   -3.699094
     63          6           0        3.109879    0.194125   -2.513555
     64          6           0        3.681324    2.231273   -3.990724
     65          1           0        3.150906    2.973971   -4.598075
     66          1           0        4.105404    1.474097   -4.667791
     67          8           0        3.452503    0.030238   -1.353266
     68          6           0        4.778459    2.899602   -3.187723
     69          6           0        4.797597    4.301834   -2.989404
     70          1           0        4.096234    4.921318   -3.553878
     71          6           0        5.731987    2.136565   -2.468077
     72          1           0        5.781315    1.066438   -2.642377
     73          6           0        5.643334    4.897253   -2.062685
     74          1           0        5.623943    5.970574   -1.891329
     75          6           0        6.577269    2.703295   -1.532589
     76          1           0        7.259667    2.091979   -0.946723
     77          8           0        7.189137    4.625918   -0.246376
     78          6           0        6.528110    4.117865   -1.211915
     79          7           0        3.178774   -0.828930   -3.444699
     80          1           0        3.025999   -0.601207   -4.421159
     81          6           0        3.910214   -2.046242   -3.144320
     82          1           0        3.573405   -2.412185   -2.170959
     83          6           0        5.420341   -1.824696   -3.017929
     84          6           0        3.655461   -3.102406   -4.233864
     85          1           0        2.568401   -3.227415   -4.332679
     86          1           0        4.027153   -2.725508   -5.197889
     87          8           0        6.130636   -2.378908   -2.206396
     88          6           0        4.312850   -4.449687   -3.904989
     89          1           0        3.972186   -4.784414   -2.915146
     90          1           0        5.400899   -4.329155   -3.827488
     91          6           0        3.991362   -5.526672   -4.951614
     92          1           0        2.902202   -5.655846   -5.042432
     93          1           0        4.355940   -5.207630   -5.939888
     94          6           0        4.640389   -6.860156   -4.574641
     95          1           0        4.268488   -7.215330   -3.609357
     96          1           0        5.725660   -6.753199   -4.491274
     97          7           0        4.359855   -7.935994   -5.605379
     98          1           0        4.805499   -8.847181   -5.354472
     99          1           0        3.332403   -8.102316   -5.703694
    100          1           0        4.721363   -7.655835   -6.544798
    101          8           0        5.875498   -0.981181   -3.972124
    102          1           0        6.844518   -0.892091   -3.846253
 ---------------------------------------------------------------------

 SCF Done:  E(RB3LYP) =  -2312.08219577     A.U. after    3 cycles

 Alpha  occ. eigenvalues --  -19.26347 -19.25391 -19.21553 -19.20518 -19.20055
 Alpha  occ. eigenvalues --  -19.17205 -19.16774 -19.15974 -19.04642 -14.62320
 Alpha  occ. eigenvalues --  -14.61917 -14.48906 -14.44445 -14.41933 -14.39944
 Alpha  occ. eigenvalues --  -14.39650 -10.42633 -10.40619 -10.39911 -10.38449
 Alpha  occ. eigenvalues --  -10.37072 -10.34303 -10.33695 -10.33592 -10.33440
 Alpha  occ. eigenvalues --  -10.33044 -10.32970 -10.32040 -10.31383 -10.31184
 Alpha  occ. eigenvalues --  -10.30386 -10.29329 -10.29319 -10.28880 -10.27570
 Alpha  occ. eigenvalues --  -10.26904 -10.23499 -10.22608 -10.20782 -10.20077
 Alpha  occ. eigenvalues --  -10.19276 -10.17664 -10.17610 -10.17400 -10.16958
 Alpha  occ. eigenvalues --  -10.16743 -10.15216 -10.15113  -1.18667  -1.16929
 Alpha  occ. eigenvalues --   -1.15519  -1.15124  -1.13008  -1.09159  -1.08942
 Alpha  occ. eigenvalues --   -1.08047  -1.08007  -1.07356  -1.05112  -1.00898
 Alpha  occ. eigenvalues --   -0.98677  -0.96928  -0.96226  -0.95409  -0.94046
 Alpha  occ. eigenvalues --   -0.93039  -0.88113  -0.88030  -0.85145  -0.83917
 Alpha  occ. eigenvalues --   -0.82739  -0.81981  -0.81726  -0.81084  -0.79200
 Alpha  occ. eigenvalues --   -0.76828  -0.76255  -0.76140  -0.75286  -0.74078
 Alpha  occ. eigenvalues --   -0.73560  -0.73286  -0.72410  -0.72107  -0.71708
 Alpha  occ. eigenvalues --   -0.70562  -0.70444  -0.70074  -0.68293  -0.67785
 Alpha  occ. eigenvalues --   -0.67720  -0.66871  -0.65981  -0.65549  -0.64726
 Alpha  occ. eigenvalues --   -0.64391  -0.63888  -0.62547  -0.61425  -0.61344
 Alpha  occ. eigenvalues --   -0.61235  -0.59546  -0.59261  -0.58253  -0.58146
 Alpha  occ. eigenvalues --   -0.57704  -0.57073  -0.56696  -0.56324  -0.55579
 Alpha  occ. eigenvalues --   -0.55521  -0.54971  -0.54654  -0.54415  -0.54102
 Alpha  occ. eigenvalues --   -0.53762  -0.52977  -0.52670  -0.52137  -0.51923
 Alpha  occ. eigenvalues --   -0.51828  -0.51463  -0.51144  -0.50415  -0.50056
 Alpha  occ. eigenvalues --   -0.49822  -0.49358  -0.48887  -0.48341  -0.48201
 Alpha  occ. eigenvalues --   -0.47833  -0.47654  -0.47109  -0.46895  -0.46822
 Alpha  occ. eigenvalues --   -0.46602  -0.46269  -0.46029  -0.45641  -0.45457
 Alpha  occ. eigenvalues --   -0.45248  -0.44763  -0.44613  -0.44160  -0.43963
 Alpha  occ. eigenvalues --   -0.43863  -0.43292  -0.43004  -0.42721  -0.42099
 Alpha  occ. eigenvalues --   -0.41439  -0.41085  -0.40919  -0.39877  -0.39781
 Alpha  occ. eigenvalues --   -0.39575  -0.39312  -0.38968  -0.38887  -0.38398
 Alpha  occ. eigenvalues --   -0.38094  -0.36697  -0.36382  -0.35726  -0.35068
 Alpha  occ. eigenvalues --   -0.34848  -0.34740  -0.33857  -0.33216  -0.32923
 Alpha  occ. eigenvalues --   -0.32794  -0.32400  -0.31906  -0.31752  -0.30967
 Alpha  occ. eigenvalues --   -0.30770  -0.29550  -0.29071  -0.28453  -0.27733
 Alpha  occ. eigenvalues --   -0.23105  -0.17969  -0.14946
 Alpha virt. eigenvalues --   -0.14106  -0.13203  -0.11261  -0.07374  -0.07265
 Alpha virt. eigenvalues --   -0.07107  -0.06935  -0.06231  -0.05622  -0.04572
 Alpha virt. eigenvalues --   -0.03686  -0.03310  -0.02605  -0.01949  -0.01672

 Mulliken charges:
               1
     1  N   -0.732892
     2  H    0.422981
     3  H    0.413575
     4  H    0.428155
     5  C   -0.123953
     6  H    0.194467
     7  C    0.653556
     8  C   -0.098634
     9  H    0.168085
    10  O   -0.540537
    11  C   -0.482552
    12  H    0.157053
    13  H    0.183912
    14  H    0.218774
    15  C   -0.468687
    16  H    0.171073
    17  H    0.127475
    18  H    0.202916
    19  N   -0.574993
    20  H    0.366610
    21  C   -0.105921
    22  H    0.176020
    23  C    0.627809
    24  C   -0.062264
    25  H    0.157116
    26  H    0.183643
    27  O   -0.538176
    28  O   -0.650558
    29  H    0.452284
    30  N   -0.571080
    31  H    0.339632
    32  C   -0.091812
    33  H    0.194461
    34  C    0.619488
    35  C   -0.443171
    36  H    0.185619
    37  H    0.163786
    38  H    0.147098
    39  O   -0.509948
    40  N   -0.661654
    41  H    0.370493
    42  C   -0.038401
    43  H    0.188624
    44  C    0.627777
    45  C   -0.278130
    46  H    0.159797
    47  H    0.140778
    48  O   -0.588800
    49  C   -0.091848
    50  H    0.162475
    51  C   -0.474463
    52  H    0.142558
    53  H    0.191742
    54  H    0.129364
    55  C   -0.468196
    56  H    0.122452
    57  H    0.204296
    58  H    0.123262
    59  N   -0.602710
    60  H    0.388177
    61  C   -0.061587
    62  H    0.156481
    63  C    0.661848
    64  C   -0.377821
    65  H    0.155245
    66  H    0.132987
    67  O   -0.515691
    68  C    0.085168
    69  C   -0.201638
    70  H    0.095386
    71  C   -0.173557
    72  H    0.086293
    73  C   -0.201871
    74  H    0.107841
    75  C   -0.211421
    76  H    0.101505
    77  O   -0.637389
    78  C    0.428545
    79  N   -0.626274
    80  H    0.327890
    81  C   -0.000392
    82  H    0.197001
    83  C    0.600927
    84  C   -0.312771
    85  H    0.159905
    86  H    0.160913
    87  O   -0.459959
    88  C   -0.277639
    89  H    0.161710
    90  H    0.180643
    91  C   -0.282977
    92  H    0.157539
    93  H    0.165249
    94  C   -0.204276
    95  H    0.213968
    96  H    0.222718
    97  N   -0.650109
    98  H    0.358658
    99  H    0.347585
   100  H    0.356228
   101  O   -0.562575
   102  H    0.427712
 Sum of Mulliken charges =   1.00000

 Dipole moment (field-independent basis, Debye):
    X=            -17.3936    Y=            -52.5666    Z=            -12.5281  Tot=             56.7692
 Quadrupole moment (field-independent basis, Debye-Ang):
   XX=           -236.3334   YY=            -51.4419   ZZ=           -139.6011
   XY=           -111.9792   XZ=           -128.3885   YZ=            115.1615

 Normal termination of Gaussian 16 at Mon Jun 27 02:45:58 2022.
