 Gaussian 16, Revision C.01,
 Gaussian 16:  ES64L-G16RevC.01  3-Jul-2019

 ----------------------------------------------------------------------
 # B3LYP/6-31G* empiricaldispersion=gd3 guess=read geom=check nosymm in
 tegral(ultrafinegrid)
 ----------------------------------------------------------------------

 ------------------------------------------------------
 Candidate Structure: Conf:315 Charge calc in gas phase
 ------------------------------------------------------
 Structure from the checkpoint file:  "conf-315.chk"
 Charge =  1 Multiplicity = 1

                          Input orientation:
 ---------------------------------------------------------------------
 Center     Atomic      Atomic             Coordinates (Angstroms)
 Number     Number       Type             X           Y           Z
 ---------------------------------------------------------------------
      1          7           0       -5.123117    3.396445   -2.182885
      2          1           0       -5.824560    3.334725   -2.918069
      3          1           0       -4.165069    1.989560   -1.977840
      4          1           0       -4.536645    4.204394   -2.394590
      5          6           0       -5.767792    3.632258   -0.866278
      6          1           0       -6.361181    4.559152   -0.879010
      7          6           0       -4.562226    3.926700    0.047224
      8          6           0       -6.694799    2.467774   -0.463942
      9          1           0       -6.074392    1.576002   -0.289935
     10          8           0       -3.883929    4.933457   -0.184274
     11          6           0       -7.476049    2.822251    0.814479
     12          1           0       -8.169822    3.648471    0.618286
     13          1           0       -8.067768    1.965959    1.153490
     14          1           0       -6.828915    3.132920    1.641785
     15          6           0       -7.679304    2.113955   -1.591431
     16          1           0       -8.251387    2.996094   -1.907122
     17          1           0       -7.172766    1.691305   -2.465368
     18          1           0       -8.397406    1.364700   -1.243138
     19          7           0       -4.216914    3.023622    0.990334
     20          1           0       -4.836798    2.252853    1.193338
     21          6           0       -2.969733    3.124559    1.755198
     22          1           0       -2.200345    3.492697    1.062297
     23          6           0       -2.483548    1.733271    2.169205
     24          6           0       -3.040445    4.134060    2.913889
     25          1           0       -2.268828    3.880302    3.644358
     26          1           0       -4.021564    4.031673    3.408777
     27          8           0       -1.811301    1.554766    3.176420
     28          8           0       -2.792557    5.456083    2.480893
     29          1           0       -3.228228    5.582792    1.618881
     30          7           0       -2.787508    0.709933    1.299784
     31          1           0       -3.088568    0.964185    0.360016
     32          6           0       -1.944384   -0.468999    1.386081
     33          1           0       -1.974214   -0.821482    2.422037
     34          6           0       -0.489164   -0.045217    1.085532
     35          6           0       -2.431075   -1.572473    0.442049
     36          1           0       -1.798443   -2.462049    0.525478
     37          1           0       -2.407636   -1.232839   -0.596164
     38          1           0       -3.457026   -1.852719    0.696722
     39          8           0       -0.221225    1.032744    0.556074
     40          7           0        0.493058   -0.914560    1.452602
     41          1           0        0.242906   -1.753689    1.958319
     42          6           0        1.877899   -0.442585    1.555475
     43          1           0        1.822067    0.627365    1.784073
     44          6           0        2.578499   -0.576286    0.187679
     45          6           0        2.636780   -1.164991    2.668765
     46          1           0        2.810988   -2.207267    2.374192
     47          1           0        3.629701   -0.696396    2.739694
     48          8           0        3.455587   -1.439292   -0.037985
     49          6           0        1.967754   -1.103009    4.058629
     50          1           0        1.052789   -1.714025    4.028995
     51          6           0        2.902328   -1.734685    5.100273
     52          1           0        3.818062   -1.139273    5.211829
     53          1           0        2.418623   -1.782516    6.081275
     54          1           0        3.193955   -2.753608    4.817958
     55          6           0        1.564329    0.323446    4.461543
     56          1           0        2.423372    1.004969    4.399833
     57          1           0        1.206602    0.339726    5.496304
     58          1           0        0.757235    0.724920    3.839104
     59          7           0        2.178885    0.303052   -0.736959
     60          1           0        1.362984    0.878249   -0.501572
     61          6           0        2.619236    0.248452   -2.117386
     62          1           0        2.361716   -0.735783   -2.530660
     63          6           0        4.139034    0.430101   -2.248836
     64          6           0        1.907868    1.356846   -2.946752
     65          1           0        2.178406    1.207993   -3.999581
     66          1           0        2.319969    2.327532   -2.647366
     67          8           0        4.836317    0.993478   -1.396849
     68          6           0        0.406309    1.351233   -2.752943
     69          6           0       -0.345527    0.195787   -3.009650
     70          1           0        0.136721   -0.685858   -3.427353
     71          6           0       -0.258849    2.475164   -2.249805
     72          1           0        0.302966    3.382850   -2.042106
     73          6           0       -1.707028    0.152492   -2.734696
     74          1           0       -2.296027   -0.735697   -2.941448
     75          6           0       -1.624369    2.447532   -1.968926
     76          1           0       -2.113378    3.318957   -1.541296
     77          8           0       -3.654742    1.133743   -1.807234
     78          6           0       -2.350455    1.269309   -2.181783
     79          7           0        4.634616   -0.033775   -3.420333
     80          1           0        3.979786   -0.379707   -4.116292
     81          6           0        5.903283    0.410309   -3.987817
     82          1           0        6.165840    1.369103   -3.526016
     83          6           0        5.648240    0.652200   -5.476719
     84          6           0        7.084445   -0.565602   -3.786992
     85          1           0        6.835902   -1.534974   -4.237766
     86          1           0        7.930175   -0.160336   -4.350686
     87          8           0        4.621998    0.349811   -6.047690
     88          6           0        7.488142   -0.741104   -2.312882
     89          1           0        7.357183    0.221818   -1.802909
     90          1           0        8.559186   -0.970423   -2.259022
     91          6           0        6.724885   -1.854119   -1.571039
     92          1           0        5.657139   -1.846395   -1.814193
     93          1           0        7.105256   -2.830959   -1.890065
     94          6           0        6.886562   -1.751467   -0.054429
     95          1           0        7.907314   -1.474488    0.223951
     96          1           0        6.625111   -2.681535    0.455329
     97          7           0        5.954387   -0.693995    0.485626
     98          1           0        6.209867   -0.381886    1.425094
     99          1           0        5.873999    0.126652   -0.148072
    100          1           0        4.966398   -1.067269    0.490303
    101          8           0        6.706271    1.222799   -6.070490
    102          1           0        6.491881    1.337029   -7.016759
 ---------------------------------------------------------------------

 SCF Done:  E(RB3LYP) =  -2312.27760174     A.U. after    1 cycles

 Alpha  occ. eigenvalues --  -19.30370 -19.25028 -19.23825 -19.23642 -19.22156
 Alpha  occ. eigenvalues --  -19.21507 -19.20193 -19.19364 -19.17783 -14.54913
 Alpha  occ. eigenvalues --  -14.47456 -14.46313 -14.46126 -14.44987 -14.43037
 Alpha  occ. eigenvalues --  -14.42549 -10.42992 -10.40700 -10.39868 -10.38066
 Alpha  occ. eigenvalues --  -10.37337 -10.36549 -10.36421 -10.34975 -10.34296
 Alpha  occ. eigenvalues --  -10.33335 -10.31838 -10.31447 -10.31062 -10.30638
 Alpha  occ. eigenvalues --  -10.30351 -10.29837 -10.29782 -10.29287 -10.28513
 Alpha  occ. eigenvalues --  -10.28200 -10.27750 -10.27730 -10.26945 -10.26704
 Alpha  occ. eigenvalues --  -10.26660 -10.26419 -10.25671 -10.25533 -10.25264
 Alpha  occ. eigenvalues --  -10.25246 -10.25174 -10.24446  -1.21475  -1.15801
 Alpha  occ. eigenvalues --   -1.14600  -1.13589  -1.12665  -1.12310  -1.11081
 Alpha  occ. eigenvalues --   -1.10346  -1.10180  -1.05545  -1.04253  -1.03476
 Alpha  occ. eigenvalues --   -1.02276  -1.01451  -0.99509  -0.98697  -0.92951
 Alpha  occ. eigenvalues --   -0.92247  -0.90268  -0.89419  -0.87746  -0.87520
 Alpha  occ. eigenvalues --   -0.85950  -0.83719  -0.82973  -0.82154  -0.81924
 Alpha  occ. eigenvalues --   -0.80889  -0.77021  -0.76243  -0.75920  -0.75753
 Alpha  occ. eigenvalues --   -0.75543  -0.74715  -0.73942  -0.71953  -0.71179
 Alpha  occ. eigenvalues --   -0.70718  -0.69576  -0.69239  -0.68889  -0.68788
 Alpha  occ. eigenvalues --   -0.68227  -0.67650  -0.67206  -0.66268  -0.65950
 Alpha  occ. eigenvalues --   -0.65110  -0.64820  -0.63229  -0.62340  -0.61920
 Alpha  occ. eigenvalues --   -0.61681  -0.60733  -0.60623  -0.59875  -0.59138
 Alpha  occ. eigenvalues --   -0.59076  -0.58747  -0.57892  -0.57784  -0.57057
 Alpha  occ. eigenvalues --   -0.56753  -0.56071  -0.55553  -0.55314  -0.55148
 Alpha  occ. eigenvalues --   -0.54842  -0.54543  -0.54217  -0.53829  -0.53575
 Alpha  occ. eigenvalues --   -0.53294  -0.52925  -0.52523  -0.52047  -0.51415
 Alpha  occ. eigenvalues --   -0.51304  -0.51253  -0.50853  -0.50558  -0.50451
 Alpha  occ. eigenvalues --   -0.50198  -0.49830  -0.49515  -0.49326  -0.49222
 Alpha  occ. eigenvalues --   -0.48957  -0.48593  -0.48191  -0.48065  -0.47737
 Alpha  occ. eigenvalues --   -0.47410  -0.47381  -0.47025  -0.46949  -0.46513
 Alpha  occ. eigenvalues --   -0.46352  -0.45879  -0.45775  -0.45725  -0.45546
 Alpha  occ. eigenvalues --   -0.44888  -0.44838  -0.44639  -0.44591  -0.44201
 Alpha  occ. eigenvalues --   -0.43219  -0.42793  -0.42608  -0.42455  -0.42441
 Alpha  occ. eigenvalues --   -0.41758  -0.41483  -0.41104  -0.40894  -0.40858
 Alpha  occ. eigenvalues --   -0.40709  -0.39044  -0.38953  -0.38635  -0.38439
 Alpha  occ. eigenvalues --   -0.37770  -0.37518  -0.36476  -0.35617  -0.35221
 Alpha  occ. eigenvalues --   -0.34850  -0.34302  -0.33908  -0.33711  -0.32278
 Alpha  occ. eigenvalues --   -0.31897  -0.30761  -0.29111
 Alpha virt. eigenvalues --   -0.10452  -0.10226  -0.09757  -0.07849  -0.07684
 Alpha virt. eigenvalues --   -0.07136  -0.07010  -0.06224  -0.05637  -0.02340
 Alpha virt. eigenvalues --   -0.02063  -0.01413  -0.00952  -0.00383   0.00209

 Mulliken charges:
               1
     1  N   -0.797135
     2  H    0.339932
     3  H    0.477823
     4  H    0.350758
     5  C   -0.032257
     6  H    0.166220
     7  C    0.619266
     8  C   -0.106114
     9  H    0.140924
    10  O   -0.550407
    11  C   -0.466363
    12  H    0.164071
    13  H    0.165631
    14  H    0.150282
    15  C   -0.472904
    16  H    0.154545
    17  H    0.157960
    18  H    0.168427
    19  N   -0.625979
    20  H    0.353555
    21  C   -0.096839
    22  H    0.216524
    23  C    0.600134
    24  C   -0.000619
    25  H    0.178696
    26  H    0.120898
    27  O   -0.518878
    28  O   -0.640396
    29  H    0.418764
    30  N   -0.620660
    31  H    0.377599
    32  C   -0.062395
    33  H    0.184919
    34  C    0.653955
    35  C   -0.474472
    36  H    0.151282
    37  H    0.183758
    38  H    0.180714
    39  O   -0.537597
    40  N   -0.608860
    41  H    0.343874
    42  C   -0.066936
    43  H    0.200123
    44  C    0.638826
    45  C   -0.292694
    46  H    0.158613
    47  H    0.112532
    48  O   -0.600350
    49  C   -0.079111
    50  H    0.123227
    51  C   -0.444626
    52  H    0.139138
    53  H    0.165378
    54  H    0.143162
    55  C   -0.469167
    56  H    0.136285
    57  H    0.164617
    58  H    0.186498
    59  N   -0.604769
    60  H    0.415233
    61  C   -0.043418
    62  H    0.176825
    63  C    0.644268
    64  C   -0.393716
    65  H    0.176209
    66  H    0.174493
    67  O   -0.581627
    68  C    0.146241
    69  C   -0.185823
    70  H    0.124319
    71  C   -0.182402
    72  H    0.140231
    73  C   -0.170395
    74  H    0.146669
    75  C   -0.181896
    76  H    0.154694
    77  O   -0.721643
    78  C    0.331504
    79  N   -0.593508
    80  H    0.364146
    81  C   -0.055198
    82  H    0.204963
    83  C    0.591719
    84  C   -0.274522
    85  H    0.160568
    86  H    0.187548
    87  O   -0.458854
    88  C   -0.283815
    89  H    0.148527
    90  H    0.165304
    91  C   -0.299566
    92  H    0.189605
    93  H    0.181422
    94  C   -0.182825
    95  H    0.197935
    96  H    0.204647
    97  N   -0.800700
    98  H    0.391311
    99  H    0.441175
   100  H    0.449012
   101  O   -0.552863
   102  H    0.434820
 Sum of Mulliken charges =   1.00000

 Dipole moment (field-independent basis, Debye):
    X=             13.6323    Y=             -3.8591    Z=             -6.0323  Tot=             15.3987
 Quadrupole moment (field-independent basis, Debye-Ang):
   XX=            -75.1501   YY=           -287.4048   ZZ=           -240.6000
   XY=            -32.1870   XZ=            -16.8446   YZ=            -29.1008

 Normal termination of Gaussian 16 at Mon Jun 27 02:25:46 2022.
