 Gaussian 16, Revision C.01,
 Gaussian 16:  ES64L-G16RevC.01  3-Jul-2019

 ----------------------------------------------------------------------
 # B3LYP/6-31G* empiricaldispersion=gd3 guess=read geom=check nosymm in
 tegral(ultrafinegrid)
 ----------------------------------------------------------------------

 ------------------------------------------------------
 Candidate Structure: Conf:472 Charge calc in gas phase
 ------------------------------------------------------
 Structure from the checkpoint file:  "conf-472.chk"
 Charge =  1 Multiplicity = 1

                          Input orientation:
 ---------------------------------------------------------------------
 Center     Atomic      Atomic             Coordinates (Angstroms)
 Number     Number       Type             X           Y           Z
 ---------------------------------------------------------------------
      1          7           0       -7.030632   -0.875154    5.609160
      2          1           0       -7.367862   -0.545018    6.517436
      3          1           0       -7.342163   -1.840001    5.469460
      4          1           0       -7.412491   -0.234301    4.853871
      5          6           0       -5.530815   -0.703231    5.431743
      6          1           0       -5.081805   -0.598763    6.422612
      7          6           0       -5.452494    0.618538    4.628324
      8          6           0       -4.941588   -1.936161    4.699540
      9          1           0       -5.198656   -2.796518    5.337700
     10          8           0       -6.479282    0.999128    4.049489
     11          6           0       -5.548769   -2.139992    3.301610
     12          1           0       -5.275304   -1.316199    2.637250
     13          1           0       -5.158076   -3.066626    2.871239
     14          1           0       -6.643011   -2.230808    3.310925
     15          6           0       -3.409014   -1.852782    4.626795
     16          1           0       -3.091268   -1.097042    3.903898
     17          1           0       -2.959963   -1.639360    5.604983
     18          1           0       -3.011096   -2.813166    4.288316
     19          7           0       -4.291165    1.273790    4.638590
     20          1           0       -3.453170    0.809178    4.979799
     21          6           0       -3.996697    2.318846    3.668188
     22          1           0       -4.816442    3.043600    3.649198
     23          6           0       -3.804066    1.663041    2.283802
     24          6           0       -2.668525    2.977595    4.120464
     25          1           0       -2.826328    3.448467    5.096699
     26          1           0       -2.373226    3.754665    3.405963
     27          8           0       -3.727212    0.443632    2.159219
     28          8           0       -1.669978    1.991706    4.266552
     29          1           0       -1.263402    1.872014    3.379737
     30          7           0       -3.637940    2.515951    1.239335
     31          1           0       -3.532881    3.499826    1.455628
     32          6           0       -2.868300    2.042025    0.090026
     33          1           0       -3.396835    1.184384   -0.335134
     34          6           0       -1.476995    1.587747    0.594447
     35          6           0       -2.724036    3.153150   -0.952580
     36          1           0       -2.174269    2.784865   -1.823192
     37          1           0       -2.167353    4.001443   -0.537221
     38          1           0       -3.707490    3.499468   -1.284484
     39          8           0       -0.963440    2.123705    1.589862
     40          7           0       -0.893592    0.628365   -0.125330
     41          1           0       -1.316578    0.268051   -0.979959
     42          6           0        0.461275    0.130397    0.078832
     43          1           0        1.068460    0.938745    0.496461
     44          6           0        0.955530   -0.268059   -1.328108
     45          6           0        0.490193   -1.109635    0.999926
     46          1           0       -0.110891   -1.887846    0.511399
     47          1           0        1.522752   -1.484695    1.029258
     48          8           0        0.130661   -0.556801   -2.201515
     49          6           0       -0.014953   -0.892305    2.438524
     50          1           0       -1.013564   -0.438641    2.384079
     51          6           0       -0.152245   -2.249046    3.145390
     52          1           0        0.813953   -2.767964    3.189847
     53          1           0       -0.504311   -2.120430    4.175948
     54          1           0       -0.858447   -2.905175    2.622233
     55          6           0        0.900372    0.041933    3.242233
     56          1           0        1.904607   -0.390873    3.342111
     57          1           0        0.501727    0.201948    4.250871
     58          1           0        0.991446    1.023523    2.769361
     59          7           0        2.284624   -0.327576   -1.491950
     60          1           0        2.937137    0.008401   -0.789329
     61          6           0        2.909460   -0.668982   -2.765929
     62          1           0        2.400293   -1.542906   -3.180927
     63          6           0        4.386795   -0.973354   -2.455716
     64          6           0        2.779123    0.509955   -3.782973
     65          1           0        3.273411    1.387062   -3.348728
     66          1           0        1.709551    0.727414   -3.876374
     67          8           0        4.937431   -0.337770   -1.537785
     68          6           0        3.397878    0.111210   -5.095978
     69          6           0        4.725587    0.443296   -5.391913
     70          1           0        5.242823    1.176368   -4.775152
     71          6           0        2.743843   -0.825505   -5.908816
     72          1           0        1.703646   -1.075071   -5.703879
     73          6           0        5.423962   -0.236835   -6.386058
     74          1           0        6.480532   -0.056901   -6.558815
     75          6           0        3.436580   -1.512506   -6.901831
     76          1           0        2.965774   -2.304626   -7.475650
     77          8           0        5.551032   -2.147720   -7.832119
     78          6           0        4.804926   -1.282462   -7.080017
     79          7           0        4.992264   -1.894567   -3.216135
     80          1           0        4.532674   -2.292694   -4.041159
     81          6           0        6.443003   -2.037983   -3.335968
     82          1           0        6.881030   -1.037932   -3.450253
     83          6           0        6.785636   -2.816777   -4.674466
     84          6           0        7.138534   -2.747463   -2.168054
     85          1           0        6.551872   -3.626306   -1.869846
     86          1           0        8.082108   -3.106985   -2.595791
     87          8           0        7.999866   -2.929413   -4.899618
     88          6           0        7.450535   -1.872028   -0.946730
     89          1           0        6.552146   -1.675148   -0.355309
     90          1           0        7.805137   -0.891971   -1.291604
     91          6           0        8.547794   -2.523453   -0.086512
     92          1           0        8.197662   -3.487940    0.309171
     93          1           0        9.419892   -2.729961   -0.724303
     94          6           0        8.960454   -1.613517    1.054924
     95          1           0        8.171138   -1.469381    1.796620
     96          1           0        9.305679   -0.637876    0.703924
     97          7           0       10.151397   -2.227242    1.814815
     98          1           0       10.473313   -1.645117    2.597058
     99          1           0        9.901811   -3.151788    2.185528
    100          1           0       10.942935   -2.365697    1.174546
    101          8           0        5.787497   -3.213241   -5.343832
    102          1           0        5.890044   -2.781953   -7.143706
 ---------------------------------------------------------------------

 SCF Done:  E(RB3LYP) =  -2312.15317379     A.U. after    3 cycles

 Alpha  occ. eigenvalues --  -19.26451 -19.22974 -19.22163 -19.20145 -19.17236
 Alpha  occ. eigenvalues --  -19.14412 -19.12203 -19.07513 -19.06263 -14.62264
 Alpha  occ. eigenvalues --  -14.59720 -14.48958 -14.45609 -14.43782 -14.41032
 Alpha  occ. eigenvalues --  -14.36970 -10.43072 -10.40041 -10.38857 -10.38640
 Alpha  occ. eigenvalues --  -10.37075 -10.34366 -10.34138 -10.33599 -10.33468
 Alpha  occ. eigenvalues --  -10.32219 -10.31220 -10.30085 -10.30001 -10.28800
 Alpha  occ. eigenvalues --  -10.28601 -10.26899 -10.26663 -10.25443 -10.25316
 Alpha  occ. eigenvalues --  -10.25297 -10.24633 -10.24187 -10.23311 -10.23032
 Alpha  occ. eigenvalues --  -10.22463 -10.21685 -10.21235 -10.19657 -10.19263
 Alpha  occ. eigenvalues --  -10.19232 -10.18164 -10.18028  -1.18979  -1.16070
 Alpha  occ. eigenvalues --   -1.14415  -1.13449  -1.11694  -1.10719  -1.09146
 Alpha  occ. eigenvalues --   -1.05752  -1.05566  -1.02210  -1.01213  -1.00313
 Alpha  occ. eigenvalues --   -1.00125  -0.97386  -0.94373  -0.93610  -0.91707
 Alpha  occ. eigenvalues --   -0.91458  -0.88553  -0.87735  -0.85774  -0.85677
 Alpha  occ. eigenvalues --   -0.83735  -0.82989  -0.82176  -0.80095  -0.79751
 Alpha  occ. eigenvalues --   -0.77099  -0.75519  -0.74861  -0.74716  -0.74642
 Alpha  occ. eigenvalues --   -0.74624  -0.74545  -0.73771  -0.73648  -0.73437
 Alpha  occ. eigenvalues --   -0.72574  -0.70737  -0.69236  -0.68516  -0.68459
 Alpha  occ. eigenvalues --   -0.67443  -0.66099  -0.65485  -0.64966  -0.63529
 Alpha  occ. eigenvalues --   -0.63129  -0.62321  -0.62234  -0.61852  -0.61057
 Alpha  occ. eigenvalues --   -0.60845  -0.60043  -0.59321  -0.59210  -0.58650
 Alpha  occ. eigenvalues --   -0.58150  -0.57787  -0.57221  -0.56032  -0.55498
 Alpha  occ. eigenvalues --   -0.55107  -0.54366  -0.53802  -0.53011  -0.52816
 Alpha  occ. eigenvalues --   -0.52650  -0.52425  -0.52029  -0.51554  -0.51235
 Alpha  occ. eigenvalues --   -0.51046  -0.50822  -0.50740  -0.50095  -0.49897
 Alpha  occ. eigenvalues --   -0.49414  -0.49229  -0.49101  -0.48487  -0.48106
 Alpha  occ. eigenvalues --   -0.47712  -0.47297  -0.47158  -0.46901  -0.46578
 Alpha  occ. eigenvalues --   -0.46541  -0.46339  -0.46074  -0.45777  -0.45333
 Alpha  occ. eigenvalues --   -0.45004  -0.44913  -0.44561  -0.44359  -0.44271
 Alpha  occ. eigenvalues --   -0.44079  -0.43421  -0.43188  -0.42675  -0.42147
 Alpha  occ. eigenvalues --   -0.41996  -0.41841  -0.40892  -0.40176  -0.39902
 Alpha  occ. eigenvalues --   -0.39654  -0.39499  -0.39118  -0.39046  -0.38773
 Alpha  occ. eigenvalues --   -0.38391  -0.37950  -0.37326  -0.37049  -0.36951
 Alpha  occ. eigenvalues --   -0.36581  -0.36012  -0.35284  -0.34775  -0.34232
 Alpha  occ. eigenvalues --   -0.34042  -0.33623  -0.33098  -0.31373  -0.30396
 Alpha  occ. eigenvalues --   -0.28468  -0.27560  -0.26062  -0.25054  -0.23366
 Alpha  occ. eigenvalues --   -0.22531  -0.21408  -0.20692
 Alpha virt. eigenvalues --   -0.12947  -0.12125  -0.10824  -0.08693  -0.06320
 Alpha virt. eigenvalues --   -0.06310  -0.06094  -0.06080  -0.04327  -0.03323
 Alpha virt. eigenvalues --   -0.03280  -0.01784  -0.00976  -0.00916  -0.00248

 Mulliken charges:
               1
     1  N   -0.758038
     2  H    0.415259
     3  H    0.412683
     4  H    0.434568
     5  C   -0.118530
     6  H    0.206530
     7  C    0.671907
     8  C   -0.103261
     9  H    0.151650
    10  O   -0.542776
    11  C   -0.488195
    12  H    0.227778
    13  H    0.186693
    14  H    0.125813
    15  C   -0.502407
    16  H    0.221403
    17  H    0.150131
    18  H    0.186332
    19  N   -0.583368
    20  H    0.373053
    21  C   -0.099627
    22  H    0.195540
    23  C    0.634639
    24  C   -0.065607
    25  H    0.170070
    26  H    0.160668
    27  O   -0.523106
    28  O   -0.668844
    29  H    0.480086
    30  N   -0.575143
    31  H    0.338490
    32  C   -0.055126
    33  H    0.188192
    34  C    0.651429
    35  C   -0.480194
    36  H    0.189734
    37  H    0.168166
    38  H    0.181352
    39  O   -0.594442
    40  N   -0.590485
    41  H    0.363064
    42  C   -0.072355
    43  H    0.173362
    44  C    0.631776
    45  C   -0.248178
    46  H    0.150738
    47  H    0.143370
    48  O   -0.551691
    49  C   -0.087524
    50  H    0.142751
    51  C   -0.447737
    52  H    0.144094
    53  H    0.135849
    54  H    0.141040
    55  C   -0.467293
    56  H    0.130394
    57  H    0.149160
    58  H    0.168330
    59  N   -0.619708
    60  H    0.342638
    61  C   -0.024530
    62  H    0.177795
    63  C    0.605653
    64  C   -0.354087
    65  H    0.141167
    66  H    0.163431
    67  O   -0.593202
    68  C    0.143888
    69  C   -0.188896
    70  H    0.112674
    71  C   -0.209880
    72  H    0.119949
    73  C   -0.163521
    74  H    0.138736
    75  C   -0.150426
    76  H    0.131216
    77  O   -0.704559
    78  C    0.366974
    79  N   -0.601526
    80  H    0.370199
    81  C   -0.045772
    82  H    0.144099
    83  C    0.590211
    84  C   -0.271636
    85  H    0.132457
    86  H    0.171667
    87  O   -0.578691
    88  C   -0.258718
    89  H    0.168643
    90  H    0.150190
    91  C   -0.295153
    92  H    0.157947
    93  H    0.166153
    94  C   -0.205388
    95  H    0.219884
    96  H    0.226783
    97  N   -0.731302
    98  H    0.421726
    99  H    0.421841
   100  H    0.426086
   101  O   -0.628241
   102  H    0.441058
 Sum of Mulliken charges =   1.00000

 Dipole moment (field-independent basis, Debye):
    X=             -3.6779    Y=             -1.6188    Z=             43.6178  Tot=             43.8025
 Quadrupole moment (field-independent basis, Debye-Ang):
   XX=            128.9560   YY=           -262.3454   ZZ=           -265.2590
   XY=            -18.8947   XZ=             56.8293   YZ=            -81.9022

 Normal termination of Gaussian 16 at Mon Jun 27 02:26:17 2022.
