 Gaussian 16, Revision C.01,
 Gaussian 16:  ES64L-G16RevC.01  3-Jul-2019

 ----------------------------------------------------------------------
 # B3LYP/6-31G* empiricaldispersion=gd3 guess=read geom=check nosymm in
 tegral(ultrafinegrid)
 ----------------------------------------------------------------------

 ------------------------------------------------------
 Candidate Structure: Conf:404 Charge calc in gas phase
 ------------------------------------------------------
 Structure from the checkpoint file:  "conf-404.chk"
 Charge =  1 Multiplicity = 1

                          Input orientation:
 ---------------------------------------------------------------------
 Center     Atomic      Atomic             Coordinates (Angstroms)
 Number     Number       Type             X           Y           Z
 ---------------------------------------------------------------------
      1          7           0       -1.902314    2.346764   -3.692060
      2          1           0       -1.620930    3.074595   -4.351685
      3          1           0       -1.713270    1.433485   -4.145073
      4          1           0       -1.264875    2.362513   -2.864409
      5          6           0       -3.311358    2.504103   -3.172015
      6          1           0       -3.646014    3.503555   -3.465561
      7          6           0       -3.155177    2.458510   -1.630030
      8          6           0       -4.258141    1.433755   -3.784689
      9          1           0       -3.964510    1.366672   -4.842321
     10          8           0       -2.035221    2.308022   -1.131382
     11          6           0       -4.079724    0.051520   -3.136609
     12          1           0       -4.439384    0.051599   -2.101364
     13          1           0       -4.659499   -0.693033   -3.690074
     14          1           0       -3.035243   -0.273100   -3.137175
     15          6           0       -5.733250    1.872153   -3.769376
     16          1           0       -6.188392    1.806590   -2.774344
     17          1           0       -5.865872    2.891976   -4.147628
     18          1           0       -6.311800    1.203057   -4.413292
     19          7           0       -4.279572    2.600684   -0.919372
     20          1           0       -5.190662    2.603314   -1.366561
     21          6           0       -4.339974    2.410384    0.529772
     22          1           0       -3.572797    3.028456    1.005852
     23          6           0       -4.139367    0.914946    0.856528
     24          6           0       -5.755582    2.846152    0.966027
     25          1           0       -5.851638    3.930909    0.863853
     26          1           0       -5.909626    2.582855    2.021004
     27          8           0       -5.051595    0.103636    0.654096
     28          8           0       -6.731147    2.263765    0.117026
     29          1           0       -6.642328    1.297784    0.244717
     30          7           0       -2.935730    0.579160    1.354657
     31          1           0       -2.189982    1.266596    1.411324
     32          6           0       -2.539257   -0.788104    1.660836
     33          1           0       -3.230828   -1.205692    2.403372
     34          6           0       -1.119728   -0.699370    2.250345
     35          6           0       -2.547631   -1.681546    0.403004
     36          1           0       -2.280735   -2.716334    0.639588
     37          1           0       -1.837578   -1.297760   -0.335868
     38          1           0       -3.549346   -1.677979   -0.029215
     39          8           0       -0.512521    0.374487    2.279577
     40          7           0       -0.554245   -1.865552    2.653942
     41          1           0       -1.064090   -2.729575    2.519675
     42          6           0        0.896069   -1.983548    2.896912
     43          1           0        1.205969   -1.056210    3.384090
     44          6           0        1.548860   -2.071631    1.497479
     45          6           0        1.217287   -3.189257    3.776180
     46          1           0        0.984024   -4.103483    3.215391
     47          1           0        2.305435   -3.197557    3.932194
     48          8           0        1.847641   -3.168878    0.984533
     49          6           0        0.510916   -3.207044    5.145335
     50          1           0       -0.573603   -3.248770    4.967361
     51          6           0        0.911189   -4.473925    5.914593
     52          1           0        1.985615   -4.470842    6.139129
     53          1           0        0.374720   -4.539124    6.866897
     54          1           0        0.689378   -5.381692    5.340828
     55          6           0        0.805297   -1.946172    5.970313
     56          1           0        1.885536   -1.819273    6.119500
     57          1           0        0.341636   -2.016643    6.959807
     58          1           0        0.419066   -1.038207    5.493560
     59          7           0        1.618027   -0.905908    0.845553
     60          1           0        1.320896   -0.086714    1.366604
     61          6           0        1.575461   -0.783749   -0.611135
     62          1           0        1.038636   -1.659956   -0.993039
     63          6           0        2.989146   -0.754688   -1.244467
     64          6           0        0.752738    0.500692   -0.921331
     65          1           0        1.321644    1.370209   -0.571322
     66          1           0       -0.171179    0.469190   -0.334200
     67          8           0        3.971229   -0.464731   -0.555331
     68          6           0        0.455897    0.614079   -2.388828
     69          6           0        1.123739    1.546131   -3.195194
     70          1           0        1.770458    2.287367   -2.731606
     71          6           0       -0.362302   -0.342481   -3.009089
     72          1           0       -0.901283   -1.065726   -2.400066
     73          6           0        1.077322    1.457474   -4.585581
     74          1           0        1.722293    2.071228   -5.203626
     75          6           0       -0.410858   -0.451842   -4.400591
     76          1           0       -0.939346   -1.266833   -4.885889
     77          8           0        0.666919    0.047374   -6.471175
     78          6           0        0.409151    0.377660   -5.191238
     79          7           0        3.030050   -1.065665   -2.556037
     80          1           0        2.178613   -1.290417   -3.063521
     81          6           0        4.159770   -0.766780   -3.463415
     82          1           0        4.711769    0.070223   -3.030018
     83          6           0        3.540057   -0.315884   -4.829545
     84          6           0        5.107674   -1.955845   -3.685996
     85          1           0        4.546854   -2.770506   -4.160445
     86          1           0        5.852888   -1.621471   -4.417422
     87          8           0        3.920134    0.760097   -5.303519
     88          6           0        5.829247   -2.440371   -2.416400
     89          1           0        6.096638   -1.563343   -1.815282
     90          1           0        6.766927   -2.944144   -2.680290
     91          6           0        4.968806   -3.399519   -1.565257
     92          1           0        3.911229   -3.150074   -1.686914
     93          1           0        5.097488   -4.433880   -1.914791
     94          6           0        5.325676   -3.290638   -0.091455
     95          1           0        5.203185   -2.260919    0.250684
     96          1           0        6.335868   -3.646284    0.129793
     97          7           0        4.361962   -4.126218    0.735605
     98          1           0        4.635410   -4.168045    1.721677
     99          1           0        3.384960   -3.721424    0.703976
    100          1           0        4.315300   -5.088328    0.385323
    101          8           0        2.667185   -1.134699   -5.283714
    102          1           0        1.579756   -0.405933   -6.357022
 ---------------------------------------------------------------------

 SCF Done:  E(RB3LYP) =  -2312.21646659     A.U. after    1 cycles

 Alpha  occ. eigenvalues --  -19.25842 -19.24623 -19.24609 -19.24225 -19.23022
 Alpha  occ. eigenvalues --  -19.18755 -19.18707 -19.12218 -19.10947 -14.56619
 Alpha  occ. eigenvalues --  -14.56531 -14.48973 -14.48845 -14.47217 -14.47204
 Alpha  occ. eigenvalues --  -14.42215 -10.42693 -10.41496 -10.40942 -10.40079
 Alpha  occ. eigenvalues --  -10.38813 -10.36049 -10.35446 -10.34989 -10.34913
 Alpha  occ. eigenvalues --  -10.34886 -10.33928 -10.33235 -10.33140 -10.31648
 Alpha  occ. eigenvalues --  -10.29561 -10.29393 -10.29266 -10.29257 -10.28963
 Alpha  occ. eigenvalues --  -10.28764 -10.28515 -10.28309 -10.28235 -10.28173
 Alpha  occ. eigenvalues --  -10.27450 -10.27081 -10.26210 -10.25984 -10.25899
 Alpha  occ. eigenvalues --  -10.25853 -10.25540 -10.23644  -1.18021  -1.16795
 Alpha  occ. eigenvalues --   -1.15620  -1.14851  -1.11705  -1.11330  -1.11132
 Alpha  occ. eigenvalues --   -1.10360  -1.08334  -1.05492  -1.05216  -1.04744
 Alpha  occ. eigenvalues --   -1.03833  -1.03673  -0.98389  -0.96011  -0.94198
 Alpha  occ. eigenvalues --   -0.93668  -0.91716  -0.89427  -0.89345  -0.88162
 Alpha  occ. eigenvalues --   -0.87025  -0.84767  -0.83650  -0.83248  -0.83159
 Alpha  occ. eigenvalues --   -0.81087  -0.80246  -0.78093  -0.77392  -0.77007
 Alpha  occ. eigenvalues --   -0.75846  -0.75054  -0.73933  -0.73241  -0.72453
 Alpha  occ. eigenvalues --   -0.71878  -0.71258  -0.71013  -0.70824  -0.69466
 Alpha  occ. eigenvalues --   -0.69239  -0.68797  -0.68624  -0.66912  -0.66481
 Alpha  occ. eigenvalues --   -0.65846  -0.65720  -0.65622  -0.63722  -0.63564
 Alpha  occ. eigenvalues --   -0.62472  -0.61718  -0.61394  -0.61038  -0.60330
 Alpha  occ. eigenvalues --   -0.59965  -0.59450  -0.59287  -0.58764  -0.58675
 Alpha  occ. eigenvalues --   -0.58169  -0.56849  -0.56574  -0.56002  -0.55619
 Alpha  occ. eigenvalues --   -0.55527  -0.55289  -0.54706  -0.54277  -0.54207
 Alpha  occ. eigenvalues --   -0.53784  -0.53250  -0.53071  -0.52727  -0.52262
 Alpha  occ. eigenvalues --   -0.52048  -0.51739  -0.51693  -0.51430  -0.51302
 Alpha  occ. eigenvalues --   -0.50844  -0.50803  -0.50226  -0.50021  -0.49675
 Alpha  occ. eigenvalues --   -0.49419  -0.49250  -0.49193  -0.48870  -0.48751
 Alpha  occ. eigenvalues --   -0.48539  -0.48078  -0.47496  -0.47209  -0.46993
 Alpha  occ. eigenvalues --   -0.46860  -0.46591  -0.46375  -0.45936  -0.45847
 Alpha  occ. eigenvalues --   -0.45666  -0.45645  -0.44839  -0.44561  -0.43846
 Alpha  occ. eigenvalues --   -0.43457  -0.42563  -0.42332  -0.42083  -0.41942
 Alpha  occ. eigenvalues --   -0.41832  -0.41750  -0.40889  -0.40521  -0.40400
 Alpha  occ. eigenvalues --   -0.40311  -0.39905  -0.39401  -0.38651  -0.38505
 Alpha  occ. eigenvalues --   -0.37703  -0.37595  -0.37042  -0.36287  -0.35434
 Alpha  occ. eigenvalues --   -0.34483  -0.32998  -0.32621  -0.32393  -0.30334
 Alpha  occ. eigenvalues --   -0.27242  -0.26953  -0.24731
 Alpha virt. eigenvalues --   -0.12154  -0.11743  -0.10051  -0.09943  -0.08941
 Alpha virt. eigenvalues --   -0.08682  -0.08537  -0.07112  -0.05825  -0.04131
 Alpha virt. eigenvalues --   -0.03646  -0.03150  -0.01843  -0.01652  -0.01043

 Mulliken charges:
               1
     1  N   -0.784199
     2  H    0.409988
     3  H    0.405451
     4  H    0.435237
     5  C   -0.088782
     6  H    0.210183
     7  C    0.628625
     8  C   -0.115699
     9  H    0.169427
    10  O   -0.533900
    11  C   -0.490062
    12  H    0.177192
    13  H    0.183822
    14  H    0.157878
    15  C   -0.485962
    16  H    0.179566
    17  H    0.167286
    18  H    0.190336
    19  N   -0.598194
    20  H    0.381151
    21  C   -0.084044
    22  H    0.182593
    23  C    0.651738
    24  C   -0.066449
    25  H    0.177508
    26  H    0.168327
    27  O   -0.556029
    28  O   -0.630768
    29  H    0.427596
    30  N   -0.610732
    31  H    0.378458
    32  C   -0.035625
    33  H    0.198406
    34  C    0.630963
    35  C   -0.485891
    36  H    0.152637
    37  H    0.170827
    38  H    0.214925
    39  O   -0.542285
    40  N   -0.601397
    41  H    0.347890
    42  C   -0.068490
    43  H    0.200672
    44  C    0.610625
    45  C   -0.285004
    46  H    0.153436
    47  H    0.133870
    48  O   -0.594578
    49  C   -0.073679
    50  H    0.127651
    51  C   -0.445704
    52  H    0.145597
    53  H    0.164369
    54  H    0.144712
    55  C   -0.457807
    56  H    0.147434
    57  H    0.165652
    58  H    0.152765
    59  N   -0.558401
    60  H    0.383452
    61  C   -0.066718
    62  H    0.165960
    63  C    0.612860
    64  C   -0.400194
    65  H    0.175413
    66  H    0.172564
    67  O   -0.552507
    68  C    0.131265
    69  C   -0.211973
    70  H    0.157660
    71  C   -0.230245
    72  H    0.138694
    73  C   -0.203530
    74  H    0.201293
    75  C   -0.227014
    76  H    0.159469
    77  O   -0.680101
    78  C    0.369719
    79  N   -0.606404
    80  H    0.353870
    81  C   -0.012781
    82  H    0.162964
    83  C    0.582498
    84  C   -0.281062
    85  H    0.155162
    86  H    0.168835
    87  O   -0.562003
    88  C   -0.275169
    89  H    0.168548
    90  H    0.147378
    91  C   -0.282703
    92  H    0.174462
    93  H    0.146329
    94  C   -0.211935
    95  H    0.247297
    96  H    0.193810
    97  N   -0.771925
    98  H    0.396966
    99  H    0.458122
   100  H    0.397426
   101  O   -0.646607
   102  H    0.449743
 Sum of Mulliken charges =   1.00000

 Dipole moment (field-independent basis, Debye):
    X=             -5.2813    Y=             -6.4411    Z=              7.5273  Tot=             11.2268
 Quadrupole moment (field-independent basis, Debye-Ang):
   XX=           -217.6793   YY=           -199.3726   ZZ=           -288.9432
   XY=            -80.2494   XZ=             69.2480   YZ=            -44.8516

 Normal termination of Gaussian 16 at Mon Jun 27 02:25:50 2022.
