 Gaussian 16, Revision C.01,
 Gaussian 16:  ES64L-G16RevC.01  3-Jul-2019

 ----------------------------------------------------------------------
 # B3LYP/6-31G* empiricaldispersion=gd3 guess=read geom=check nosymm in
 tegral(ultrafinegrid)
 ----------------------------------------------------------------------

 ------------------------------------------------------
 Candidate Structure: Conf:731 Charge calc in gas phase
 ------------------------------------------------------
 Structure from the checkpoint file:  "conf-731.chk"
 Charge =  1 Multiplicity = 1

                          Input orientation:
 ---------------------------------------------------------------------
 Center     Atomic      Atomic             Coordinates (Angstroms)
 Number     Number       Type             X           Y           Z
 ---------------------------------------------------------------------
      1          7           0       -7.154127    2.160625    3.781996
      2          1           0       -7.294716    1.654454    4.657334
      3          1           0       -7.968799    2.735997    3.582728
      4          1           0       -6.339163    2.768400    3.897241
      5          6           0       -6.842635    1.242132    2.666702
      6          1           0       -7.394961    0.303475    2.800654
      7          6           0       -5.351034    0.946027    2.731614
      8          6           0       -7.263597    1.843126    1.306130
      9          1           0       -8.340421    2.019057    1.417925
     10          8           0       -4.555564    1.782719    3.152053
     11          6           0       -6.592888    3.182806    1.016454
     12          1           0       -5.515829    3.053828    0.918401
     13          1           0       -6.971044    3.601236    0.081400
     14          1           0       -6.773763    3.906420    1.810970
     15          6           0       -7.062511    0.879333    0.139659
     16          1           0       -5.999712    0.780838   -0.100074
     17          1           0       -7.470284   -0.112680    0.348810
     18          1           0       -7.568676    1.262969   -0.749322
     19          7           0       -4.957344   -0.266751    2.274977
     20          1           0       -5.603366   -0.793073    1.704689
     21          6           0       -3.541933   -0.602828    2.192930
     22          1           0       -3.067108   -0.050523    3.009143
     23          6           0       -2.966223   -0.130001    0.859857
     24          6           0       -3.336018   -2.094803    2.394937
     25          1           0       -2.282106   -2.332720    2.251872
     26          1           0       -3.904765   -2.646172    1.635994
     27          8           0       -2.527175   -0.906517    0.006813
     28          8           0       -3.672091   -2.495033    3.709355
     29          1           0       -4.592454   -2.264035    3.850015
     30          7           0       -2.996129    1.202556    0.663903
     31          1           0       -3.257318    1.805018    1.436986
     32          6           0       -2.471368    1.803994   -0.551078
     33          1           0       -2.659135    1.075453   -1.347946
     34          6           0       -0.953713    2.003000   -0.430494
     35          6           0       -3.188765    3.109123   -0.843911
     36          1           0       -2.824402    3.546434   -1.773355
     37          1           0       -3.019611    3.827298   -0.037858
     38          1           0       -4.261824    2.917445   -0.936246
     39          8           0       -0.418811    3.107787   -0.462438
     40          7           0       -0.240847    0.864574   -0.248035
     41          1           0       -0.704831   -0.031050   -0.342077
     42          6           0        1.203440    0.921855   -0.158276
     43          1           0        1.438504    1.858326    0.353995
     44          6           0        1.820462    0.953397   -1.556044
     45          6           0        1.759686   -0.252062    0.629499
     46          1           0        1.292741   -0.239223    1.617402
     47          1           0        1.457256   -1.176297    0.132094
     48          8           0        2.016561   -0.057566   -2.221029
     49          6           0        3.286613   -0.254649    0.793134
     50          1           0        3.728235   -0.372282   -0.203509
     51          6           0        3.815206    1.045471    1.392996
     52          1           0        3.316581    1.265961    2.342257
     53          1           0        4.886754    0.957771    1.589790
     54          1           0        3.678864    1.895188    0.720402
     55          6           0        3.689436   -1.449591    1.652975
     56          1           0        3.276799   -1.345365    2.659031
     57          1           0        4.775900   -1.524113    1.735714
     58          1           0        3.319196   -2.383620    1.225980
     59          7           0        2.124187    2.191668   -2.011180
     60          1           0        1.823162    3.001032   -1.490162
     61          6           0        2.920293    2.357439   -3.214641
     62          1           0        2.331470    2.049126   -4.084203
     63          6           0        4.132328    1.445281   -3.100216
     64          6           0        3.354564    3.825355   -3.369159
     65          1           0        3.890313    4.103243   -2.461361
     66          1           0        2.455539    4.439059   -3.438512
     67          8           0        4.907440    1.508543   -2.151058
     68          6           0        4.225337    4.036362   -4.555983
     69          6           0        5.620316    3.884997   -4.428268
     70          1           0        6.032209    3.673264   -3.441779
     71          6           0        3.680227    4.296624   -5.827470
     72          1           0        2.607756    4.437972   -5.924143
     73          6           0        6.453125    3.956842   -5.509300
     74          1           0        7.525049    3.824527   -5.427250
     75          6           0        4.468885    4.378082   -6.943763
     76          1           0        4.055831    4.575545   -7.924648
     77          8           0        6.643231    4.238737   -7.831435
     78          6           0        5.912388    4.190178   -6.843651
     79          7           0        4.245333    0.526014   -4.082797
     80          1           0        3.670926    0.590822   -4.900274
     81          6           0        5.350161   -0.408509   -4.101578
     82          1           0        5.600484   -0.633436   -3.061193
     83          6           0        6.533897    0.266843   -4.776006
     84          6           0        4.956564   -1.666720   -4.867384
     85          1           0        4.706728   -1.379685   -5.888477
     86          1           0        5.823464   -2.330603   -4.923642
     87          8           0        6.534542    0.639879   -5.926459
     88          6           0        3.792785   -2.407620   -4.228528
     89          1           0        2.912062   -1.762951   -4.201420
     90          1           0        4.044702   -2.623382   -3.184659
     91          6           0        3.450921   -3.689811   -4.969180
     92          1           0        3.266899   -3.452116   -6.021838
     93          1           0        4.303447   -4.375779   -4.943251
     94          6           0        2.222975   -4.392272   -4.423095
     95          1           0        1.925256   -5.205411   -5.087164
     96          1           0        1.393674   -3.679293   -4.397120
     97          7           0        2.434101   -4.929863   -3.054468
     98          1           0        1.588718   -5.354812   -2.673021
     99          1           0        3.171352   -5.634478   -3.043293
    100          1           0        2.718431   -4.189854   -2.414702
    101          8           0        7.590321    0.416358   -3.953888
    102          1           0        8.264462    0.870574   -4.476516
 ---------------------------------------------------------------------

 SCF Done:  E(RB3LYP) =  -2312.03835267     A.U. after    3 cycles

 Alpha  occ. eigenvalues --  -19.25125 -19.23973 -19.23140 -19.22030 -19.18890
 Alpha  occ. eigenvalues --  -19.17285 -19.17123 -19.15129 -19.05270 -14.62871
 Alpha  occ. eigenvalues --  -14.61733 -14.49285 -14.45953 -14.42620 -14.40689
 Alpha  occ. eigenvalues --  -14.40551 -10.41202 -10.40345 -10.39518 -10.38897
 Alpha  occ. eigenvalues --  -10.35800 -10.35419 -10.34567 -10.33948 -10.33659
 Alpha  occ. eigenvalues --  -10.33189 -10.32300 -10.32103 -10.31925 -10.30943
 Alpha  occ. eigenvalues --  -10.30491 -10.29049 -10.28985 -10.28702 -10.27096
 Alpha  occ. eigenvalues --  -10.26775 -10.26562 -10.24605 -10.24078 -10.23155
 Alpha  occ. eigenvalues --  -10.21719 -10.21173 -10.20186 -10.17382 -10.17297
 Alpha  occ. eigenvalues --  -10.16859 -10.15232 -10.15144  -1.19007  -1.17991
 Alpha  occ. eigenvalues --   -1.15983  -1.14329  -1.14107  -1.11943  -1.10954
 Alpha  occ. eigenvalues --   -1.09392  -1.07277  -1.05737  -1.05072  -1.02621
 Alpha  occ. eigenvalues --   -0.99404  -0.97895  -0.97283  -0.96132  -0.95948
 Alpha  occ. eigenvalues --   -0.93995  -0.89238  -0.87603  -0.87405  -0.86337
 Alpha  occ. eigenvalues --   -0.84730  -0.84200  -0.82221  -0.81984  -0.81182
 Alpha  occ. eigenvalues --   -0.78909  -0.77255  -0.76773  -0.75942  -0.75731
 Alpha  occ. eigenvalues --   -0.75368  -0.74232  -0.73898  -0.73622  -0.72714
 Alpha  occ. eigenvalues --   -0.72590  -0.72226  -0.70782  -0.70181  -0.69653
 Alpha  occ. eigenvalues --   -0.69275  -0.67261  -0.66898  -0.65859  -0.65733
 Alpha  occ. eigenvalues --   -0.63763  -0.63334  -0.63235  -0.63069  -0.62748
 Alpha  occ. eigenvalues --   -0.61515  -0.61079  -0.60207  -0.59733  -0.59417
 Alpha  occ. eigenvalues --   -0.58641  -0.58331  -0.57600  -0.57524  -0.56932
 Alpha  occ. eigenvalues --   -0.56600  -0.55891  -0.55282  -0.54981  -0.54695
 Alpha  occ. eigenvalues --   -0.54104  -0.53938  -0.53693  -0.52897  -0.52805
 Alpha  occ. eigenvalues --   -0.52513  -0.52058  -0.51487  -0.51390  -0.51095
 Alpha  occ. eigenvalues --   -0.50875  -0.50385  -0.49588  -0.49468  -0.49226
 Alpha  occ. eigenvalues --   -0.48486  -0.48376  -0.48104  -0.47923  -0.47739
 Alpha  occ. eigenvalues --   -0.47573  -0.47167  -0.47026  -0.46664  -0.46582
 Alpha  occ. eigenvalues --   -0.46027  -0.45903  -0.45272  -0.45128  -0.44925
 Alpha  occ. eigenvalues --   -0.44568  -0.44061  -0.43614  -0.43446  -0.43252
 Alpha  occ. eigenvalues --   -0.43055  -0.42825  -0.42363  -0.42140  -0.42024
 Alpha  occ. eigenvalues --   -0.41889  -0.40569  -0.40232  -0.39524  -0.39436
 Alpha  occ. eigenvalues --   -0.38691  -0.38492  -0.38110  -0.37771  -0.37342
 Alpha  occ. eigenvalues --   -0.37040  -0.36819  -0.35664  -0.34845  -0.34746
 Alpha  occ. eigenvalues --   -0.34023  -0.33376  -0.32538  -0.32064  -0.31947
 Alpha  occ. eigenvalues --   -0.31137  -0.30142  -0.28973  -0.28738  -0.28416
 Alpha  occ. eigenvalues --   -0.23484  -0.18413  -0.14395
 Alpha virt. eigenvalues --   -0.13649  -0.13336  -0.11974  -0.09236  -0.07269
 Alpha virt. eigenvalues --   -0.07059  -0.06715  -0.05929  -0.05286  -0.04102
 Alpha virt. eigenvalues --   -0.03558  -0.03289  -0.02967  -0.01695  -0.01336

 Mulliken charges:
               1
     1  N   -0.695761
     2  H    0.394939
     3  H    0.388604
     4  H    0.422754
     5  C   -0.141352
     6  H    0.193132
     7  C    0.598721
     8  C   -0.100458
     9  H    0.151707
    10  O   -0.559039
    11  C   -0.469526
    12  H    0.189748
    13  H    0.191679
    14  H    0.131898
    15  C   -0.480996
    16  H    0.180371
    17  H    0.152950
    18  H    0.193903
    19  N   -0.614645
    20  H    0.338512
    21  C   -0.109753
    22  H    0.215061
    23  C    0.628766
    24  C   -0.032276
    25  H    0.181090
    26  H    0.135384
    27  O   -0.553789
    28  O   -0.601490
    29  H    0.388156
    30  N   -0.605700
    31  H    0.365294
    32  C   -0.074533
    33  H    0.186305
    34  C    0.627036
    35  C   -0.459984
    36  H    0.191325
    37  H    0.170783
    38  H    0.138448
    39  O   -0.526070
    40  N   -0.623603
    41  H    0.359880
    42  C   -0.055228
    43  H    0.176760
    44  C    0.654677
    45  C   -0.261574
    46  H    0.129492
    47  H    0.113103
    48  O   -0.582501
    49  C   -0.090192
    50  H    0.158958
    51  C   -0.448600
    52  H    0.130251
    53  H    0.157187
    54  H    0.166961
    55  C   -0.438083
    56  H    0.143907
    57  H    0.154062
    58  H    0.103507
    59  N   -0.610785
    60  H    0.356770
    61  C    0.007937
    62  H    0.134556
    63  C    0.666306
    64  C   -0.396402
    65  H    0.161558
    66  H    0.141779
    67  O   -0.548953
    68  C    0.122581
    69  C   -0.187857
    70  H    0.117131
    71  C   -0.184569
    72  H    0.082075
    73  C   -0.200442
    74  H    0.095107
    75  C   -0.208193
    76  H    0.103494
    77  O   -0.579260
    78  C    0.422750
    79  N   -0.580594
    80  H    0.337025
    81  C   -0.026862
    82  H    0.185171
    83  C    0.599530
    84  C   -0.306040
    85  H    0.178715
    86  H    0.157562
    87  O   -0.445645
    88  C   -0.282670
    89  H    0.194518
    90  H    0.121946
    91  C   -0.291158
    92  H    0.202564
    93  H    0.160738
    94  C   -0.223346
    95  H    0.220058
    96  H    0.229385
    97  N   -0.689876
    98  H    0.401569
    99  H    0.400544
   100  H    0.417164
   101  O   -0.557889
   102  H    0.421850
 Sum of Mulliken charges =   1.00000

 Dipole moment (field-independent basis, Debye):
    X=            -33.4119    Y=            -21.6466    Z=             13.2372  Tot=             41.9542
 Quadrupole moment (field-independent basis, Debye-Ang):
   XX=           -128.6376   YY=           -218.0909   ZZ=           -318.2506
   XY=           -161.8153   XZ=            -13.6005   YZ=            156.1821

 Normal termination of Gaussian 16 at Mon Jun 27 02:46:04 2022.
