 Gaussian 16, Revision C.01,
 Gaussian 16:  ES64L-G16RevC.01  3-Jul-2019

 -------------------------------------------------------------------
 # B3LYP/6-31G* guess=read geom=check nosymm integral(ultrafinegrid)
 -------------------------------------------------------------------

 ------------------------------------------------------
 Candidate Structure: Conf:962 Charge calc in gas phase
 ------------------------------------------------------
 Structure from the checkpoint file:  "conf-962.chk"
 Charge =  1 Multiplicity = 1

                          Input orientation:
 ---------------------------------------------------------------------
 Center     Atomic      Atomic             Coordinates (Angstroms)
 Number     Number       Type             X           Y           Z
 ---------------------------------------------------------------------
      1          7           0       -6.035392    2.819996    2.921981
      2          1           0       -6.342866    3.760231    2.660967
      3          1           0       -6.306663    2.126612    2.148708
      4          1           0       -6.468625    2.574057    3.816132
      5          6           0       -4.526643    2.656785    2.932831
      6          1           0       -4.081909    3.644843    2.798204
      7          6           0       -4.285587    1.768314    1.676997
      8          6           0       -4.047764    1.998541    4.234852
      9          1           0       -4.524264    1.011365    4.317913
     10          1           0       -2.974356    1.803696    4.121279
     11          8           0       -5.290702    1.296067    1.113674
     12          6           0       -4.275972    2.810709    5.529325
     13          1           0       -5.355821    3.016457    5.636830
     14          6           0       -3.858374    1.961439    6.740305
     15          1           0       -2.787110    1.730540    6.703145
     16          1           0       -4.406520    1.013349    6.778128
     17          1           0       -4.051427    2.499022    7.673800
     18          6           0       -3.535071    4.156249    5.518656
     19          1           0       -2.454389    4.005846    5.407438
     20          1           0       -3.865616    4.822541    4.712031
     21          1           0       -3.699064    4.690032    6.459907
     22          7           0       -3.027425    1.576976    1.323697
     23          1           0       -2.230681    1.958138    1.845580
     24          6           0       -2.566875    0.724667    0.224100
     25          1           0       -3.140941   -0.206666    0.236029
     26          6           0       -1.085935    0.449723    0.588211
     27          6           0       -2.762655    1.436373   -1.143443
     28          1           0       -3.825221    1.700065   -1.207425
     29          1           0       -2.202775    2.377975   -1.115743
     30          8           0       -0.521954    1.198149    1.392625
     31          6           0       -2.340240    0.629871   -2.338955
     32          6           0       -2.937169   -0.512411   -2.826828
     33          1           0       -3.803462   -1.051774   -2.466421
     34          6           0       -1.246745    0.931478   -3.231276
     35          6           0       -1.241029   -0.070028   -4.238792
     36          6           0       -0.284829    1.956313   -3.287921
     37          1           0       -0.261518    2.739989   -2.534431
     38          7           0       -2.283888   -0.930006   -3.965077
     39          1           0       -2.494660   -1.772123   -4.478448
     40          6           0        0.621022    0.953271   -5.316737
     41          1           0        1.350020    0.986811   -6.121309
     42          6           0       -0.314184   -0.073742   -5.286843
     43          1           0       -0.328756   -0.845114   -6.051826
     44          6           0        0.636300    1.958519   -4.326043
     45          1           0        1.380037    2.748171   -4.383220
     46          7           0       -0.527943   -0.622033    0.005454
     47          1           0       -0.981454   -1.076358   -0.784834
     48          6           0        0.849246   -1.033187    0.226339
     49          1           0        1.423110   -0.164644    0.561712
     50          6           0        1.370358   -1.595504   -1.111410
     51          6           0        0.942822   -2.139494    1.293090
     52          1           0        2.000410   -2.422719    1.407666
     53          1           0        0.393610   -3.022080    0.928816
     54          8           0        0.579415   -2.050693   -1.938850
     55          8           0        0.397321   -1.645072    2.503403
     56          1           0        0.468974   -2.348703    3.166306
     57          7           0        2.708786   -1.600358   -1.255953
     58          1           0        3.335454   -1.259258   -0.531317
     59          6           0        3.391330   -2.222612   -2.381089
     60          1           0        2.878971   -3.162192   -2.618898
     61          6           0        4.823987   -2.515198   -1.895840
     62          6           0        3.391968   -1.321564   -3.629183
     63          1           0        3.885341   -1.819360   -4.470773
     64          1           0        3.919353   -0.384313   -3.423361
     65          1           0        2.362976   -1.090908   -3.915249
     66          8           0        5.265561   -1.990784   -0.868469
     67          7           0        5.542561   -3.344880   -2.676199
     68          1           0        5.177500   -3.725009   -3.544607
     69          6           0        6.953203   -3.624985   -2.445378
     70          1           0        7.417398   -2.708843   -2.074751
     71          6           0        7.550807   -3.995343   -3.815161
     72          6           0        7.112302   -4.769122   -1.405298
     73          1           0        6.582351   -4.445540   -0.501229
     74          1           0        6.561802   -5.629259   -1.805765
     75          8           0        8.863762   -3.863034   -3.946000
     76          6           0        8.539203   -5.222938   -1.042427
     77          1           0        8.454515   -6.216214   -0.584500
     78          1           0        9.127346   -5.375025   -1.954018
     79          6           0        9.318563   -4.343014   -0.046317
     80          1           0       10.284189   -4.830563    0.151034
     81          1           0        8.789962   -4.324747    0.915996
     82          6           0        9.578897   -2.887639   -0.449871
     83          1           0        8.641569   -2.321632   -0.466518
     84          1           0       10.215959   -2.416956    0.313127
     85          7           0       10.184771   -2.792322   -1.799013
     86          1           0       10.398693   -1.818823   -2.016094
     87          1           0       11.080979   -3.281906   -1.807235
     88          1           0        9.298962   -3.452201   -3.125436
     89          8           0        6.839538   -4.407825   -4.711638
 ---------------------------------------------------------------------

 SCF Done:  E(RB3LYP) =  -2042.50022740     A.U. after    1 cycles

 Alpha  occ. eigenvalues --  -19.26448 -19.21897 -19.21745 -19.20555 -19.18672
 Alpha  occ. eigenvalues --  -19.18231 -19.17509 -14.59366 -14.48621 -14.44518
 Alpha  occ. eigenvalues --  -14.44012 -14.42684 -14.42008 -14.41264 -10.43010
 Alpha  occ. eigenvalues --  -10.40267 -10.37679 -10.35977 -10.35922 -10.35220
 Alpha  occ. eigenvalues --  -10.33592 -10.33194 -10.32064 -10.31168 -10.30831
 Alpha  occ. eigenvalues --  -10.29956 -10.29198 -10.28917 -10.28824 -10.28322
 Alpha  occ. eigenvalues --  -10.28086 -10.28058 -10.27990 -10.25469 -10.24777
 Alpha  occ. eigenvalues --  -10.24727 -10.24722 -10.24663 -10.24613 -10.24272
 Alpha  occ. eigenvalues --  -10.24182 -10.23950 -10.23921  -1.18769  -1.13318
 Alpha  occ. eigenvalues --   -1.13298  -1.12526  -1.10756  -1.09813  -1.09257
 Alpha  occ. eigenvalues --   -1.05314  -1.05308  -1.04427  -1.00620  -0.99275
 Alpha  occ. eigenvalues --   -0.98594  -0.96784  -0.94768  -0.90268  -0.89667
 Alpha  occ. eigenvalues --   -0.87866  -0.86232  -0.85272  -0.83764  -0.82173
 Alpha  occ. eigenvalues --   -0.80192  -0.80099  -0.79542  -0.79137  -0.78291
 Alpha  occ. eigenvalues --   -0.75812  -0.75604  -0.73496  -0.73000  -0.72376
 Alpha  occ. eigenvalues --   -0.71804  -0.69838  -0.69276  -0.69007  -0.68405
 Alpha  occ. eigenvalues --   -0.66810  -0.65903  -0.65360  -0.65228  -0.64802
 Alpha  occ. eigenvalues --   -0.64184  -0.63334  -0.62973  -0.62508  -0.62099
 Alpha  occ. eigenvalues --   -0.60300  -0.59317  -0.59104  -0.58299  -0.57582
 Alpha  occ. eigenvalues --   -0.57505  -0.56641  -0.56137  -0.55292  -0.54988
 Alpha  occ. eigenvalues --   -0.54708  -0.54509  -0.54056  -0.53482  -0.53325
 Alpha  occ. eigenvalues --   -0.53093  -0.52946  -0.52305  -0.51666  -0.51407
 Alpha  occ. eigenvalues --   -0.51342  -0.50978  -0.50597  -0.50203  -0.50129
 Alpha  occ. eigenvalues --   -0.49465  -0.49131  -0.49024  -0.48867  -0.48362
 Alpha  occ. eigenvalues --   -0.48118  -0.47798  -0.47310  -0.47203  -0.46805
 Alpha  occ. eigenvalues --   -0.46311  -0.46135  -0.45877  -0.45506  -0.45383
 Alpha  occ. eigenvalues --   -0.44894  -0.44808  -0.44752  -0.44511  -0.43985
 Alpha  occ. eigenvalues --   -0.43765  -0.43295  -0.42777  -0.42073  -0.41471
 Alpha  occ. eigenvalues --   -0.41441  -0.41004  -0.40847  -0.39789  -0.39502
 Alpha  occ. eigenvalues --   -0.39260  -0.39017  -0.38570  -0.38299  -0.35215
 Alpha  occ. eigenvalues --   -0.34706  -0.34469  -0.33961  -0.33821  -0.33562
 Alpha  occ. eigenvalues --   -0.32921  -0.32337  -0.32116  -0.31367  -0.30820
 Alpha  occ. eigenvalues --   -0.28318  -0.26730
 Alpha virt. eigenvalues --   -0.11609  -0.11070  -0.07423  -0.06529  -0.06201
 Alpha virt. eigenvalues --   -0.04963  -0.04033  -0.03645  -0.03255  -0.02731
 Alpha virt. eigenvalues --   -0.01848  -0.00999  -0.00666  -0.00437   0.00050

 Mulliken charges:
               1
     1  N   -0.761187
     2  H    0.413903
     3  H    0.434349
     4  H    0.410494
     5  C   -0.113844
     6  H    0.216276
     7  C    0.657259
     8  C   -0.296944
     9  H    0.170634
    10  H    0.199445
    11  O   -0.553234
    12  C   -0.095807
    13  H    0.111142
    14  C   -0.448192
    15  H    0.167736
    16  H    0.157019
    17  H    0.173814
    18  C   -0.455090
    19  H    0.171260
    20  H    0.132603
    21  H    0.181898
    22  N   -0.610679
    23  H    0.376619
    24  C   -0.062528
    25  H    0.186836
    26  C    0.646575
    27  C   -0.347126
    28  H    0.176548
    29  H    0.163653
    30  O   -0.546300
    31  C    0.030786
    32  C   -0.004972
    33  H    0.156515
    34  C    0.089407
    35  C    0.333412
    36  C   -0.210292
    37  H    0.123799
    38  N   -0.682246
    39  H    0.339105
    40  C   -0.154187
    41  H    0.138327
    42  C   -0.156655
    43  H    0.137330
    44  C   -0.138666
    45  H    0.131822
    46  N   -0.608545
    47  H    0.370337
    48  C   -0.074095
    49  H    0.192284
    50  C    0.624896
    51  C   -0.018942
    52  H    0.141417
    53  H    0.138465
    54  O   -0.543139
    55  O   -0.612467
    56  H    0.401565
    57  N   -0.614033
    58  H    0.357563
    59  C   -0.043337
    60  H    0.179162
    61  C    0.619747
    62  C   -0.457294
    63  H    0.158728
    64  H    0.159581
    65  H    0.197348
    66  O   -0.553761
    67  N   -0.617407
    68  H    0.358361
    69  C   -0.069079
    70  H    0.170722
    71  C    0.602272
    72  C   -0.264513
    73  H    0.163405
    74  H    0.155225
    75  O   -0.609751
    76  C   -0.285099
    77  H    0.152318
    78  H    0.154976
    79  C   -0.271181
    80  H    0.143468
    81  H    0.151439
    82  C   -0.152426
    83  H    0.175494
    84  H    0.147192
    85  N   -0.776556
    86  H    0.334401
    87  H    0.332444
    88  H    0.477789
    89  O   -0.479592
 Sum of Mulliken charges =   1.00000

 Dipole moment (field-independent basis, Debye):
    X=            -11.3973    Y=              6.2946    Z=             13.0006  Tot=             18.3994
 Quadrupole moment (field-independent basis, Debye-Ang):
   XX=            -40.5239   YY=           -204.9691   ZZ=           -202.6909
   XY=            -71.9142   XZ=            -51.3950   YZ=             24.0040

 Normal termination of Gaussian 16 at Tue Jun 28 01:16:21 2022.
