 Gaussian 16, Revision C.01,
 Gaussian 16:  ES64L-G16RevC.01  3-Jul-2019

 -------------------------------------------------------------------
 # B3LYP/6-31G* guess=read geom=check nosymm integral(ultrafinegrid)
 -------------------------------------------------------------------

 ------------------------------------------------------
 Candidate Structure: Conf:474 Charge calc in gas phase
 ------------------------------------------------------
 Structure from the checkpoint file:  "conf-474.chk"
 Charge =  1 Multiplicity = 1

                          Input orientation:
 ---------------------------------------------------------------------
 Center     Atomic      Atomic             Coordinates (Angstroms)
 Number     Number       Type             X           Y           Z
 ---------------------------------------------------------------------
      1          7           0       -5.908807    2.991798    1.586780
      2          1           0       -6.359090    3.347353    0.738653
      3          1           0       -5.904397    1.923150    1.553568
      4          1           0       -6.419552    3.341495    2.402033
      5          6           0       -4.418781    3.286186    1.645357
      6          1           0       -4.202637    4.082131    0.930674
      7          6           0       -3.812262    1.926046    1.195396
      8          6           0       -4.039448    3.697382    3.081520
      9          1           0       -4.702057    4.525070    3.376729
     10          1           0       -4.257161    2.851972    3.748406
     11          8           0       -4.563672    0.933870    1.234137
     12          6           0       -2.579099    4.159060    3.296539
     13          1           0       -1.905040    3.338411    3.021818
     14          6           0       -2.220421    5.387356    2.445580
     15          1           0       -2.883844    6.232621    2.669553
     16          1           0       -2.271117    5.194950    1.366445
     17          1           0       -1.195044    5.704952    2.656704
     18          6           0       -2.367600    4.450368    4.790775
     19          1           0       -3.006382    5.275677    5.129481
     20          1           0       -2.590092    3.573243    5.408941
     21          1           0       -1.328167    4.736036    4.979089
     22          7           0       -2.546974    1.928604    0.811683
     23          1           0       -1.943279    2.750913    0.909358
     24          6           0       -1.765996    0.729733    0.497503
     25          1           0       -1.992025   -0.035403    1.247508
     26          6           0       -0.300151    1.200453    0.658727
     27          6           0       -2.090869    0.169658   -0.916373
     28          1           0       -3.170846    0.288591   -1.064870
     29          1           0       -1.590794    0.793682   -1.663778
     30          8           0       -0.070886    2.363503    1.012523
     31          6           0       -1.701528   -1.274229   -1.100774
     32          6           0       -2.155422   -2.341908   -0.356196
     33          1           0       -2.828077   -2.359932    0.491307
     34          6           0       -0.861230   -1.829326   -2.138590
     35          6           0       -0.853700   -3.239257   -1.959169
     36          6           0       -0.123759   -1.276673   -3.202280
     37          1           0       -0.081840   -0.202343   -3.349698
     38          7           0       -1.649327   -3.516375   -0.865480
     39          1           0       -1.815834   -4.434640   -0.483054
     40          6           0        0.565264   -3.527644   -3.847789
     41          1           0        1.123547   -4.166941   -4.525859
     42          6           0       -0.144263   -4.101622   -2.801970
     43          1           0       -0.150236   -5.176926   -2.646303
     44          6           0        0.575282   -2.130170   -4.044111
     45          1           0        1.142978   -1.715732   -4.872217
     46          7           0        0.654858    0.286335    0.422806
     47          1           0        0.404504   -0.580110   -0.049580
     48          6           0        2.044001    0.682279    0.278601
     49          1           0        2.284740    1.404668    1.065944
     50          6           0        2.244588    1.352002   -1.104799
     51          6           0        2.919580   -0.583067    0.427174
     52          1           0        2.718064   -1.022891    1.409862
     53          1           0        3.984946   -0.313094    0.400996
     54          8           0        1.336266    1.459667   -1.916918
     55          8           0        2.594141   -1.547468   -0.543208
     56          1           0        3.057076   -1.298031   -1.369844
     57          7           0        3.515059    1.806882   -1.339313
     58          1           0        4.225678    1.507093   -0.682711
     59          6           0        3.989977    1.970343   -2.704108
     60          1           0        3.138720    2.339481   -3.284047
     61          6           0        4.384814    0.577211   -3.270698
     62          6           0        5.140121    2.985884   -2.751962
     63          1           0        5.471297    3.177269   -3.776746
     64          1           0        6.008346    2.628546   -2.185688
     65          1           0        4.812377    3.935186   -2.319099
     66          8           0        4.264691   -0.454172   -2.600779
     67          7           0        4.871110    0.574705   -4.526141
     68          1           0        4.982152    1.432868   -5.055676
     69          6           0        5.368099   -0.616859   -5.201497
     70          1           0        5.847831   -1.266397   -4.466245
     71          6           0        6.388933   -0.173354   -6.240018
     72          6           0        4.215777   -1.403236   -5.907366
     73          1           0        3.674032   -1.930818   -5.115724
     74          1           0        3.521422   -0.663737   -6.326253
     75          8           0        7.259548   -1.132632   -6.515640
     76          6           0        4.650717   -2.387396   -7.018431
     77          1           0        5.596917   -2.858496   -6.735772
     78          1           0        3.911411   -3.195091   -7.070276
     79          6           0        4.768698   -1.737033   -8.427727
     80          1           0        4.844297   -0.646122   -8.339351
     81          1           0        3.833624   -1.917400   -8.971023
     82          6           0        5.935834   -2.226081   -9.310699
     83          1           0        6.197965   -3.259809   -9.059911
     84          1           0        5.628271   -2.221258  -10.365460
     85          7           0        7.159832   -1.400498   -9.125832
     86          1           0        7.939402   -1.806030   -9.642624
     87          1           0        7.006946   -0.469752   -9.515299
     88          1           0        7.462543   -1.128320   -7.528096
     89          8           0        6.310601    0.907236   -6.805622
 ---------------------------------------------------------------------

 SCF Done:  E(RB3LYP) =  -2042.50002983     A.U. after    1 cycles

 Alpha  occ. eigenvalues --  -19.26242 -19.21544 -19.20924 -19.19482 -19.18884
 Alpha  occ. eigenvalues --  -19.18860 -19.18689 -14.59511 -14.48428 -14.44420
 Alpha  occ. eigenvalues --  -14.43774 -14.42761 -14.42663 -14.40981 -10.42829
 Alpha  occ. eigenvalues --  -10.40180 -10.37749 -10.36526 -10.35737 -10.35712
 Alpha  occ. eigenvalues --  -10.33425 -10.33071 -10.30507 -10.30472 -10.30328
 Alpha  occ. eigenvalues --  -10.30267 -10.29153 -10.28643 -10.28073 -10.27778
 Alpha  occ. eigenvalues --  -10.27752 -10.27682 -10.27099 -10.25612 -10.25191
 Alpha  occ. eigenvalues --  -10.24810 -10.24451 -10.24370 -10.24336 -10.24059
 Alpha  occ. eigenvalues --  -10.23869 -10.23782 -10.23374  -1.18627  -1.13863
 Alpha  occ. eigenvalues --   -1.13380  -1.12748  -1.11036  -1.09990  -1.07348
 Alpha  occ. eigenvalues --   -1.05477  -1.05134  -1.04239  -1.00485  -0.99504
 Alpha  occ. eigenvalues --   -0.99075  -0.96370  -0.94227  -0.89678  -0.89077
 Alpha  occ. eigenvalues --   -0.87389  -0.86281  -0.84889  -0.83777  -0.81719
 Alpha  occ. eigenvalues --   -0.80354  -0.79773  -0.79092  -0.78336  -0.77809
 Alpha  occ. eigenvalues --   -0.75670  -0.75432  -0.73351  -0.72657  -0.72574
 Alpha  occ. eigenvalues --   -0.71293  -0.69976  -0.68674  -0.68045  -0.67994
 Alpha  occ. eigenvalues --   -0.66987  -0.66087  -0.65265  -0.65100  -0.64979
 Alpha  occ. eigenvalues --   -0.64626  -0.63262  -0.62888  -0.62428  -0.61036
 Alpha  occ. eigenvalues --   -0.59899  -0.59317  -0.58551  -0.57466  -0.57370
 Alpha  occ. eigenvalues --   -0.56850  -0.56127  -0.55902  -0.55308  -0.54461
 Alpha  occ. eigenvalues --   -0.54424  -0.54286  -0.54069  -0.53557  -0.53149
 Alpha  occ. eigenvalues --   -0.52844  -0.52538  -0.52200  -0.51715  -0.51491
 Alpha  occ. eigenvalues --   -0.51152  -0.50658  -0.49972  -0.49722  -0.49393
 Alpha  occ. eigenvalues --   -0.49008  -0.48833  -0.48718  -0.48617  -0.48350
 Alpha  occ. eigenvalues --   -0.48008  -0.47708  -0.47411  -0.47154  -0.46962
 Alpha  occ. eigenvalues --   -0.46860  -0.46509  -0.46104  -0.45390  -0.45304
 Alpha  occ. eigenvalues --   -0.44648  -0.44372  -0.44351  -0.43900  -0.43739
 Alpha  occ. eigenvalues --   -0.43564  -0.43145  -0.42399  -0.42195  -0.41584
 Alpha  occ. eigenvalues --   -0.41016  -0.40732  -0.39576  -0.39337  -0.39073
 Alpha  occ. eigenvalues --   -0.38997  -0.38746  -0.38599  -0.38186  -0.35532
 Alpha  occ. eigenvalues --   -0.35224  -0.34564  -0.33746  -0.33370  -0.33329
 Alpha  occ. eigenvalues --   -0.32929  -0.32595  -0.32275  -0.31528  -0.31295
 Alpha  occ. eigenvalues --   -0.27993  -0.26293
 Alpha virt. eigenvalues --   -0.11760  -0.10676  -0.07300  -0.06197  -0.06081
 Alpha virt. eigenvalues --   -0.05139  -0.04949  -0.04291  -0.04021  -0.02881
 Alpha virt. eigenvalues --   -0.01406  -0.00873  -0.00024   0.00461   0.00800

 Mulliken charges:
               1
     1  N   -0.758278
     2  H    0.414894
     3  H    0.432564
     4  H    0.410532
     5  C   -0.114862
     6  H    0.213873
     7  C    0.649912
     8  C   -0.286680
     9  H    0.158802
    10  H    0.173372
    11  O   -0.551757
    12  C   -0.104776
    13  H    0.166119
    14  C   -0.460313
    15  H    0.152795
    16  H    0.141090
    17  H    0.187479
    18  C   -0.451837
    19  H    0.153710
    20  H    0.156621
    21  H    0.175640
    22  N   -0.613751
    23  H    0.389660
    24  C   -0.067140
    25  H    0.195404
    26  C    0.635757
    27  C   -0.350689
    28  H    0.170451
    29  H    0.190313
    30  O   -0.556224
    31  C    0.006073
    32  C    0.006350
    33  H    0.155425
    34  C    0.068999
    35  C    0.322535
    36  C   -0.201769
    37  H    0.156386
    38  N   -0.683891
    39  H    0.336834
    40  C   -0.147828
    41  H    0.130076
    42  C   -0.155262
    43  H    0.133011
    44  C   -0.145586
    45  H    0.126954
    46  N   -0.597197
    47  H    0.380828
    48  C   -0.090906
    49  H    0.185532
    50  C    0.625972
    51  C   -0.059170
    52  H    0.162402
    53  H    0.135981
    54  O   -0.520153
    55  O   -0.640955
    56  H    0.450706
    57  N   -0.574020
    58  H    0.329935
    59  C   -0.082482
    60  H    0.201611
    61  C    0.636923
    62  C   -0.463213
    63  H    0.167841
    64  H    0.161484
    65  H    0.178264
    66  O   -0.559531
    67  N   -0.611389
    68  H    0.353279
    69  C   -0.009950
    70  H    0.191117
    71  C    0.576088
    72  C   -0.287730
    73  H    0.174409
    74  H    0.147594
    75  O   -0.600334
    76  C   -0.283376
    77  H    0.171032
    78  H    0.144259
    79  C   -0.290808
    80  H    0.161330
    81  H    0.150893
    82  C   -0.143638
    83  H    0.165087
    84  H    0.149377
    85  N   -0.776266
    86  H    0.334591
    87  H    0.339809
    88  H    0.458211
    89  O   -0.504424
 Sum of Mulliken charges =   1.00000

 Dipole moment (field-independent basis, Debye):
    X=            -11.6427    Y=              9.2836    Z=             -1.5262  Tot=             14.9689
 Quadrupole moment (field-independent basis, Debye-Ang):
   XX=            -96.7868   YY=           -185.0991   ZZ=           -137.5064
   XY=            -66.7198   XZ=            -95.0271   YZ=             44.6823

 Normal termination of Gaussian 16 at Tue Jun 28 00:56:32 2022.
