 Gaussian 16, Revision C.01,
 Gaussian 16:  ES64L-G16RevC.01  3-Jul-2019

 -------------------------------------------------------------------
 # B3LYP/6-31G* guess=read geom=check nosymm integral(ultrafinegrid)
 -------------------------------------------------------------------

 ------------------------------------------------------
 Candidate Structure: Conf:112 Charge calc in gas phase
 ------------------------------------------------------
 Structure from the checkpoint file:  "conf-112.chk"
 Charge =  1 Multiplicity = 1

                          Input orientation:
 ---------------------------------------------------------------------
 Center     Atomic      Atomic             Coordinates (Angstroms)
 Number     Number       Type             X           Y           Z
 ---------------------------------------------------------------------
      1          7           0       -5.365670   -0.789269    2.945749
      2          1           0       -5.924434    0.067855    2.976909
      3          1           0       -5.384381   -1.181458    1.951962
      4          1           0       -5.754276   -1.453440    3.621088
      5          6           0       -3.880159   -0.546985    3.142332
      6          1           0       -3.750168    0.481691    3.483800
      7          6           0       -3.323097   -0.726775    1.700656
      8          6           0       -3.285112   -1.550736    4.141489
      9          1           0       -3.446551   -2.564897    3.749272
     10          1           0       -2.198590   -1.398623    4.142632
     11          8           0       -4.093275   -1.202364    0.847987
     12          6           0       -3.804708   -1.452138    5.593690
     13          1           0       -4.900069   -1.594465    5.592231
     14          6           0       -3.205905   -2.598074    6.424643
     15          1           0       -2.114351   -2.509874    6.480389
     16          1           0       -3.444132   -3.577526    5.994904
     17          1           0       -3.594300   -2.576508    7.447448
     18          6           0       -3.503668   -0.089587    6.235562
     19          1           0       -2.423941    0.101921    6.256791
     20          1           0       -3.982945    0.747458    5.712765
     21          1           0       -3.862939   -0.066843    7.268995
     22          7           0       -2.066855   -0.357909    1.500570
     23          1           0       -1.439230   -0.122050    2.273932
     24          6           0       -1.334641   -0.533881    0.242865
     25          1           0       -1.504418   -1.556262   -0.113614
     26          6           0        0.153773   -0.425364    0.660906
     27          6           0       -1.823409    0.453383   -0.858022
     28          1           0       -2.919203    0.398985   -0.846750
     29          1           0       -1.551290    1.474296   -0.564969
     30          8           0        0.451725   -0.360042    1.859244
     31          6           0       -1.298993    0.152773   -2.234527
     32          6           0       -0.574297    1.015730   -3.038348
     33          1           0       -0.224840    2.014849   -2.819590
     34          6           0       -1.457005   -1.059694   -3.000850
     35          6           0       -0.787203   -0.842938   -4.244723
     36          6           0       -2.086512   -2.302011   -2.777119
     37          1           0       -2.657272   -2.480901   -1.868032
     38          7           0       -0.275041    0.435223   -4.235556
     39          1           0        0.406461    0.821389   -4.920116
     40          6           0       -1.339842   -3.049413   -4.980901
     41          1           0       -1.337037   -3.820935   -5.746908
     42          6           0       -0.722955   -1.825799   -5.243655
     43          1           0       -0.213627   -1.613246   -6.181571
     44          6           0       -2.018340   -3.284664   -3.761072
     45          1           0       -2.528567   -4.232984   -3.609947
     46          7           0        1.043283   -0.470388   -0.345911
     47          1           0        0.715091   -0.259583   -1.289939
     48          6           0        2.480596   -0.362218   -0.148339
     49          1           0        2.671813    0.052473    0.847965
     50          6           0        3.010464    0.563695   -1.262826
     51          6           0        3.151736   -1.754999   -0.242286
     52          1           0        2.635454   -2.433467    0.443422
     53          1           0        4.199292   -1.695619    0.080332
     54          8           0        2.248730    0.984180   -2.126177
     55          8           0        3.078826   -2.318031   -1.547444
     56          1           0        3.820804   -1.953056   -2.109581
     57          7           0        4.349545    0.805377   -1.302554
     58          1           0        4.947302    0.289219   -0.668889
     59          6           0        4.942517    1.113753   -2.617831
     60          1           0        4.446789    2.008175   -3.000759
     61          6           0        4.656520   -0.103754   -3.530612
     62          6           0        6.444203    1.352269   -2.472876
     63          1           0        6.875183    1.627233   -3.439946
     64          1           0        6.945684    0.441550   -2.127690
     65          1           0        6.639468    2.164029   -1.765108
     66          8           0        4.984546   -1.236693   -3.101139
     67          7           0        4.054889    0.156716   -4.684207
     68          1           0        3.583529    1.066314   -4.795887
     69          6           0        3.472859   -0.757477   -5.677569
     70          1           0        4.197933   -0.946279   -6.478288
     71          6           0        2.220540    0.016204   -6.285907
     72          6           0        2.916543   -2.085359   -5.134762
     73          1           0        2.445419   -1.842597   -4.175944
     74          1           0        2.118293   -2.332194   -5.842461
     75          8           0        1.568602   -0.606350   -7.137273
     76          6           0        3.825771   -3.317587   -5.027089
     77          1           0        4.389187   -3.414460   -5.963900
     78          1           0        4.564763   -3.201947   -4.230078
     79          6           0        3.017852   -4.619772   -4.854763
     80          1           0        3.680889   -5.483000   -4.996719
     81          1           0        2.258401   -4.690027   -5.645956
     82          6           0        2.343567   -4.867185   -3.502159
     83          1           0        1.800375   -5.815241   -3.520449
     84          1           0        3.069175   -4.892630   -2.685712
     85          7           0        1.336489   -3.796447   -3.101714
     86          1           0        0.587021   -4.178199   -2.517685
     87          1           0        1.828313   -3.057603   -2.542519
     88          1           0        0.857450   -3.365559   -3.910422
     89          8           0        1.975581    1.144534   -5.754428
 ---------------------------------------------------------------------

 SCF Done:  E(RB3LYP) =  -2042.47911600     A.U. after    2 cycles

 Alpha  occ. eigenvalues --  -19.27561 -19.24999 -19.22754 -19.20861 -19.18515
 Alpha  occ. eigenvalues --  -19.12630 -19.11468 -14.60455 -14.53885 -14.49830
 Alpha  occ. eigenvalues --  -14.45626 -14.44511 -14.42538 -14.41448 -10.44107
 Alpha  occ. eigenvalues --  -10.41290 -10.39679 -10.37809 -10.35393 -10.34906
 Alpha  occ. eigenvalues --  -10.34538 -10.34256 -10.34042 -10.33071 -10.32974
 Alpha  occ. eigenvalues --  -10.30687 -10.30250 -10.29635 -10.29089 -10.28893
 Alpha  occ. eigenvalues --  -10.28519 -10.28336 -10.28029 -10.26799 -10.26419
 Alpha  occ. eigenvalues --  -10.25915 -10.25892 -10.25710 -10.25491 -10.25357
 Alpha  occ. eigenvalues --  -10.25233 -10.24827 -10.24219  -1.19855  -1.14793
 Alpha  occ. eigenvalues --   -1.14189  -1.13260  -1.11753  -1.09488  -1.08569
 Alpha  occ. eigenvalues --   -1.06515  -1.05587  -1.03685  -1.02482  -1.00788
 Alpha  occ. eigenvalues --   -0.98286  -0.96384  -0.95761  -0.91205  -0.90706
 Alpha  occ. eigenvalues --   -0.88771  -0.88443  -0.86507  -0.84532  -0.83608
 Alpha  occ. eigenvalues --   -0.82449  -0.81111  -0.80380  -0.79963  -0.79340
 Alpha  occ. eigenvalues --   -0.77436  -0.76142  -0.75462  -0.74373  -0.73396
 Alpha  occ. eigenvalues --   -0.72738  -0.71420  -0.70280  -0.69936  -0.68789
 Alpha  occ. eigenvalues --   -0.68653  -0.67961  -0.67655  -0.66944  -0.66190
 Alpha  occ. eigenvalues --   -0.65753  -0.65094  -0.63948  -0.63314  -0.62743
 Alpha  occ. eigenvalues --   -0.62105  -0.60509  -0.60192  -0.60020  -0.59078
 Alpha  occ. eigenvalues --   -0.58983  -0.58543  -0.57680  -0.57599  -0.56539
 Alpha  occ. eigenvalues --   -0.56094  -0.55579  -0.55318  -0.54947  -0.54707
 Alpha  occ. eigenvalues --   -0.54218  -0.53845  -0.53675  -0.53234  -0.52919
 Alpha  occ. eigenvalues --   -0.52499  -0.52282  -0.52041  -0.51189  -0.50915
 Alpha  occ. eigenvalues --   -0.50670  -0.50367  -0.49987  -0.49675  -0.49430
 Alpha  occ. eigenvalues --   -0.49211  -0.48753  -0.48639  -0.47706  -0.47433
 Alpha  occ. eigenvalues --   -0.47123  -0.46899  -0.46453  -0.46246  -0.46077
 Alpha  occ. eigenvalues --   -0.45748  -0.45678  -0.45624  -0.45410  -0.45071
 Alpha  occ. eigenvalues --   -0.44789  -0.44137  -0.43613  -0.42810  -0.42509
 Alpha  occ. eigenvalues --   -0.42317  -0.41830  -0.41153  -0.40707  -0.40339
 Alpha  occ. eigenvalues --   -0.40146  -0.39781  -0.39448  -0.38936  -0.38247
 Alpha  occ. eigenvalues --   -0.36966  -0.35784  -0.35060  -0.34663  -0.34295
 Alpha  occ. eigenvalues --   -0.32632  -0.31530  -0.29402  -0.28113  -0.27373
 Alpha  occ. eigenvalues --   -0.27031  -0.25639
 Alpha virt. eigenvalues --   -0.12791  -0.11956  -0.08644  -0.08113  -0.07528
 Alpha virt. eigenvalues --   -0.07273  -0.05778  -0.05304  -0.04716  -0.04650
 Alpha virt. eigenvalues --   -0.02891  -0.01897  -0.01591  -0.01403  -0.01044

 Mulliken charges:
               1
     1  N   -0.759018
     2  H    0.417152
     3  H    0.434698
     4  H    0.412175
     5  C   -0.114676
     6  H    0.218056
     7  C    0.652484
     8  C   -0.297760
     9  H    0.170783
    10  H    0.195412
    11  O   -0.545443
    12  C   -0.097477
    13  H    0.113616
    14  C   -0.448341
    15  H    0.166755
    16  H    0.157455
    17  H    0.176770
    18  C   -0.455373
    19  H    0.169975
    20  H    0.134346
    21  H    0.184772
    22  N   -0.612786
    23  H    0.374621
    24  C   -0.059442
    25  H    0.194063
    26  C    0.599249
    27  C   -0.347375
    28  H    0.181169
    29  H    0.160957
    30  O   -0.548424
    31  C   -0.029729
    32  C    0.046017
    33  H    0.173121
    34  C    0.088263
    35  C    0.273115
    36  C   -0.245863
    37  H    0.129065
    38  N   -0.674226
    39  H    0.411365
    40  C   -0.216926
    41  H    0.143692
    42  C   -0.193509
    43  H    0.227530
    44  C   -0.167469
    45  H    0.127828
    46  N   -0.618364
    47  H    0.397132
    48  C   -0.083369
    49  H    0.199273
    50  C    0.603374
    51  C   -0.050032
    52  H    0.164958
    53  H    0.153432
    54  O   -0.504822
    55  O   -0.698380
    56  H    0.480941
    57  N   -0.588215
    58  H    0.333052
    59  C   -0.037088
    60  H    0.187200
    61  C    0.619466
    62  C   -0.480380
    63  H    0.183896
    64  H    0.169006
    65  H    0.171256
    66  O   -0.616132
    67  N   -0.587280
    68  H    0.376129
    69  C   -0.035924
    70  H    0.166648
    71  C    0.579728
    72  C   -0.305391
    73  H    0.098927
    74  H    0.180125
    75  O   -0.553883
    76  C   -0.273979
    77  H    0.159653
    78  H    0.176019
    79  C   -0.297182
    80  H    0.174749
    81  H    0.164413
    82  C   -0.182775
    83  H    0.189921
    84  H    0.204086
    85  N   -0.782340
    86  H    0.387547
    87  H    0.449055
    88  H    0.417445
    89  O   -0.612567
 Sum of Mulliken charges =   1.00000

 Dipole moment (field-independent basis, Debye):
    X=            -11.3812    Y=            -11.4741    Z=             17.2466  Tot=             23.6354
 Quadrupole moment (field-independent basis, Debye-Ang):
   XX=           -133.7644   YY=           -199.0931   ZZ=           -246.6395
   XY=              1.6530   XZ=            -73.7240   YZ=             20.6353

 Normal termination of Gaussian 16 at Tue Jun 28 00:57:01 2022.
