 Gaussian 16, Revision C.01,
 Gaussian 16:  ES64L-G16RevC.01  3-Jul-2019

 -------------------------------------------------------------------
 # B3LYP/6-31G* guess=read geom=check nosymm integral(ultrafinegrid)
 -------------------------------------------------------------------

 ------------------------------------------------------
 Candidate Structure: Conf:231 Charge calc in gas phase
 ------------------------------------------------------
 Structure from the checkpoint file:  "conf-231.chk"
 Charge =  1 Multiplicity = 1

                          Input orientation:
 ---------------------------------------------------------------------
 Center     Atomic      Atomic             Coordinates (Angstroms)
 Number     Number       Type             X           Y           Z
 ---------------------------------------------------------------------
      1          7           0       -4.430103    2.716154    3.406887
      2          1           0       -4.249348    3.715966    3.279074
      3          1           0       -5.015208    2.363975    2.585651
      4          1           0       -4.914789    2.580881    4.298364
      5          6           0       -3.183656    1.856670    3.270522
      6          1           0       -2.312730    2.506323    3.373681
      7          6           0       -3.330016    1.314871    1.819726
      8          6           0       -3.201898    0.760304    4.354098
      9          1           0       -3.343510    1.256120    5.326381
     10          1           0       -4.079961    0.123105    4.182067
     11          8           0       -4.455509    1.407905    1.295571
     12          6           0       -1.936560   -0.123468    4.453089
     13          1           0       -1.789833   -0.637683    3.495302
     14          6           0       -0.672869    0.693116    4.765702
     15          1           0       -0.780114    1.244496    5.708656
     16          1           0       -0.419503    1.415563    3.979417
     17          1           0        0.189789    0.027875    4.866612
     18          6           0       -2.168679   -1.200939    5.524324
     19          1           0       -2.311771   -0.752106    6.515248
     20          1           0       -3.049382   -1.812390    5.297913
     21          1           0       -1.304810   -1.869990    5.584106
     22          7           0       -2.251965    0.790836    1.260985
     23          1           0       -1.370515    0.666953    1.767977
     24          6           0       -2.225553    0.108109   -0.033328
     25          1           0       -3.118555   -0.518820   -0.120259
     26          6           0       -0.952901   -0.764504    0.039800
     27          6           0       -2.188157    1.113758   -1.226516
     28          1           0       -2.866569    1.935230   -0.967021
     29          1           0       -1.179571    1.534092   -1.301387
     30          8           0       -0.185559   -0.654601    1.003744
     31          6           0       -2.610686    0.519335   -2.538255
     32          6           0       -1.799139    0.226309   -3.613219
     33          1           0       -0.724057    0.315979   -3.698014
     34          6           0       -3.961913    0.199373   -2.939049
     35          6           0       -3.895312   -0.283277   -4.273953
     36          6           0       -5.215626    0.283091   -2.306010
     37          1           0       -5.297538    0.653594   -1.286984
     38          7           0       -2.565087   -0.259992   -4.650699
     39          1           0       -2.212628   -0.504781   -5.563511
     40          6           0       -6.257352   -0.590161   -4.330684
     41          1           0       -7.161584   -0.890005   -4.852322
     42          6           0       -5.033346   -0.681743   -4.982567
     43          1           0       -4.966026   -1.046296   -6.003989
     44          6           0       -6.347793   -0.112447   -3.006946
     45          1           0       -7.322791   -0.052503   -2.531535
     46          7           0       -0.757534   -1.605478   -0.988644
     47          1           0       -1.353969   -1.494239   -1.802776
     48          6           0        0.505568   -2.300838   -1.167892
     49          1           0        0.826459   -2.661529   -0.186699
     50          6           0        1.568001   -1.331939   -1.748708
     51          6           0        0.318749   -3.501617   -2.100899
     52          1           0        1.295037   -3.989317   -2.236987
     53          1           0       -0.011603   -3.141926   -3.090121
     54          8           0        1.242712   -0.335570   -2.394635
     55          8           0       -0.632415   -4.366676   -1.509061
     56          1           0       -0.736214   -5.141034   -2.083162
     57          7           0        2.845864   -1.694849   -1.521515
     58          1           0        3.092994   -2.529512   -0.995407
     59          6           0        3.991859   -0.982725   -2.066211
     60          1           0        3.784356   -0.740634   -3.115340
     61          6           0        5.177243   -1.964475   -1.982440
     62          6           0        4.280671    0.322388   -1.301874
     63          1           0        5.130850    0.855126   -1.740345
     64          1           0        4.507731    0.108772   -0.252290
     65          1           0        3.402106    0.970291   -1.351975
     66          8           0        5.106687   -2.985734   -1.291695
     67          7           0        6.270206   -1.612993   -2.685211
     68          1           0        6.320613   -0.747969   -3.215437
     69          6           0        7.519809   -2.360744   -2.645490
     70          1           0        7.657347   -2.736990   -1.627281
     71          6           0        8.631163   -1.356072   -3.004841
     72          6           0        7.478826   -3.551149   -3.638918
     73          1           0        6.553311   -4.100061   -3.428917
     74          1           0        7.385085   -3.135539   -4.649826
     75          8           0        9.863868   -1.659476   -2.624882
     76          6           0        8.669743   -4.521681   -3.587709
     77          1           0        8.571392   -5.198953   -4.443586
     78          1           0        9.601898   -3.970088   -3.757221
     79          6           0        8.775314   -5.361688   -2.286647
     80          1           0        8.704975   -6.429014   -2.526937
     81          1           0        7.922159   -5.154729   -1.624391
     82          6           0       10.075978   -5.153595   -1.506182
     83          1           0       10.168748   -5.917472   -0.720904
     84          1           0       10.933334   -5.275284   -2.177612
     85          7           0       10.153106   -3.785996   -0.938728
     86          1           0       11.080719   -3.623033   -0.546339
     87          1           0        9.907156   -2.477768   -2.024554
     88          1           0        9.503203   -3.706865   -0.155621
     89          8           0        8.370362   -0.351818   -3.640498
 ---------------------------------------------------------------------

 SCF Done:  E(RB3LYP) =  -2042.50254790     A.U. after    1 cycles

 Alpha  occ. eigenvalues --  -19.26544 -19.22364 -19.21964 -19.21417 -19.18897
 Alpha  occ. eigenvalues --  -19.18522 -19.17734 -14.59716 -14.48803 -14.44761
 Alpha  occ. eigenvalues --  -14.44657 -14.42923 -14.42321 -14.41591 -10.43128
 Alpha  occ. eigenvalues --  -10.40418 -10.38199 -10.36251 -10.36100 -10.35549
 Alpha  occ. eigenvalues --  -10.33657 -10.33249 -10.32074 -10.31351 -10.30720
 Alpha  occ. eigenvalues --  -10.30390 -10.29522 -10.28663 -10.28362 -10.28355
 Alpha  occ. eigenvalues --  -10.28246 -10.27985 -10.27240 -10.25507 -10.25106
 Alpha  occ. eigenvalues --  -10.24988 -10.24822 -10.24811 -10.24795 -10.24665
 Alpha  occ. eigenvalues --  -10.24544 -10.24328 -10.24222  -1.18881  -1.13673
 Alpha  occ. eigenvalues --   -1.13564  -1.13129  -1.10918  -1.10102  -1.09771
 Alpha  occ. eigenvalues --   -1.05537  -1.05484  -1.04601  -1.01356  -0.99496
 Alpha  occ. eigenvalues --   -0.98891  -0.97081  -0.94436  -0.90320  -0.89526
 Alpha  occ. eigenvalues --   -0.87721  -0.86554  -0.85626  -0.84042  -0.82572
 Alpha  occ. eigenvalues --   -0.80539  -0.80112  -0.79739  -0.78758  -0.78243
 Alpha  occ. eigenvalues --   -0.75804  -0.75709  -0.73565  -0.73334  -0.72770
 Alpha  occ. eigenvalues --   -0.71975  -0.70131  -0.68917  -0.68499  -0.67892
 Alpha  occ. eigenvalues --   -0.67125  -0.66318  -0.65736  -0.65403  -0.65101
 Alpha  occ. eigenvalues --   -0.64743  -0.63412  -0.63300  -0.62896  -0.62671
 Alpha  occ. eigenvalues --   -0.60292  -0.59989  -0.59769  -0.58842  -0.57555
 Alpha  occ. eigenvalues --   -0.57366  -0.56422  -0.56178  -0.55570  -0.55017
 Alpha  occ. eigenvalues --   -0.54776  -0.54463  -0.54291  -0.53970  -0.53803
 Alpha  occ. eigenvalues --   -0.53494  -0.53310  -0.52217  -0.51792  -0.51702
 Alpha  occ. eigenvalues --   -0.51335  -0.51026  -0.50633  -0.49917  -0.49867
 Alpha  occ. eigenvalues --   -0.49436  -0.49274  -0.49039  -0.48868  -0.48760
 Alpha  occ. eigenvalues --   -0.48428  -0.47821  -0.47616  -0.47381  -0.47207
 Alpha  occ. eigenvalues --   -0.46797  -0.46508  -0.46067  -0.45757  -0.45440
 Alpha  occ. eigenvalues --   -0.44530  -0.44447  -0.44214  -0.43972  -0.43808
 Alpha  occ. eigenvalues --   -0.43722  -0.43452  -0.43034  -0.42157  -0.41620
 Alpha  occ. eigenvalues --   -0.41586  -0.41231  -0.41002  -0.39982  -0.39727
 Alpha  occ. eigenvalues --   -0.39643  -0.39561  -0.38814  -0.38745  -0.36000
 Alpha  occ. eigenvalues --   -0.35129  -0.34919  -0.34758  -0.33948  -0.33810
 Alpha  occ. eigenvalues --   -0.33107  -0.32749  -0.32397  -0.31674  -0.31064
 Alpha  occ. eigenvalues --   -0.28675  -0.27056
 Alpha virt. eigenvalues --   -0.11967  -0.10855  -0.07581  -0.06891  -0.06278
 Alpha virt. eigenvalues --   -0.05376  -0.04576  -0.04237  -0.03740  -0.03038
 Alpha virt. eigenvalues --   -0.01675  -0.01184  -0.00395  -0.00316   0.00170

 Mulliken charges:
               1
     1  N   -0.758139
     2  H    0.415517
     3  H    0.433837
     4  H    0.411406
     5  C   -0.116124
     6  H    0.213620
     7  C    0.652871
     8  C   -0.287144
     9  H    0.159191
    10  H    0.175641
    11  O   -0.545744
    12  C   -0.103843
    13  H    0.164909
    14  C   -0.460493
    15  H    0.153686
    16  H    0.139854
    17  H    0.187188
    18  C   -0.451870
    19  H    0.153839
    20  H    0.158449
    21  H    0.175744
    22  N   -0.612753
    23  H    0.387513
    24  C   -0.072076
    25  H    0.207384
    26  C    0.634590
    27  C   -0.353238
    28  H    0.170904
    29  H    0.180712
    30  O   -0.556591
    31  C    0.003028
    32  C   -0.016752
    33  H    0.207260
    34  C    0.089765
    35  C    0.310317
    36  C   -0.225035
    37  H    0.137937
    38  N   -0.686080
    39  H    0.337807
    40  C   -0.148410
    41  H    0.138764
    42  C   -0.159974
    43  H    0.136227
    44  C   -0.139427
    45  H    0.129052
    46  N   -0.576116
    47  H    0.359733
    48  C   -0.079300
    49  H    0.193590
    50  C    0.628191
    51  C   -0.046434
    52  H    0.151128
    53  H    0.135838
    54  O   -0.545498
    55  O   -0.608619
    56  H    0.407015
    57  N   -0.610795
    58  H    0.357639
    59  C   -0.037532
    60  H    0.177789
    61  C    0.619535
    62  C   -0.449541
    63  H    0.162706
    64  H    0.159970
    65  H    0.183624
    66  O   -0.553454
    67  N   -0.618232
    68  H    0.358821
    69  C   -0.060972
    70  H    0.160590
    71  C    0.601461
    72  C   -0.271366
    73  H    0.166131
    74  H    0.155091
    75  O   -0.609619
    76  C   -0.286797
    77  H    0.153918
    78  H    0.157799
    79  C   -0.271899
    80  H    0.155459
    81  H    0.153348
    82  C   -0.151918
    83  H    0.147146
    84  H    0.167184
    85  N   -0.775406
    86  H    0.338845
    87  H    0.479241
    88  H    0.328329
    89  O   -0.479941
 Sum of Mulliken charges =   1.00000

 Dipole moment (field-independent basis, Debye):
    X=             -6.4594    Y=             -0.5886    Z=              9.6320  Tot=             11.6123
 Quadrupole moment (field-independent basis, Debye-Ang):
   XX=           -125.8947   YY=           -187.2912   ZZ=           -168.5555
   XY=            -95.1832   XZ=            -35.3005   YZ=             59.1645

 Normal termination of Gaussian 16 at Tue Jun 28 00:56:31 2022.
