 Gaussian 16, Revision C.01,
 Gaussian 16:  ES64L-G16RevC.01  3-Jul-2019

 -------------------------------------------------------------------
 # B3LYP/6-31G* guess=read geom=check nosymm integral(ultrafinegrid)
 -------------------------------------------------------------------

 ------------------------------------------------------
 Candidate Structure: Conf:772 Charge calc in gas phase
 ------------------------------------------------------
 Structure from the checkpoint file:  "conf-772.chk"
 Charge =  1 Multiplicity = 1

                          Input orientation:
 ---------------------------------------------------------------------
 Center     Atomic      Atomic             Coordinates (Angstroms)
 Number     Number       Type             X           Y           Z
 ---------------------------------------------------------------------
      1          7           0       -6.239334    1.707066    2.798708
      2          1           0       -6.733736    2.564702    2.539300
      3          1           0       -6.382300    0.972407    2.034848
      4          1           0       -6.601219    1.385362    3.700802
      5          6           0       -4.728439    1.853733    2.789062
      6          1           0       -4.495645    2.913575    2.668696
      7          6           0       -4.325423    1.051384    1.517720
      8          6           0       -4.109364    1.284901    4.074838
      9          1           0       -4.372255    0.219706    4.142783
     10          1           0       -3.020028    1.317302    3.950094
     11          8           0       -5.214088    0.378271    0.965278
     12          6           0       -4.483585    2.010681    5.386787
     13          1           0       -5.581134    1.985707    5.509085
     14          6           0       -3.882752    1.246020    6.576994
     15          1           0       -2.787489    1.243782    6.525912
     16          1           0       -4.221291    0.204186    6.601494
     17          1           0       -4.171382    1.715692    7.522324
     18          6           0       -4.038239    3.480673    5.394160
     19          1           0       -2.951427    3.559941    5.269959
     20          1           0       -4.510877    4.077223    4.603779
     21          1           0       -4.296598    3.952948    6.346980
     22          7           0       -3.061997    1.147890    1.138014
     23          1           0       -2.354914    1.634397    1.698698
     24          6           0       -2.441798    0.383883    0.052231
     25          1           0       -2.743880   -0.665031    0.144883
     26          6           0       -0.924547    0.514729    0.342588
     27          6           0       -2.866495    0.898082   -1.358059
     28          1           0       -3.924327    1.176567   -1.284436
     29          1           0       -2.310918    1.813662   -1.590842
     30          8           0       -0.549255    1.175972    1.315383
     31          6           0       -2.696851   -0.123914   -2.444773
     32          6           0       -1.784393   -0.099294   -3.477284
     33          1           0       -0.992453    0.606484   -3.683236
     34          6           0       -3.498863   -1.312792   -2.630630
     35          6           0       -3.009412   -1.964531   -3.794961
     36          6           0       -4.583751   -1.881148   -1.937619
     37          1           0       -4.991722   -1.396568   -1.054095
     38          7           0       -1.968649   -1.198438   -4.284315
     39          1           0       -1.411856   -1.414178   -5.097291
     40          6           0       -4.625167   -3.700058   -3.561931
     41          1           0       -5.077167   -4.626086   -3.905114
     42          6           0       -3.560385   -3.158159   -4.271894
     43          1           0       -3.174286   -3.643000   -5.164307
     44          6           0       -5.133025   -3.067119   -2.408887
     45          1           0       -5.971907   -3.516439   -1.884750
     46          7           0       -0.096777   -0.138518   -0.500097
     47          1           0       -0.472161   -0.450630   -1.394893
     48          6           0        1.357051   -0.002523   -0.426007
     49          1           0        1.576793    0.620492    0.443454
     50          6           0        1.870990    0.637440   -1.726641
     51          6           0        2.008797   -1.390385   -0.221203
     52          1           0        3.091537   -1.267536   -0.126818
     53          1           0        1.816700   -2.011897   -1.110147
     54          8           0        1.262940    0.482052   -2.789151
     55          8           0        1.570076   -2.012476    0.966448
     56          1           0        0.624821   -2.202548    0.859624
     57          7           0        3.034381    1.305068   -1.614689
     58          1           0        3.535556    1.386618   -0.732222
     59          6           0        3.761076    1.855422   -2.749583
     60          1           0        3.754859    1.115709   -3.559512
     61          6           0        5.204911    2.074377   -2.250606
     62          6           0        3.131775    3.163402   -3.262061
     63          1           0        3.678846    3.549360   -4.128257
     64          1           0        3.143121    3.926801   -2.477427
     65          1           0        2.097995    2.974050   -3.561924
     66          8           0        5.469070    2.026604   -1.047432
     67          7           0        6.115262    2.344073   -3.206956
     68          1           0        5.871188    2.329299   -4.191286
     69          6           0        7.518629    2.635944   -2.924511
     70          1           0        7.582928    3.231461   -2.011225
     71          6           0        8.052742    3.406195   -4.128788
     72          6           0        8.315670    1.303471   -2.769998
     73          1           0        7.725573    0.685686   -2.084106
     74          1           0        8.284604    0.798735   -3.743780
     75          8           0        8.980276    4.302492   -3.813458
     76          6           0        9.757931    1.328124   -2.214770
     77          1           0        9.721758    1.630675   -1.160151
     78          1           0       10.091059    0.281230   -2.209222
     79          6           0       10.836510    2.197942   -2.901111
     80          1           0       11.800546    1.949246   -2.439931
     81          1           0       10.642514    3.244841   -2.659025
     82          6           0       10.955744    2.069232   -4.437907
     83          1           0       11.771133    1.381935   -4.703705
     84          1           0       10.042414    1.652402   -4.871895
     85          7           0       11.133780    3.404850   -5.068040
     86          1           0       11.201676    3.309084   -6.080561
     87          1           0        9.724705    4.260690   -4.512421
     88          1           0       12.009225    3.825941   -4.756678
     89          8           0        7.702325    3.123858   -5.262688
 ---------------------------------------------------------------------

 SCF Done:  E(RB3LYP) =  -2042.49474307     A.U. after    1 cycles

 Alpha  occ. eigenvalues --  -19.27048 -19.22158 -19.21838 -19.21659 -19.19127
 Alpha  occ. eigenvalues --  -19.18617 -19.18340 -14.59853 -14.49135 -14.45344
 Alpha  occ. eigenvalues --  -14.44775 -14.43084 -14.42399 -14.40152 -10.43531
 Alpha  occ. eigenvalues --  -10.40681 -10.39142 -10.36541 -10.36349 -10.35446
 Alpha  occ. eigenvalues --  -10.34337 -10.33537 -10.32309 -10.30994 -10.30968
 Alpha  occ. eigenvalues --  -10.30470 -10.29147 -10.29032 -10.28874 -10.28858
 Alpha  occ. eigenvalues --  -10.28484 -10.28179 -10.27204 -10.25767 -10.25215
 Alpha  occ. eigenvalues --  -10.25175 -10.24969 -10.24783 -10.24675 -10.24611
 Alpha  occ. eigenvalues --  -10.24383 -10.24101 -10.23525  -1.19284  -1.14234
 Alpha  occ. eigenvalues --   -1.14007  -1.13575  -1.11118  -1.10052  -1.09228
 Alpha  occ. eigenvalues --   -1.05900  -1.05589  -1.04737  -1.01630  -0.99646
 Alpha  occ. eigenvalues --   -0.98851  -0.95491  -0.95100  -0.90754  -0.90041
 Alpha  occ. eigenvalues --   -0.88274  -0.86253  -0.85249  -0.84072  -0.82183
 Alpha  occ. eigenvalues --   -0.80497  -0.80010  -0.79919  -0.79420  -0.78763
 Alpha  occ. eigenvalues --   -0.76221  -0.75147  -0.73884  -0.73328  -0.72844
 Alpha  occ. eigenvalues --   -0.72308  -0.70232  -0.69351  -0.69250  -0.68682
 Alpha  occ. eigenvalues --   -0.67847  -0.66723  -0.65905  -0.65704  -0.65152
 Alpha  occ. eigenvalues --   -0.64446  -0.63622  -0.63104  -0.62539  -0.61165
 Alpha  occ. eigenvalues --   -0.60348  -0.59618  -0.59033  -0.58541  -0.57942
 Alpha  occ. eigenvalues --   -0.57021  -0.56426  -0.56036  -0.55607  -0.55434
 Alpha  occ. eigenvalues --   -0.54973  -0.54725  -0.54098  -0.53961  -0.53675
 Alpha  occ. eigenvalues --   -0.53422  -0.53192  -0.52375  -0.51991  -0.51607
 Alpha  occ. eigenvalues --   -0.51559  -0.51184  -0.50875  -0.50339  -0.49816
 Alpha  occ. eigenvalues --   -0.49756  -0.49680  -0.49355  -0.49155  -0.48622
 Alpha  occ. eigenvalues --   -0.48497  -0.48318  -0.47692  -0.47636  -0.47227
 Alpha  occ. eigenvalues --   -0.47164  -0.46861  -0.46639  -0.45754  -0.45678
 Alpha  occ. eigenvalues --   -0.45092  -0.45001  -0.44978  -0.44741  -0.44456
 Alpha  occ. eigenvalues --   -0.43741  -0.43618  -0.42819  -0.41802  -0.41715
 Alpha  occ. eigenvalues --   -0.41449  -0.41395  -0.40500  -0.39918  -0.39757
 Alpha  occ. eigenvalues --   -0.39183  -0.38769  -0.38592  -0.37796  -0.36591
 Alpha  occ. eigenvalues --   -0.35973  -0.35333  -0.34750  -0.33981  -0.33254
 Alpha  occ. eigenvalues --   -0.33070  -0.32549  -0.32207  -0.31833  -0.30927
 Alpha  occ. eigenvalues --   -0.28789  -0.27224
 Alpha virt. eigenvalues --   -0.12139  -0.11425  -0.07909  -0.07496  -0.06720
 Alpha virt. eigenvalues --   -0.05623  -0.04905  -0.04045  -0.03904  -0.03547
 Alpha virt. eigenvalues --   -0.02238  -0.01295  -0.01021  -0.00861   0.00307

 Mulliken charges:
               1
     1  N   -0.759795
     2  H    0.415526
     3  H    0.434838
     4  H    0.412225
     5  C   -0.116047
     6  H    0.217481
     7  C    0.657121
     8  C   -0.298744
     9  H    0.172787
    10  H    0.198176
    11  O   -0.544826
    12  C   -0.097210
    13  H    0.111967
    14  C   -0.448544
    15  H    0.169027
    16  H    0.158648
    17  H    0.175037
    18  C   -0.455158
    19  H    0.171380
    20  H    0.132094
    21  H    0.183464
    22  N   -0.616240
    23  H    0.378331
    24  C   -0.055677
    25  H    0.206007
    26  C    0.605113
    27  C   -0.358612
    28  H    0.178508
    29  H    0.167274
    30  O   -0.535194
    31  C    0.004460
    32  C    0.001720
    33  H    0.197941
    34  C    0.086569
    35  C    0.310557
    36  C   -0.228974
    37  H    0.139696
    38  N   -0.685307
    39  H    0.341619
    40  C   -0.148665
    41  H    0.139502
    42  C   -0.159170
    43  H    0.138394
    44  C   -0.140394
    45  H    0.128287
    46  N   -0.622066
    47  H    0.373413
    48  C   -0.100203
    49  H    0.198733
    50  C    0.624386
    51  C   -0.031405
    52  H    0.170502
    53  H    0.142141
    54  O   -0.552671
    55  O   -0.597908
    56  H    0.394871
    57  N   -0.612614
    58  H    0.362930
    59  C   -0.039864
    60  H    0.176737
    61  C    0.623318
    62  C   -0.447516
    63  H    0.160580
    64  H    0.164247
    65  H    0.178509
    66  O   -0.542663
    67  N   -0.619316
    68  H    0.351435
    69  C   -0.013993
    70  H    0.185393
    71  C    0.582598
    72  C   -0.281142
    73  H    0.169493
    74  H    0.148908
    75  O   -0.596476
    76  C   -0.271202
    77  H    0.152206
    78  H    0.145130
    79  C   -0.289607
    80  H    0.143894
    81  H    0.174547
    82  C   -0.158183
    83  H    0.149572
    84  H    0.170528
    85  N   -0.769966
    86  H    0.333094
    87  H    0.449581
    88  H    0.327146
    89  O   -0.492292
 Sum of Mulliken charges =   1.00000

 Dipole moment (field-independent basis, Debye):
    X=            -10.9086    Y=              7.5870    Z=              5.0284  Tot=             14.2072
 Quadrupole moment (field-independent basis, Debye-Ang):
   XX=             -7.7859   YY=           -230.0018   ZZ=           -170.2013
   XY=            -19.9659   XZ=           -125.0888   YZ=             25.6211

 Normal termination of Gaussian 16 at Tue Jun 28 01:16:05 2022.
