 Gaussian 16, Revision C.01,
 Gaussian 16:  ES64L-G16RevC.01  3-Jul-2019

 -------------------------------------------------------------------
 # B3LYP/6-31G* guess=read geom=check nosymm integral(ultrafinegrid)
 -------------------------------------------------------------------

 -----------------------------------------------------
 Candidate Structure: Conf:34 Charge calc in gas phase
 -----------------------------------------------------
 Structure from the checkpoint file:  "conf-34.chk"
 Charge =  1 Multiplicity = 1

                          Input orientation:
 ---------------------------------------------------------------------
 Center     Atomic      Atomic             Coordinates (Angstroms)
 Number     Number       Type             X           Y           Z
 ---------------------------------------------------------------------
      1          7           0       -5.784007    2.122211    2.571539
      2          1           0       -5.845583    3.140704    2.488255
      3          1           0       -6.101511    1.678114    1.649865
      4          1           0       -6.367513    1.819479    3.356036
      5          6           0       -4.356148    1.608837    2.658076
      6          1           0       -3.709036    2.449031    2.916024
      7          6           0       -4.111182    1.116472    1.202483
      8          6           0       -4.281825    0.491746    3.717831
      9          1           0       -4.710903    0.888714    4.650420
     10          1           0       -4.925762   -0.335209    3.389000
     11          8           0       -5.119443    0.958748    0.487779
     12          6           0       -2.870756   -0.053048    4.040209
     13          1           0       -2.433382   -0.465497    3.122894
     14          6           0       -1.930391    1.036157    4.579307
     15          1           0       -2.336269    1.495646    5.489824
     16          1           0       -1.737312    1.836909    3.854156
     17          1           0       -0.958054    0.602489    4.831228
     18          6           0       -3.003387   -1.206741    5.047025
     19          1           0       -3.425385   -0.858236    5.998097
     20          1           0       -3.646677   -2.006068    4.662383
     21          1           0       -2.021872   -1.642153    5.257967
     22          7           0       -2.859329    0.892313    0.844302
     23          1           0       -2.069984    0.972030    1.493818
     24          6           0       -2.442055    0.277356   -0.417034
     25          1           0       -3.145483   -0.521296   -0.670208
     26          6           0       -1.042800   -0.295859   -0.097015
     27          6           0       -2.403373    1.308427   -1.589128
     28          1           0       -3.296136    1.937069   -1.485810
     29          1           0       -1.533832    1.962163   -1.454209
     30          8           0       -0.482077    0.025210    0.964523
     31          6           0       -2.395082    0.668993   -2.945427
     32          6           0       -1.323162    0.519983   -3.798097
     33          1           0       -0.285117    0.794268   -3.661744
     34          6           0       -3.536375    0.085321   -3.611663
     35          6           0       -3.080655   -0.398226   -4.867773
     36          6           0       -4.892327   -0.071959   -3.271334
     37          1           0       -5.269368    0.287761   -2.316700
     38          7           0       -1.733183   -0.106626   -4.952380
     39          1           0       -1.117904   -0.400359   -5.695850
     40          6           0       -5.265525   -1.177138   -5.412759
     41          1           0       -5.953887   -1.666700   -6.095609
     42          6           0       -3.932555   -1.031772   -5.777999
     43          1           0       -3.567421   -1.398843   -6.733178
     44          6           0       -5.741057   -0.700989   -4.173444
     45          1           0       -6.790385   -0.831326   -3.923515
     46          7           0       -0.512421   -1.103897   -1.018037
     47          1           0       -0.974946   -1.245148   -1.914050
     48          6           0        0.863268   -1.606262   -0.964013
     49          1           0        1.102095   -1.893916    0.061892
     50          6           0        1.823197   -0.505274   -1.463709
     51          6           0        0.944288   -2.835096   -1.889267
     52          1           0        0.317374   -3.632627   -1.479213
     53          1           0        1.981835   -3.184779   -1.913333
     54          8           0        1.968982   -0.284959   -2.672524
     55          8           0        0.417429   -2.513715   -3.173309
     56          1           0        1.012937   -1.813110   -3.504752
     57          7           0        2.467252    0.208476   -0.507812
     58          1           0        2.286599   -0.032760    0.458648
     59          6           0        3.589831    1.096492   -0.810991
     60          1           0        3.375557    1.556172   -1.779163
     61          6           0        4.936321    0.341363   -1.014789
     62          6           0        3.733371    2.182549    0.256964
     63          1           0        4.597829    2.804894    0.013597
     64          1           0        3.899937    1.742030    1.248496
     65          1           0        2.839271    2.813013    0.302950
     66          8           0        5.899284    0.972434   -1.466965
     67          7           0        4.917864   -0.944435   -0.640447
     68          1           0        4.027167   -1.391322   -0.383166
     69          6           0        5.794282   -2.043383   -1.029376
     70          1           0        5.952290   -2.011995   -2.118019
     71          6           0        4.957187   -3.369965   -0.729292
     72          6           0        7.159145   -2.083718   -0.338893
     73          1           0        7.035852   -1.808358    0.718102
     74          1           0        7.482010   -3.130706   -0.376046
     75          8           0        5.589874   -4.429805   -0.814898
     76          6           0        8.200860   -1.176177   -1.004711
     77          1           0        8.344931   -1.506902   -2.043529
     78          1           0        7.817946   -0.150272   -1.053952
     79          6           0        9.556524   -1.218824   -0.279974
     80          1           0        9.921132   -2.255820   -0.235609
     81          1           0        9.433949   -0.868919    0.755461
     82          6           0       10.566693   -0.345416   -1.001560
     83          1           0       10.752761   -0.677667   -2.025679
     84          1           0       10.278149    0.708251   -1.014218
     85          7           0       11.933325   -0.399039   -0.294667
     86          1           0       12.644277    0.178620   -0.758696
     87          1           0       11.847079   -0.077582    0.676687
     88          1           0       12.280187   -1.365184   -0.262468
     89          8           0        3.733857   -3.161288   -0.453079
 ---------------------------------------------------------------------

 SCF Done:  E(RB3LYP) =  -2042.42369276     A.U. after    1 cycles

 Alpha  occ. eigenvalues --  -19.25580 -19.19943 -19.17197 -19.17065 -19.13410
 Alpha  occ. eigenvalues --  -19.07899 -19.06674 -14.62054 -14.58779 -14.47749
 Alpha  occ. eigenvalues --  -14.42947 -14.42930 -14.41263 -14.35983 -10.42141
 Alpha  occ. eigenvalues --  -10.39544 -10.38324 -10.36701 -10.33988 -10.32423
 Alpha  occ. eigenvalues --  -10.32392 -10.30607 -10.29908 -10.29889 -10.28033
 Alpha  occ. eigenvalues --  -10.27263 -10.27183 -10.27178 -10.27160 -10.26661
 Alpha  occ. eigenvalues --  -10.26425 -10.25905 -10.25659 -10.24262 -10.23885
 Alpha  occ. eigenvalues --  -10.23479 -10.23392 -10.23305 -10.23100 -10.22971
 Alpha  occ. eigenvalues --  -10.22721 -10.22646 -10.21175  -1.17938  -1.15866
 Alpha  occ. eigenvalues --   -1.12575  -1.11566  -1.08792  -1.04822  -1.04551
 Alpha  occ. eigenvalues --   -1.04338  -1.02915  -1.00631  -0.99281  -0.97544
 Alpha  occ. eigenvalues --   -0.93565  -0.93462  -0.91602  -0.91203  -0.88866
 Alpha  occ. eigenvalues --   -0.88204  -0.86575  -0.83314  -0.82748  -0.81811
 Alpha  occ. eigenvalues --   -0.79528  -0.78995  -0.78184  -0.77674  -0.77051
 Alpha  occ. eigenvalues --   -0.76991  -0.74535  -0.74430  -0.74189  -0.72647
 Alpha  occ. eigenvalues --   -0.71867  -0.70557  -0.69745  -0.68801  -0.67562
 Alpha  occ. eigenvalues --   -0.66967  -0.66491  -0.65968  -0.64571  -0.64177
 Alpha  occ. eigenvalues --   -0.63992  -0.63437  -0.62093  -0.61951  -0.61590
 Alpha  occ. eigenvalues --   -0.59573  -0.58942  -0.58618  -0.58246  -0.58070
 Alpha  occ. eigenvalues --   -0.56675  -0.56138  -0.55227  -0.54595  -0.54357
 Alpha  occ. eigenvalues --   -0.53491  -0.53296  -0.53210  -0.52660  -0.52229
 Alpha  occ. eigenvalues --   -0.52074  -0.51893  -0.51156  -0.50597  -0.50023
 Alpha  occ. eigenvalues --   -0.49631  -0.49221  -0.48572  -0.48227  -0.48068
 Alpha  occ. eigenvalues --   -0.47701  -0.47697  -0.46937  -0.46832  -0.46770
 Alpha  occ. eigenvalues --   -0.46413  -0.46160  -0.45633  -0.45255  -0.44925
 Alpha  occ. eigenvalues --   -0.44813  -0.44351  -0.43863  -0.43695  -0.43207
 Alpha  occ. eigenvalues --   -0.43189  -0.43022  -0.42905  -0.42744  -0.42577
 Alpha  occ. eigenvalues --   -0.42140  -0.41074  -0.40210  -0.40067  -0.39602
 Alpha  occ. eigenvalues --   -0.38364  -0.38341  -0.38020  -0.38002  -0.37603
 Alpha  occ. eigenvalues --   -0.37073  -0.36953  -0.36445  -0.34708  -0.34505
 Alpha  occ. eigenvalues --   -0.33993  -0.32292  -0.32123  -0.30611  -0.29169
 Alpha  occ. eigenvalues --   -0.27197  -0.27015  -0.26651  -0.25399  -0.22903
 Alpha  occ. eigenvalues --   -0.22687  -0.20929
 Alpha virt. eigenvalues --   -0.12766  -0.10986  -0.10057  -0.06091  -0.05971
 Alpha virt. eigenvalues --   -0.05908  -0.05609  -0.05445  -0.03748  -0.03125
 Alpha virt. eigenvalues --   -0.02869  -0.02138  -0.00718  -0.00117   0.00117

 Mulliken charges:
               1
     1  N   -0.759271
     2  H    0.413437
     3  H    0.434161
     4  H    0.409881
     5  C   -0.114778
     6  H    0.211132
     7  C    0.652002
     8  C   -0.286842
     9  H    0.157124
    10  H    0.175975
    11  O   -0.546985
    12  C   -0.103177
    13  H    0.166922
    14  C   -0.459889
    15  H    0.151471
    16  H    0.138751
    17  H    0.186397
    18  C   -0.452103
    19  H    0.151592
    20  H    0.159382
    21  H    0.177001
    22  N   -0.610640
    23  H    0.385361
    24  C   -0.064951
    25  H    0.205520
    26  C    0.627625
    27  C   -0.354405
    28  H    0.168416
    29  H    0.164154
    30  O   -0.571872
    31  C    0.014076
    32  C   -0.001745
    33  H    0.189240
    34  C    0.088505
    35  C    0.315820
    36  C   -0.225491
    37  H    0.130934
    38  N   -0.680890
    39  H    0.342377
    40  C   -0.149404
    41  H    0.134909
    42  C   -0.156060
    43  H    0.136931
    44  C   -0.138764
    45  H    0.124273
    46  N   -0.598944
    47  H    0.377490
    48  C   -0.087562
    49  H    0.187690
    50  C    0.638677
    51  C   -0.077219
    52  H    0.151103
    53  H    0.218592
    54  O   -0.554805
    55  O   -0.650330
    56  H    0.416325
    57  N   -0.608207
    58  H    0.346089
    59  C   -0.028265
    60  H    0.190459
    61  C    0.602823
    62  C   -0.464760
    63  H    0.181469
    64  H    0.142677
    65  H    0.148692
    66  O   -0.566023
    67  N   -0.626000
    68  H    0.358238
    69  C   -0.058695
    70  H    0.143198
    71  C    0.579829
    72  C   -0.258160
    73  H    0.121687
    74  H    0.173429
    75  O   -0.569280
    76  C   -0.289477
    77  H    0.140366
    78  H    0.198521
    79  C   -0.289621
    80  H    0.160581
    81  H    0.156331
    82  C   -0.206708
    83  H    0.224624
    84  H    0.229908
    85  N   -0.731754
    86  H    0.422961
    87  H    0.422036
    88  H    0.423512
    89  O   -0.627596
 Sum of Mulliken charges =   1.00000

 Dipole moment (field-independent basis, Debye):
    X=             14.7745    Y=             14.2397    Z=             11.9286  Tot=             23.7349
 Quadrupole moment (field-independent basis, Debye-Ang):
   XX=            326.2757   YY=           -281.4065   ZZ=           -199.3196
   XY=            -11.4395   XZ=            -56.1875   YZ=             18.0628

 Normal termination of Gaussian 16 at Tue Jun 28 00:56:26 2022.
