 Gaussian 16, Revision C.01,
 Gaussian 16:  ES64L-G16RevC.01  3-Jul-2019

 -------------------------------------------------------------------
 # B3LYP/6-31G* guess=read geom=check nosymm integral(ultrafinegrid)
 -------------------------------------------------------------------

 ------------------------------------------------------
 Candidate Structure: Conf:684 Charge calc in gas phase
 ------------------------------------------------------
 Structure from the checkpoint file:  "conf-684.chk"
 Charge =  1 Multiplicity = 1

                          Input orientation:
 ---------------------------------------------------------------------
 Center     Atomic      Atomic             Coordinates (Angstroms)
 Number     Number       Type             X           Y           Z
 ---------------------------------------------------------------------
      1          7           0       -2.041961   -2.723645    0.569777
      2          1           0       -2.410150   -3.284271    1.336217
      3          1           0       -2.475959   -3.045240   -0.294431
      4          1           0       -0.414185   -2.858792    0.306262
      5          6           0       -2.330179   -1.292859    0.798372
      6          1           0       -3.392693   -1.128960    1.034442
      7          6           0       -2.008600   -0.561012   -0.516773
      8          6           0       -1.453286   -0.796650    1.980393
      9          1           0       -1.387018   -1.624438    2.700912
     10          1           0       -0.432656   -0.644635    1.608388
     11          8           0       -1.434748   -1.119456   -1.446217
     12          6           0       -1.931265    0.455444    2.743413
     13          1           0       -2.151517    1.251911    2.019222
     14          6           0       -3.205455    0.186356    3.558214
     15          1           0       -3.022314   -0.578568    4.323662
     16          1           0       -4.041013   -0.154799    2.935887
     17          1           0       -3.538474    1.095632    4.069538
     18          6           0       -0.799038    0.968873    3.647843
     19          1           0       -0.503428    0.204099    4.377681
     20          1           0        0.087549    1.240554    3.062802
     21          1           0       -1.118407    1.853701    4.209711
     22          7           0       -2.350948    0.764968   -0.584892
     23          1           0       -3.065110    1.115161    0.045025
     24          6           0       -2.199015    1.459855   -1.862810
     25          1           0       -2.614166    0.843466   -2.666524
     26          6           0       -0.727694    1.671194   -2.236700
     27          6           0       -2.927143    2.829589   -1.846014
     28          1           0       -2.422052    3.493285   -1.132856
     29          1           0       -2.783239    3.269926   -2.838090
     30          8           0       -0.393718    1.789366   -3.420063
     31          6           0       -4.387180    2.729902   -1.506535
     32          6           0       -5.415949    2.416261   -2.363210
     33          1           0       -5.393658    2.227826   -3.428298
     34          6           0       -4.981479    2.893792   -0.200078
     35          6           0       -6.377735    2.656749   -0.341103
     36          6           0       -4.479579    3.238784    1.070476
     37          1           0       -3.424591    3.465697    1.208955
     38          7           0       -6.606533    2.364420   -1.669808
     39          1           0       -7.511428    2.199411   -2.083979
     40          6           0       -6.735841    3.072616    1.979249
     41          1           0       -7.398166    3.150320    2.836340
     42          6           0       -7.264336    2.741168    0.737431
     43          1           0       -8.328107    2.560097    0.610125
     44          6           0       -5.357806    3.323043    2.144101
     45          1           0       -4.982390    3.600362    3.124958
     46          7           0        0.156651    1.794499   -1.217250
     47          1           0       -0.131318    1.568158   -0.272755
     48          6           0        1.546684    2.191423   -1.408057
     49          1           0        1.569602    2.940513   -2.210758
     50          6           0        2.460029    1.020343   -1.853077
     51          6           0        2.069677    2.801005   -0.103901
     52          1           0        1.443990    3.652801    0.175821
     53          1           0        3.096296    3.156253   -0.251603
     54          8           0        3.524496    0.769804   -1.267067
     55          8           0        1.987186    1.862727    0.961079
     56          1           0        2.651708    1.183866    0.750300
     57          7           0        2.004009    0.315502   -2.912226
     58          1           0        1.171476    0.685917   -3.380250
     59          6           0        2.793807   -0.709734   -3.596485
     60          1           0        2.087160   -1.238872   -4.247994
     61          6           0        3.348052   -1.778311   -2.624455
     62          6           0        3.901733   -0.103324   -4.463846
     63          1           0        4.449796   -0.888547   -4.988861
     64          1           0        4.602469    0.466257   -3.846197
     65          1           0        3.461048    0.573611   -5.201369
     66          8           0        4.491001   -2.239362   -2.809832
     67          7           0        2.503409   -2.179154   -1.654517
     68          1           0        1.607531   -1.703842   -1.583831
     69          6           0        2.699597   -3.263792   -0.669570
     70          1           0        3.174307   -4.106644   -1.177989
     71          6           0        1.315735   -3.713083   -0.182757
     72          6           0        3.569152   -2.856676    0.561587
     73          1           0        3.013210   -2.155697    1.194375
     74          1           0        3.761251   -3.762409    1.148828
     75          8           0        0.997289   -4.872669   -0.042027
     76          6           0        4.835995   -2.225986    0.001599
     77          1           0        5.190757   -2.926519   -0.757587
     78          1           0        4.491377   -1.331308   -0.523526
     79          6           0        6.053378   -1.787523    0.814493
     80          1           0        6.660182   -2.635575    1.154759
     81          1           0        5.789901   -1.203482    1.704106
     82          6           0        6.867223   -0.858237   -0.103912
     83          1           0        6.365569    0.105924   -0.215234
     84          1           0        7.894756   -0.697426    0.230267
     85          7           0        6.958641   -1.410936   -1.532384
     86          1           0        7.476964   -0.764884   -2.135806
     87          1           0        7.452965   -2.309528   -1.553402
     88          1           0        6.017092   -1.580917   -1.978454
     89          8           0        0.571311   -2.645186    0.091114
 ---------------------------------------------------------------------

 SCF Done:  E(RB3LYP) =  -2042.51126844     A.U. after    2 cycles

 Alpha  occ. eigenvalues --  -19.24166 -19.23497 -19.22631 -19.22437 -19.20895
 Alpha  occ. eigenvalues --  -19.20541 -19.20097 -14.59081 -14.46072 -14.45575
 Alpha  occ. eigenvalues --  -14.45187 -14.45092 -14.44953 -14.43051 -10.39645
 Alpha  occ. eigenvalues --  -10.39054 -10.38596 -10.38408 -10.37688 -10.37609
 Alpha  occ. eigenvalues --  -10.33532 -10.32814 -10.32662 -10.32367 -10.31967
 Alpha  occ. eigenvalues --  -10.31773 -10.31751 -10.29117 -10.28821 -10.28812
 Alpha  occ. eigenvalues --  -10.28756 -10.27862 -10.27014 -10.26886 -10.26677
 Alpha  occ. eigenvalues --  -10.25667 -10.25634 -10.25618 -10.25595 -10.25029
 Alpha  occ. eigenvalues --  -10.24876 -10.24367 -10.24041  -1.15855  -1.14319
 Alpha  occ. eigenvalues --   -1.13631  -1.13072  -1.12936  -1.12134  -1.10675
 Alpha  occ. eigenvalues --   -1.07414  -1.04968  -1.03043  -1.02096  -1.01541
 Alpha  occ. eigenvalues --   -1.00422  -0.99135  -0.92750  -0.90680  -0.88862
 Alpha  occ. eigenvalues --   -0.88457  -0.87865  -0.86773  -0.84784  -0.83186
 Alpha  occ. eigenvalues --   -0.82146  -0.80810  -0.80268  -0.78576  -0.77004
 Alpha  occ. eigenvalues --   -0.75431  -0.75213  -0.74726  -0.73176  -0.72535
 Alpha  occ. eigenvalues --   -0.71779  -0.71579  -0.69246  -0.69028  -0.68592
 Alpha  occ. eigenvalues --   -0.68135  -0.67849  -0.67136  -0.66216  -0.65907
 Alpha  occ. eigenvalues --   -0.64595  -0.63466  -0.63103  -0.62471  -0.61585
 Alpha  occ. eigenvalues --   -0.60953  -0.60627  -0.60082  -0.59855  -0.58999
 Alpha  occ. eigenvalues --   -0.58169  -0.57471  -0.56907  -0.56468  -0.55718
 Alpha  occ. eigenvalues --   -0.55353  -0.54972  -0.54580  -0.54181  -0.53988
 Alpha  occ. eigenvalues --   -0.53932  -0.53471  -0.53195  -0.52979  -0.52111
 Alpha  occ. eigenvalues --   -0.51671  -0.51431  -0.51043  -0.50771  -0.50316
 Alpha  occ. eigenvalues --   -0.50281  -0.50016  -0.49739  -0.49575  -0.49331
 Alpha  occ. eigenvalues --   -0.49273  -0.49227  -0.48725  -0.48265  -0.48101
 Alpha  occ. eigenvalues --   -0.47585  -0.47069  -0.46647  -0.46170  -0.45944
 Alpha  occ. eigenvalues --   -0.45896  -0.45596  -0.45384  -0.45175  -0.44829
 Alpha  occ. eigenvalues --   -0.44578  -0.44094  -0.43507  -0.43356  -0.43061
 Alpha  occ. eigenvalues --   -0.42509  -0.42013  -0.40471  -0.40334  -0.40173
 Alpha  occ. eigenvalues --   -0.40014  -0.39799  -0.37872  -0.37651  -0.37106
 Alpha  occ. eigenvalues --   -0.36721  -0.36423  -0.36196  -0.35744  -0.35086
 Alpha  occ. eigenvalues --   -0.34576  -0.34296  -0.33446  -0.33296  -0.32973
 Alpha  occ. eigenvalues --   -0.29145  -0.27273
 Alpha virt. eigenvalues --   -0.10476  -0.08957  -0.08772  -0.08177  -0.07212
 Alpha virt. eigenvalues --   -0.06591  -0.05576  -0.04509  -0.04456  -0.03270
 Alpha virt. eigenvalues --   -0.02315  -0.01475  -0.00614  -0.00231   0.00498

 Mulliken charges:
               1
     1  N   -0.781518
     2  H    0.337386
     3  H    0.346427
     4  H    0.486633
     5  C   -0.071991
     6  H    0.160562
     7  C    0.602337
     8  C   -0.268808
     9  H    0.147324
    10  H    0.160412
    11  O   -0.513809
    12  C   -0.088612
    13  H    0.117112
    14  C   -0.450022
    15  H    0.148059
    16  H    0.144684
    17  H    0.158936
    18  C   -0.460015
    19  H    0.145636
    20  H    0.162419
    21  H    0.151089
    22  N   -0.652585
    23  H    0.360252
    24  C    0.001132
    25  H    0.185244
    26  C    0.636705
    27  C   -0.399540
    28  H    0.159632
    29  H    0.189140
    30  O   -0.560549
    31  C    0.057207
    32  C    0.008640
    33  H    0.166121
    34  C    0.060617
    35  C    0.315524
    36  C   -0.230414
    37  H    0.127009
    38  N   -0.685358
    39  H    0.340550
    40  C   -0.151924
    41  H    0.142043
    42  C   -0.157382
    43  H    0.140534
    44  C   -0.138442
    45  H    0.134353
    46  N   -0.600194
    47  H    0.361943
    48  C   -0.080244
    49  H    0.196698
    50  C    0.627911
    51  C   -0.060238
    52  H    0.169160
    53  H    0.155814
    54  O   -0.572322
    55  O   -0.626977
    56  H    0.406905
    57  N   -0.625941
    58  H    0.397286
    59  C   -0.058106
    60  H    0.196148
    61  C    0.652722
    62  C   -0.440758
    63  H    0.175123
    64  H    0.146565
    65  H    0.168963
    66  O   -0.592414
    67  N   -0.609423
    68  H    0.380862
    69  C   -0.021737
    70  H    0.190898
    71  C    0.568957
    72  C   -0.275971
    73  H    0.163076
    74  H    0.172338
    75  O   -0.463920
    76  C   -0.328286
    77  H    0.149817
    78  H    0.190707
    79  C   -0.275968
    80  H    0.170304
    81  H    0.187533
    82  C   -0.202440
    83  H    0.232311
    84  H    0.206042
    85  N   -0.772689
    86  H    0.411638
    87  H    0.409211
    88  H    0.461390
    89  O   -0.625444
 Sum of Mulliken charges =   1.00000

 Dipole moment (field-independent basis, Debye):
    X=             12.8838    Y=             -0.4402    Z=             -3.5889  Tot=             13.3816
 Quadrupole moment (field-independent basis, Debye-Ang):
   XX=            -26.5507   YY=           -251.7635   ZZ=           -230.4435
   XY=            -30.5311   XZ=            -20.7398   YZ=             -3.6052

 Normal termination of Gaussian 16 at Tue Jun 28 01:16:36 2022.
