 Gaussian 16, Revision C.01,
 Gaussian 16:  ES64L-G16RevC.01  3-Jul-2019

 -------------------------------------------------------------------
 # B3LYP/6-31G* guess=read geom=check nosymm integral(ultrafinegrid)
 -------------------------------------------------------------------

 ------------------------------------------------------
 Candidate Structure: Conf:879 Charge calc in gas phase
 ------------------------------------------------------
 Structure from the checkpoint file:  "conf-879.chk"
 Charge =  1 Multiplicity = 1

                          Input orientation:
 ---------------------------------------------------------------------
 Center     Atomic      Atomic             Coordinates (Angstroms)
 Number     Number       Type             X           Y           Z
 ---------------------------------------------------------------------
      1          7           0       -5.787984    3.521578    2.665637
      2          1           0       -5.901182    4.006104    1.751234
      3          1           0       -6.253204    2.590708    2.589652
      4          1           0       -6.209348    4.084838    3.409073
      5          6           0       -4.334378    3.179656    2.927897
      6          1           0       -3.734461    3.998111    2.527235
      7          6           0       -4.170518    1.872912    2.112800
      8          6           0       -4.112275    2.979407    4.433741
      9          1           0       -4.435881    3.890361    4.959814
     10          1           0       -4.762617    2.159534    4.765823
     11          8           0       -5.137832    1.104390    2.086541
     12          6           0       -2.651898    2.670462    4.835517
     13          1           0       -2.325046    1.782261    4.277551
     14          6           0       -1.694444    3.827042    4.507459
     15          1           0       -1.994557    4.746827    5.025678
     16          1           0       -1.637797    4.048537    3.434485
     17          1           0       -0.678031    3.581279    4.829798
     18          6           0       -2.600247    2.328279    6.332251
     19          1           0       -2.917395    3.181630    6.944765
     20          1           0       -3.248414    1.478418    6.574029
     21          1           0       -1.580150    2.066980    6.630847
     22          7           0       -3.014230    1.716251    1.467543
     23          1           0       -2.208185    2.318439    1.640158
     24          6           0       -2.697341    0.617221    0.563670
     25          1           0       -3.230764   -0.278117    0.894036
     26          6           0       -1.165624    0.445300    0.668960
     27          6           0       -3.093849    0.959162   -0.908657
     28          1           0       -2.464535    1.795170   -1.238673
     29          1           0       -2.822278    0.101979   -1.535937
     30          8           0       -0.482092    1.377678    1.092356
     31          6           0       -4.547641    1.292338   -1.083670
     32          6           0       -5.551896    0.410552   -1.399361
     33          1           0       -5.490729   -0.640439   -1.647938
     34          6           0       -5.190362    2.563949   -0.854167
     35          6           0       -6.593815    2.364752   -1.020819
     36          6           0       -4.731430    3.851010   -0.519566
     37          1           0       -3.666738    4.051692   -0.432517
     38          7           0       -6.775910    1.045096   -1.359425
     39          1           0       -7.659617    0.613974   -1.586423
     40          6           0       -7.045744    4.644754   -0.467566
     41          1           0       -7.743362    5.465839   -0.329781
     42          6           0       -7.527157    3.389235   -0.826907
     43          1           0       -8.591511    3.215990   -0.959463
     44          6           0       -5.656847    4.878028   -0.321682
     45          1           0       -5.306235    5.883892   -0.104036
     46          7           0       -0.691633   -0.736666    0.233878
     47          1           0       -1.297594   -1.379737   -0.269694
     48          6           0        0.720002   -1.027232    0.047028
     49          1           0        1.269241   -0.081308    0.066677
     50          6           0        0.840306   -1.732778   -1.321929
     51          6           0        1.266485   -1.938485    1.158752
     52          1           0        2.325771   -2.151781    0.948472
     53          1           0        0.719359   -2.894722    1.133843
     54          8           0       -0.154804   -2.247637   -1.839529
     55          8           0        1.098445   -1.266373    2.392466
     56          1           0        1.451162   -1.836044    3.092945
     57          7           0        2.073653   -1.765725   -1.854263
     58          1           0        2.883451   -1.363941   -1.385592
     59          6           0        2.407964   -2.479577   -3.078653
     60          1           0        1.925526   -3.464262   -3.051689
     61          6           0        3.941889   -2.648908   -3.049704
     62          6           0        1.937375   -1.726078   -4.335541
     63          1           0        2.178015   -2.287970   -5.243837
     64          1           0        2.419821   -0.745283   -4.397671
     65          1           0        0.853907   -1.589850   -4.291160
     66          8           0        4.627489   -2.029778   -2.232856
     67          7           0        4.452821   -3.483100   -3.975931
     68          1           0        3.858481   -3.979016   -4.632092
     69          6           0        5.881228   -3.695146   -4.165652
     70          1           0        6.405411   -2.750488   -4.004176
     71          6           0        6.099514   -4.163698   -5.597046
     72          6           0        6.440813   -4.767451   -3.173601
     73          1           0        6.525131   -4.271794   -2.201253
     74          1           0        5.675783   -5.546515   -3.065162
     75          8           0        5.262286   -4.817004   -6.201763
     76          6           0        7.786433   -5.419062   -3.568270
     77          1           0        8.427571   -4.669773   -4.042242
     78          1           0        8.301577   -5.724663   -2.650282
     79          6           0        7.638560   -6.665821   -4.488270
     80          1           0        6.649298   -6.674987   -4.962577
     81          1           0        7.664660   -7.564044   -3.860092
     82          6           0        8.700138   -6.827030   -5.596236
     83          1           0        9.646468   -6.368702   -5.288583
     84          1           0        8.901219   -7.894299   -5.762980
     85          7           0        8.283739   -6.175073   -6.867300
     86          1           0        9.042648   -6.212266   -7.546934
     87          1           0        7.503289   -6.690119   -7.275912
     88          1           0        7.671897   -4.664113   -6.595976
     89          8           0        7.319894   -3.878597   -6.027297
 ---------------------------------------------------------------------

 SCF Done:  E(RB3LYP) =  -2042.50450201     A.U. after    2 cycles

 Alpha  occ. eigenvalues --  -19.24200 -19.21676 -19.21129 -19.20546 -19.19152
 Alpha  occ. eigenvalues --  -19.18259 -19.18106 -14.57756 -14.47693 -14.47609
 Alpha  occ. eigenvalues --  -14.44327 -14.42955 -14.42114 -14.40580 -10.41436
 Alpha  occ. eigenvalues --  -10.38439 -10.37719 -10.36307 -10.36099 -10.35218
 Alpha  occ. eigenvalues --  -10.33510 -10.32023 -10.31652 -10.31375 -10.31178
 Alpha  occ. eigenvalues --  -10.31008 -10.30257 -10.29716 -10.29331 -10.29253
 Alpha  occ. eigenvalues --  -10.29201 -10.28949 -10.28839 -10.28680 -10.28574
 Alpha  occ. eigenvalues --  -10.27777 -10.27661 -10.27019 -10.26378 -10.24480
 Alpha  occ. eigenvalues --  -10.24278 -10.23996 -10.23546  -1.16784  -1.13436
 Alpha  occ. eigenvalues --   -1.12687  -1.11701  -1.11052  -1.09843  -1.09131
 Alpha  occ. eigenvalues --   -1.07625  -1.05048  -1.04265  -1.00929  -0.99552
 Alpha  occ. eigenvalues --   -0.98588  -0.95967  -0.94192  -0.93123  -0.90342
 Alpha  occ. eigenvalues --   -0.87571  -0.86274  -0.85553  -0.84526  -0.83679
 Alpha  occ. eigenvalues --   -0.82491  -0.81487  -0.79939  -0.78743  -0.77531
 Alpha  occ. eigenvalues --   -0.75960  -0.75185  -0.73069  -0.72310  -0.71938
 Alpha  occ. eigenvalues --   -0.71888  -0.70559  -0.69568  -0.69152  -0.68275
 Alpha  occ. eigenvalues --   -0.67444  -0.66672  -0.66203  -0.65775  -0.64930
 Alpha  occ. eigenvalues --   -0.64321  -0.64181  -0.63509  -0.62731  -0.61561
 Alpha  occ. eigenvalues --   -0.61051  -0.58975  -0.58568  -0.58096  -0.57639
 Alpha  occ. eigenvalues --   -0.57067  -0.56716  -0.56459  -0.56066  -0.55346
 Alpha  occ. eigenvalues --   -0.55093  -0.54591  -0.53894  -0.53536  -0.53417
 Alpha  occ. eigenvalues --   -0.53116  -0.52984  -0.52807  -0.52307  -0.51967
 Alpha  occ. eigenvalues --   -0.51482  -0.51418  -0.51041  -0.50641  -0.50443
 Alpha  occ. eigenvalues --   -0.50374  -0.50117  -0.49274  -0.48915  -0.48474
 Alpha  occ. eigenvalues --   -0.48369  -0.47982  -0.47859  -0.47275  -0.46942
 Alpha  occ. eigenvalues --   -0.46780  -0.46682  -0.46544  -0.46199  -0.45764
 Alpha  occ. eigenvalues --   -0.44980  -0.44860  -0.44265  -0.44009  -0.43602
 Alpha  occ. eigenvalues --   -0.43302  -0.43267  -0.43130  -0.42959  -0.42756
 Alpha  occ. eigenvalues --   -0.41911  -0.41733  -0.41122  -0.40884  -0.39014
 Alpha  occ. eigenvalues --   -0.38830  -0.38600  -0.38344  -0.37911  -0.37051
 Alpha  occ. eigenvalues --   -0.35036  -0.34768  -0.34403  -0.34107  -0.33224
 Alpha  occ. eigenvalues --   -0.32895  -0.32679  -0.32577  -0.32484  -0.31615
 Alpha  occ. eigenvalues --   -0.30686  -0.29941
 Alpha virt. eigenvalues --   -0.11517  -0.10867  -0.08606  -0.07435  -0.06525
 Alpha virt. eigenvalues --   -0.05278  -0.04343  -0.04009  -0.03215  -0.02663
 Alpha virt. eigenvalues --   -0.02306  -0.00699  -0.00621   0.00097   0.00858

 Mulliken charges:
               1
     1  N   -0.761078
     2  H    0.418350
     3  H    0.419172
     4  H    0.400015
     5  C   -0.113312
     6  H    0.198137
     7  C    0.667121
     8  C   -0.279095
     9  H    0.151993
    10  H    0.173788
    11  O   -0.543170
    12  C   -0.096623
    13  H    0.158241
    14  C   -0.457469
    15  H    0.153143
    16  H    0.138062
    17  H    0.183149
    18  C   -0.450076
    19  H    0.153041
    20  H    0.156391
    21  H    0.170903
    22  N   -0.609749
    23  H    0.372687
    24  C   -0.065700
    25  H    0.191046
    26  C    0.640485
    27  C   -0.368544
    28  H    0.171433
    29  H    0.179083
    30  O   -0.533938
    31  C    0.087462
    32  C    0.025793
    33  H    0.175915
    34  C    0.076265
    35  C    0.325015
    36  C   -0.237495
    37  H    0.143996
    38  N   -0.683227
    39  H    0.346681
    40  C   -0.171009
    41  H    0.153857
    42  C   -0.163308
    43  H    0.153872
    44  C   -0.217732
    45  H    0.149686
    46  N   -0.594670
    47  H    0.354380
    48  C   -0.087194
    49  H    0.198630
    50  C    0.620804
    51  C   -0.017473
    52  H    0.143437
    53  H    0.136164
    54  O   -0.549196
    55  O   -0.608709
    56  H    0.403974
    57  N   -0.616170
    58  H    0.362905
    59  C   -0.041230
    60  H    0.179048
    61  C    0.620217
    62  C   -0.449922
    63  H    0.160395
    64  H    0.164506
    65  H    0.183628
    66  O   -0.542481
    67  N   -0.621239
    68  H    0.351026
    69  C   -0.008227
    70  H    0.190641
    71  C    0.575122
    72  C   -0.280469
    73  H    0.170573
    74  H    0.145839
    75  O   -0.504471
    76  C   -0.283557
    77  H    0.170099
    78  H    0.146020
    79  C   -0.290567
    80  H    0.160763
    81  H    0.150774
    82  C   -0.143567
    83  H    0.164808
    84  H    0.148498
    85  N   -0.775799
    86  H    0.333561
    87  H    0.339206
    88  H    0.457608
    89  O   -0.600946
 Sum of Mulliken charges =   1.00000

 Dipole moment (field-independent basis, Debye):
    X=            -13.3736    Y=              3.2072    Z=              3.7957  Tot=             14.2670
 Quadrupole moment (field-independent basis, Debye-Ang):
   XX=            -46.7629   YY=           -147.4788   ZZ=           -178.1250
   XY=           -133.1088   XZ=            -81.2098   YZ=             73.3870

 Normal termination of Gaussian 16 at Tue Jun 28 01:16:20 2022.
