 Gaussian 16, Revision C.01,
 Gaussian 16:  ES64L-G16RevC.01  3-Jul-2019

 -------------------------------------------------------------------
 # B3LYP/6-31G* guess=read geom=check nosymm integral(ultrafinegrid)
 -------------------------------------------------------------------

 ------------------------------------------------------
 Candidate Structure: Conf:288 Charge calc in gas phase
 ------------------------------------------------------
 Structure from the checkpoint file:  "conf-288.chk"
 Charge =  1 Multiplicity = 1

                          Input orientation:
 ---------------------------------------------------------------------
 Center     Atomic      Atomic             Coordinates (Angstroms)
 Number     Number       Type             X           Y           Z
 ---------------------------------------------------------------------
      1          7           0       -5.552363    4.154370    2.540482
      2          1           0       -5.453449    4.377973    1.526581
      3          1           0       -6.181037    3.324923    2.590124
      4          1           0       -5.943182    4.955047    3.044060
      5          6           0       -4.246514    3.657593    3.124380
      6          1           0       -3.450486    4.279000    2.710735
      7          6           0       -4.189401    2.207593    2.581887
      8          6           0       -4.310109    3.739364    4.657440
      9          1           0       -4.552069    4.775105    4.940347
     10          1           0       -5.140335    3.106091    4.997577
     11          8           0       -5.265083    1.619958    2.407200
     12          6           0       -3.015232    3.321785    5.390265
     13          1           0       -2.766326    2.297295    5.082181
     14          6           0       -1.826349    4.234326    5.049815
     15          1           0       -2.042973    5.278230    5.310347
     16          1           0       -1.548565    4.202914    3.989064
     17          1           0       -0.940161    3.930235    5.615494
     18          6           0       -3.274585    3.306668    6.904557
     19          1           0       -3.529354    4.308332    7.272788
     20          1           0       -4.096425    2.630743    7.166324
     21          1           0       -2.382272    2.972964    7.443614
     22          7           0       -2.979677    1.720107    2.323110
     23          1           0       -2.130784    2.267649    2.467812
     24          6           0       -2.714469    0.482142    1.600249
     25          1           0       -3.271027   -0.338408    2.064717
     26          6           0       -1.199975    0.253219    1.769031
     27          6           0       -3.126043    0.585608    0.089924
     28          1           0       -2.645912   -0.240794   -0.445157
     29          1           0       -4.206237    0.420469    0.033403
     30          8           0       -0.467927    1.173140    2.134589
     31          6           0       -2.772288    1.900722   -0.546752
     32          6           0       -1.535931    2.280016   -1.015938
     33          1           0       -0.627101    1.695568   -1.075698
     34          6           0       -3.639530    3.040496   -0.721338
     35          6           0       -2.852180    4.088727   -1.283102
     36          6           0       -5.010583    3.279414   -0.500992
     37          1           0       -5.655305    2.480674   -0.142783
     38          7           0       -1.580640    3.589729   -1.446703
     39          1           0       -0.809577    4.082223   -1.872494
     40          6           0       -4.725610    5.571472   -1.310935
     41          1           0       -5.166177    6.536919   -1.540934
     42          6           0       -3.378620    5.353081   -1.572749
     43          1           0       -2.758509    6.137146   -1.998562
     44          6           0       -5.540267    4.540067   -0.789662
     45          1           0       -6.609617    4.712314   -0.682858
     46          7           0       -0.768147   -1.001851    1.514873
     47          1           0       -1.393684   -1.661992    1.067022
     48          6           0        0.640614   -1.303487    1.344052
     49          1           0        1.200713   -0.744298    2.100312
     50          6           0        1.119546   -0.831571   -0.059861
     51          6           0        0.839868   -2.804266    1.571022
     52          1           0        0.583835   -3.043852    2.613181
     53          1           0        1.890793   -3.078850    1.406402
     54          8           0        0.350427   -0.290635   -0.853205
     55          8           0       -0.024993   -3.466555    0.656403
     56          1           0        0.031262   -4.422168    0.806871
     57          7           0        2.428013   -1.036703   -0.307371
     58          1           0        3.032825   -1.549295    0.329630
     59          6           0        3.059980   -0.750727   -1.586199
     60          1           0        2.374142   -1.046270   -2.388661
     61          6           0        4.326758   -1.630061   -1.633618
     62          6           0        3.402725    0.742344   -1.741142
     63          1           0        3.856516    0.948492   -2.716235
     64          1           0        4.101090    1.059461   -0.959911
     65          1           0        2.486436    1.332198   -1.656598
     66          8           0        4.732765   -2.208370   -0.621509
     67          7           0        4.935647   -1.705471   -2.834325
     68          1           0        4.680832   -1.067203   -3.583855
     69          6           0        6.262641   -2.288420   -3.002002
     70          1           0        6.922165   -1.861561   -2.231382
     71          6           0        6.777418   -1.761439   -4.362618
     72          6           0        6.293052   -3.827744   -2.851579
     73          1           0        5.403988   -4.133704   -2.295156
     74          1           0        6.215491   -4.297092   -3.838823
     75          8           0        7.820697   -2.357222   -4.921067
     76          6           0        7.549573   -4.316300   -2.096507
     77          1           0        8.382513   -3.619986   -2.266199
     78          1           0        7.335734   -4.262771   -1.023108
     79          6           0        8.018911   -5.731708   -2.483415
     80          1           0        7.161710   -6.343884   -2.798558
     81          1           0        8.449737   -6.243494   -1.614500
     82          6           0        9.087573   -5.718201   -3.581547
     83          1           0        9.986422   -5.221863   -3.197592
     84          1           0        9.374006   -6.747046   -3.844309
     85          7           0        8.647060   -4.945623   -4.764870
     86          1           0        9.419130   -4.852202   -5.425148
     87          1           0        7.920317   -5.460327   -5.263875
     88          1           0        8.063146   -3.288846   -4.610904
     89          8           0        6.253325   -0.789559   -4.875129
 ---------------------------------------------------------------------

 SCF Done:  E(RB3LYP) =  -2042.50736748     A.U. after    1 cycles

 Alpha  occ. eigenvalues --  -19.24405 -19.23817 -19.22283 -19.21339 -19.19120
 Alpha  occ. eigenvalues --  -19.18836 -19.18156 -14.57835 -14.47611 -14.46485
 Alpha  occ. eigenvalues --  -14.44924 -14.42922 -14.42242 -14.41054 -10.41510
 Alpha  occ. eigenvalues --  -10.38589 -10.38249 -10.36832 -10.36322 -10.35631
 Alpha  occ. eigenvalues --  -10.33614 -10.32741 -10.31896 -10.31871 -10.30850
 Alpha  occ. eigenvalues --  -10.30502 -10.29954 -10.29806 -10.29617 -10.28476
 Alpha  occ. eigenvalues --  -10.28271 -10.28139 -10.28042 -10.27974 -10.27641
 Alpha  occ. eigenvalues --  -10.27552 -10.27287 -10.26608 -10.26545 -10.25035
 Alpha  occ. eigenvalues --  -10.24912 -10.24831 -10.24506  -1.16900  -1.13889
 Alpha  occ. eigenvalues --   -1.13406  -1.11849  -1.11392  -1.10840  -1.10171
 Alpha  occ. eigenvalues --   -1.06428  -1.05807  -1.04330  -1.01525  -0.99626
 Alpha  occ. eigenvalues --   -0.98916  -0.96690  -0.93366  -0.92965  -0.89653
 Alpha  occ. eigenvalues --   -0.87279  -0.86794  -0.86082  -0.84569  -0.83002
 Alpha  occ. eigenvalues --   -0.82550  -0.80871  -0.80591  -0.78706  -0.77670
 Alpha  occ. eigenvalues --   -0.76030  -0.75622  -0.73796  -0.72206  -0.71999
 Alpha  occ. eigenvalues --   -0.71103  -0.70553  -0.69977  -0.69003  -0.68036
 Alpha  occ. eigenvalues --   -0.68002  -0.66888  -0.66596  -0.65330  -0.64700
 Alpha  occ. eigenvalues --   -0.64610  -0.64003  -0.63693  -0.62690  -0.62423
 Alpha  occ. eigenvalues --   -0.61099  -0.60705  -0.59369  -0.58370  -0.57683
 Alpha  occ. eigenvalues --   -0.57392  -0.57104  -0.56230  -0.55884  -0.55519
 Alpha  occ. eigenvalues --   -0.55218  -0.55002  -0.54228  -0.53849  -0.53423
 Alpha  occ. eigenvalues --   -0.53387  -0.53032  -0.52747  -0.52303  -0.52059
 Alpha  occ. eigenvalues --   -0.51945  -0.51864  -0.50922  -0.50414  -0.50296
 Alpha  occ. eigenvalues --   -0.50078  -0.49587  -0.49328  -0.49043  -0.49012
 Alpha  occ. eigenvalues --   -0.48717  -0.48389  -0.48174  -0.48062  -0.47124
 Alpha  occ. eigenvalues --   -0.46885  -0.46834  -0.46501  -0.46112  -0.45622
 Alpha  occ. eigenvalues --   -0.45293  -0.44713  -0.44208  -0.43856  -0.43769
 Alpha  occ. eigenvalues --   -0.43510  -0.43206  -0.43067  -0.43042  -0.42635
 Alpha  occ. eigenvalues --   -0.42399  -0.42213  -0.41952  -0.41182  -0.39846
 Alpha  occ. eigenvalues --   -0.39613  -0.39149  -0.38851  -0.37384  -0.36607
 Alpha  occ. eigenvalues --   -0.36428  -0.35431  -0.35402  -0.35056  -0.33801
 Alpha  occ. eigenvalues --   -0.33338  -0.32885  -0.32429  -0.31993  -0.31545
 Alpha  occ. eigenvalues --   -0.31534  -0.28972
 Alpha virt. eigenvalues --   -0.11067  -0.10217  -0.08312  -0.07155  -0.06971
 Alpha virt. eigenvalues --   -0.05547  -0.04519  -0.03648  -0.03584  -0.02612
 Alpha virt. eigenvalues --   -0.02118  -0.01215  -0.01030  -0.00075   0.00285

 Mulliken charges:
               1
     1  N   -0.755233
     2  H    0.408176
     3  H    0.415819
     4  H    0.400755
     5  C   -0.124780
     6  H    0.209701
     7  C    0.670207
     8  C   -0.275922
     9  H    0.153180
    10  H    0.172682
    11  O   -0.550408
    12  C   -0.094469
    13  H    0.153976
    14  C   -0.460094
    15  H    0.154345
    16  H    0.141965
    17  H    0.179203
    18  C   -0.450181
    19  H    0.154141
    20  H    0.157244
    21  H    0.169696
    22  N   -0.615316
    23  H    0.377184
    24  C   -0.047939
    25  H    0.188162
    26  C    0.644939
    27  C   -0.383100
    28  H    0.191013
    29  H    0.179311
    30  O   -0.544873
    31  C    0.039872
    32  C    0.016079
    33  H    0.225472
    34  C    0.084253
    35  C    0.314236
    36  C   -0.279250
    37  H    0.159245
    38  N   -0.686703
    39  H    0.343680
    40  C   -0.151669
    41  H    0.148350
    42  C   -0.157633
    43  H    0.149744
    44  C   -0.198696
    45  H    0.142275
    46  N   -0.596667
    47  H    0.358400
    48  C   -0.092227
    49  H    0.201324
    50  C    0.649226
    51  C   -0.055316
    52  H    0.153791
    53  H    0.155654
    54  O   -0.539451
    55  O   -0.622592
    56  H    0.415063
    57  N   -0.616410
    58  H    0.358991
    59  C   -0.039990
    60  H    0.184932
    61  C    0.616514
    62  C   -0.452281
    63  H    0.166730
    64  H    0.164901
    65  H    0.170794
    66  O   -0.548802
    67  N   -0.628251
    68  H    0.361768
    69  C   -0.041948
    70  H    0.190772
    71  C    0.582560
    72  C   -0.286869
    73  H    0.175604
    74  H    0.138955
    75  O   -0.614564
    76  C   -0.277386
    77  H    0.142303
    78  H    0.165444
    79  C   -0.272450
    80  H    0.141578
    81  H    0.154207
    82  C   -0.144864
    83  H    0.162150
    84  H    0.146528
    85  N   -0.767504
    86  H    0.338240
    87  H    0.326106
    88  H    0.482725
    89  O   -0.476328
 Sum of Mulliken charges =   1.00000

 Dipole moment (field-independent basis, Debye):
    X=             -7.2411    Y=              5.4597    Z=              7.9734  Tot=             12.0755
 Quadrupole moment (field-independent basis, Debye-Ang):
   XX=           -105.4549   YY=           -116.6619   ZZ=           -205.3644
   XY=           -133.3913   XZ=            -69.3868   YZ=             59.6062

 Normal termination of Gaussian 16 at Tue Jun 28 00:56:31 2022.
