 Gaussian 16, Revision C.01,
 Gaussian 16:  ES64L-G16RevC.01  3-Jul-2019

 -------------------------------------------------------------------
 # B3LYP/6-31G* guess=read geom=check nosymm integral(ultrafinegrid)
 -------------------------------------------------------------------

 ------------------------------------------------------
 Candidate Structure: Conf:727 Charge calc in gas phase
 ------------------------------------------------------
 Structure from the checkpoint file:  "conf-727.chk"
 Charge =  1 Multiplicity = 1

                          Input orientation:
 ---------------------------------------------------------------------
 Center     Atomic      Atomic             Coordinates (Angstroms)
 Number     Number       Type             X           Y           Z
 ---------------------------------------------------------------------
      1          7           0       -5.625524    1.659180    2.550460
      2          1           0       -5.660613    2.046466    1.578147
      3          1           0       -5.860703    0.648214    2.460538
      4          1           0       -6.289862    2.146555    3.157239
      5          6           0       -4.210442    1.654531    3.099605
      6          1           0       -3.754634    2.608844    2.830063
      7          6           0       -3.593492    0.473547    2.314098
      8          6           0       -4.214591    1.421016    4.615360
      9          1           0       -4.685496    0.448128    4.808841
     10          1           0       -3.164866    1.315545    4.919230
     11          8           0       -4.330555   -0.492894    2.093126
     12          6           0       -4.875534    2.518459    5.479175
     13          1           0       -5.928587    2.636888    5.166417
     14          6           0       -4.899955    2.063441    6.946987
     15          1           0       -3.880881    1.936025    7.331427
     16          1           0       -5.426151    1.109759    7.065239
     17          1           0       -5.402556    2.805992    7.574687
     18          6           0       -4.180098    3.880991    5.337549
     19          1           0       -3.127266    3.813464    5.637553
     20          1           0       -4.211559    4.274133    4.313745
     21          1           0       -4.659419    4.625203    5.981387
     22          7           0       -2.337671    0.608517    1.880493
     23          1           0       -1.740040    1.388053    2.146397
     24          6           0       -1.790315   -0.203254    0.803024
     25          1           0       -2.183593   -1.217519    0.898866
     26          6           0       -0.263711   -0.142226    0.962450
     27          6           0       -2.166128    0.410965   -0.600302
     28          1           0       -1.484221    1.246192   -0.787042
     29          1           0       -1.938921   -0.334823   -1.368705
     30          8           0        0.244647    0.828370    1.520373
     31          6           0       -3.586297    0.886253   -0.700630
     32          6           0       -4.007758    2.158123   -0.444661
     33          1           0       -3.424125    3.045057   -0.233000
     34          6           0       -4.778424    0.103692   -0.986697
     35          6           0       -5.889952    0.967476   -0.868780
     36          6           0       -4.992012   -1.237001   -1.339079
     37          1           0       -4.158819   -1.928001   -1.428610
     38          7           0       -5.420679    2.230060   -0.435042
     39          1           0       -5.871360    3.068276   -0.791696
     40          6           0       -7.381774   -0.782375   -1.480918
     41          1           0       -8.384019   -1.142688   -1.692396
     42          6           0       -7.197674    0.548497   -1.111741
     43          1           0       -8.040178    1.230906   -1.033536
     44          6           0       -6.291473   -1.665274   -1.587237
     45          1           0       -6.470915   -2.697564   -1.872050
     46          7           0        0.431727   -1.179703    0.443325
     47          1           0       -0.058758   -1.845367   -0.143365
     48          6           0        1.837069   -1.032140    0.106683
     49          1           0        2.331163   -0.507199    0.929757
     50          6           0        1.963437   -0.165263   -1.182461
     51          6           0        2.450570   -2.424510   -0.049014
     52          1           0        2.413090   -2.942603    0.920161
     53          1           0        3.503141   -2.340993   -0.352480
     54          8           0        0.969702    0.242694   -1.778979
     55          8           0        1.673939   -3.101304   -1.030854
     56          1           0        2.011786   -4.004267   -1.127520
     57          7           0        3.230475    0.106042   -1.554816
     58          1           0        4.040507   -0.282160   -1.077853
     59          6           0        3.574273    0.830638   -2.767903
     60          1           0        2.939119    0.465834   -3.584615
     61          6           0        5.047547    0.476676   -3.059184
     62          6           0        3.367427    2.348275   -2.614709
     63          1           0        3.602862    2.875782   -3.545037
     64          1           0        4.007787    2.744532   -1.820042
     65          1           0        2.322538    2.543306   -2.360694
     66          8           0        5.734387   -0.109666   -2.219008
     67          7           0        5.514845    0.869477   -4.261006
     68          1           0        4.921672    1.345468   -4.932444
     69          6           0        6.901582    0.708806   -4.674502
     70          1           0        7.551102    0.874565   -3.811973
     71          6           0        7.197376    1.749115   -5.744790
     72          6           0        7.170108   -0.721341   -5.248930
     73          1           0        7.224686   -1.392779   -4.386170
     74          1           0        6.283148   -1.017229   -5.823121
     75          8           0        8.487660    2.048642   -5.796515
     76          6           0        8.429744   -0.870896   -6.133306
     77          1           0        9.229307   -0.238251   -5.736225
     78          1           0        8.787551   -1.903582   -6.049303
     79          6           0        8.186092   -0.555263   -7.637797
     80          1           0        7.265328    0.028466   -7.760899
     81          1           0        8.000671   -1.499338   -8.163622
     82          6           0        9.322234    0.185532   -8.373131
     83          1           0       10.290658   -0.054039   -7.920306
     84          1           0        9.366420   -0.150416   -9.418439
     85          7           0        9.156695    1.662849   -8.311602
     86          1           0        9.968115    2.125028   -8.720499
     87          1           0        8.351377    1.939976   -8.873717
     88          1           0        8.769209    2.165160   -6.781059
     89          8           0        6.339173    2.152472   -6.515587
 ---------------------------------------------------------------------

 SCF Done:  E(RB3LYP) =  -2042.49655489     A.U. after    2 cycles

 Alpha  occ. eigenvalues --  -19.24247 -19.23070 -19.21030 -19.20547 -19.18137
 Alpha  occ. eigenvalues --  -19.17932 -19.17769 -14.57713 -14.48597 -14.47646
 Alpha  occ. eigenvalues --  -14.44223 -14.41846 -14.41806 -14.40487 -10.41502
 Alpha  occ. eigenvalues --  -10.38785 -10.37648 -10.35972 -10.35185 -10.34840
 Alpha  occ. eigenvalues --  -10.33543 -10.31969 -10.31920 -10.31911 -10.31682
 Alpha  occ. eigenvalues --  -10.31316 -10.30981 -10.29635 -10.28939 -10.28819
 Alpha  occ. eigenvalues --  -10.28493 -10.28285 -10.28243 -10.28176 -10.27597
 Alpha  occ. eigenvalues --  -10.27583 -10.27518 -10.27387 -10.26997 -10.24122
 Alpha  occ. eigenvalues --  -10.24003 -10.23910 -10.23435  -1.16958  -1.13320
 Alpha  occ. eigenvalues --   -1.12734  -1.11730  -1.10544  -1.09903  -1.09154
 Alpha  occ. eigenvalues --   -1.07456  -1.04924  -1.04293  -1.00828  -0.98636
 Alpha  occ. eigenvalues --   -0.98217  -0.95880  -0.93685  -0.93222  -0.90380
 Alpha  occ. eigenvalues --   -0.88222  -0.86214  -0.85391  -0.84087  -0.82723
 Alpha  occ. eigenvalues --   -0.82181  -0.81300  -0.79731  -0.79180  -0.78187
 Alpha  occ. eigenvalues --   -0.75980  -0.75019  -0.72893  -0.72197  -0.71416
 Alpha  occ. eigenvalues --   -0.71259  -0.70476  -0.69755  -0.68547  -0.68199
 Alpha  occ. eigenvalues --   -0.68118  -0.67662  -0.66159  -0.65837  -0.64658
 Alpha  occ. eigenvalues --   -0.63863  -0.63690  -0.62732  -0.62432  -0.61450
 Alpha  occ. eigenvalues --   -0.60989  -0.59627  -0.58273  -0.58201  -0.57520
 Alpha  occ. eigenvalues --   -0.57043  -0.56632  -0.56289  -0.56123  -0.55941
 Alpha  occ. eigenvalues --   -0.54676  -0.54395  -0.54302  -0.54078  -0.53377
 Alpha  occ. eigenvalues --   -0.53125  -0.52643  -0.52345  -0.51832  -0.51641
 Alpha  occ. eigenvalues --   -0.51280  -0.50903  -0.50833  -0.50699  -0.50442
 Alpha  occ. eigenvalues --   -0.49919  -0.49527  -0.49128  -0.48966  -0.48686
 Alpha  occ. eigenvalues --   -0.48448  -0.48186  -0.48009  -0.47569  -0.47186
 Alpha  occ. eigenvalues --   -0.46613  -0.46528  -0.46286  -0.45905  -0.45370
 Alpha  occ. eigenvalues --   -0.45262  -0.44316  -0.44129  -0.44084  -0.44053
 Alpha  occ. eigenvalues --   -0.43845  -0.43054  -0.42884  -0.42809  -0.42415
 Alpha  occ. eigenvalues --   -0.42172  -0.41700  -0.41102  -0.40767  -0.38885
 Alpha  occ. eigenvalues --   -0.38849  -0.38492  -0.38224  -0.38079  -0.36376
 Alpha  occ. eigenvalues --   -0.35694  -0.34882  -0.34640  -0.34162  -0.32793
 Alpha  occ. eigenvalues --   -0.32351  -0.32223  -0.32076  -0.31698  -0.31197
 Alpha  occ. eigenvalues --   -0.30709  -0.30370
 Alpha virt. eigenvalues --   -0.11270  -0.10897  -0.08437  -0.07787  -0.06818
 Alpha virt. eigenvalues --   -0.04447  -0.04065  -0.03973  -0.03548  -0.02870
 Alpha virt. eigenvalues --   -0.02460  -0.01217  -0.00913  -0.00682  -0.00382

 Mulliken charges:
               1
     1  N   -0.769616
     2  H    0.436038
     3  H    0.421698
     4  H    0.400179
     5  C   -0.120392
     6  H    0.193434
     7  C    0.663408
     8  C   -0.277153
     9  H    0.177160
    10  H    0.186681
    11  O   -0.534878
    12  C   -0.100865
    13  H    0.110357
    14  C   -0.447410
    15  H    0.164574
    16  H    0.159187
    17  H    0.170740
    18  C   -0.453660
    19  H    0.167569
    20  H    0.132246
    21  H    0.178675
    22  N   -0.602191
    23  H    0.359407
    24  C   -0.077007
    25  H    0.193400
    26  C    0.648557
    27  C   -0.366040
    28  H    0.196689
    29  H    0.187953
    30  O   -0.537901
    31  C    0.112529
    32  C   -0.081961
    33  H    0.162944
    34  C    0.139166
    35  C    0.224489
    36  C   -0.192868
    37  H    0.141034
    38  N   -0.716130
    39  H    0.352331
    40  C   -0.143849
    41  H    0.152437
    42  C   -0.182426
    43  H    0.139245
    44  C   -0.133026
    45  H    0.150992
    46  N   -0.588663
    47  H    0.355008
    48  C   -0.099675
    49  H    0.201541
    50  C    0.649150
    51  C   -0.051955
    52  H    0.152805
    53  H    0.155970
    54  O   -0.543356
    55  O   -0.624870
    56  H    0.413533
    57  N   -0.621184
    58  H    0.358011
    59  C   -0.036948
    60  H    0.177668
    61  C    0.619547
    62  C   -0.447929
    63  H    0.155249
    64  H    0.163164
    65  H    0.181753
    66  O   -0.545457
    67  N   -0.621240
    68  H    0.350194
    69  C   -0.006913
    70  H    0.189890
    71  C    0.574408
    72  C   -0.280325
    73  H    0.170218
    74  H    0.145842
    75  O   -0.601038
    76  C   -0.283632
    77  H    0.169999
    78  H    0.145414
    79  C   -0.290183
    80  H    0.160597
    81  H    0.150240
    82  C   -0.143416
    83  H    0.164567
    84  H    0.147747
    85  N   -0.775257
    86  H    0.332974
    87  H    0.338642
    88  H    0.457069
    89  O   -0.504907
 Sum of Mulliken charges =   1.00000

 Dipole moment (field-independent basis, Debye):
    X=            -11.7094    Y=              4.9531    Z=              1.6566  Tot=             12.8214
 Quadrupole moment (field-independent basis, Debye-Ang):
   XX=            -54.3352   YY=           -211.8354   ZZ=           -136.0632
   XY=            -53.0728   XZ=           -124.3575   YZ=             23.6124

 Normal termination of Gaussian 16 at Tue Jun 28 01:16:20 2022.
