 Gaussian 16, Revision C.01,
 Gaussian 16:  ES64L-G16RevC.01  3-Jul-2019

 -------------------------------------------------------------------
 # B3LYP/6-31G* guess=read geom=check nosymm integral(ultrafinegrid)
 -------------------------------------------------------------------

 ------------------------------------------------------
 Candidate Structure: Conf:428 Charge calc in gas phase
 ------------------------------------------------------
 Structure from the checkpoint file:  "conf-428.chk"
 Charge =  1 Multiplicity = 1

                          Input orientation:
 ---------------------------------------------------------------------
 Center     Atomic      Atomic             Coordinates (Angstroms)
 Number     Number       Type             X           Y           Z
 ---------------------------------------------------------------------
      1          7           0       -5.584060   -0.144843    3.202155
      2          1           0       -6.233379    0.639346    3.315304
      3          1           0       -5.702952   -0.536219    2.218273
      4          1           0       -5.786868   -0.848422    3.917610
      5          6           0       -4.126817    0.286247    3.180803
      6          1           0       -4.056886    1.262442    3.663446
      7          6           0       -3.853065    0.374687    1.652821
      8          6           0       -3.276535   -0.772014    3.909088
      9          1           0       -3.701021   -0.908360    4.915157
     10          1           0       -3.388293   -1.725720    3.375649
     11          8           0       -4.631091   -0.239799    0.908801
     12          6           0       -1.773261   -0.444444    4.064879
     13          1           0       -1.333900   -0.323380    3.066541
     14          6           0       -1.533385    0.846670    4.863542
     15          1           0       -1.971722    0.779353    5.867370
     16          1           0       -1.947249    1.739745    4.377403
     17          1           0       -0.460245    1.023799    4.981931
     18          6           0       -1.072986   -1.636435    4.736474
     19          1           0       -1.459743   -1.805910    5.749040
     20          1           0       -1.209158   -2.560137    4.162717
     21          1           0        0.002119   -1.449358    4.818988
     22          7           0       -2.810975    1.101917    1.262763
     23          1           0       -2.117842    1.433071    1.931240
     24          6           0       -2.378066    1.233176   -0.124817
     25          1           0       -2.820941    0.412676   -0.694856
     26          6           0       -0.839855    1.130417   -0.088343
     27          6           0       -2.809069    2.603037   -0.736386
     28          1           0       -2.229811    3.390554   -0.238672
     29          1           0       -2.489715    2.602716   -1.786851
     30          8           0       -0.234780    1.270086    0.978546
     31          6           0       -4.271077    2.915208   -0.632068
     32          6           0       -4.820788    3.906252    0.144816
     33          1           0       -4.331110    4.624907    0.789063
     34          6           0       -5.368327    2.289704   -1.335587
     35          6           0       -6.555982    2.956390   -0.930898
     36          6           0       -5.464870    1.249196   -2.276743
     37          1           0       -4.577595    0.721991   -2.617929
     38          7           0       -6.193625    3.920989   -0.005394
     39          1           0       -6.797095    4.662518    0.317800
     40          6           0       -7.876337    1.588764   -2.367441
     41          1           0       -8.836987    1.306549   -2.788173
     42          6           0       -7.815755    2.618680   -1.436297
     43          1           0       -8.711982    3.148194   -1.124049
     44          6           0       -6.712313    0.910350   -2.783337
     45          1           0       -6.795777    0.114749   -3.517829
     46          7           0       -0.241302    0.939135   -1.278407
     47          1           0       -0.770491    0.877588   -2.146063
     48          6           0        1.194462    1.033247   -1.490334
     49          1           0        1.626652    1.731283   -0.767056
     50          6           0        1.376266    1.490636   -2.948140
     51          6           0        1.859926   -0.359453   -1.312667
     52          1           0        1.406425   -1.046747   -2.043213
     53          1           0        1.630489   -0.720446   -0.306649
     54          8           0        0.520064    1.197250   -3.781153
     55          8           0        3.275897   -0.325569   -1.423465
     56          1           0        3.552628    0.117763   -2.266317
     57          7           0        2.533247    2.136924   -3.223377
     58          1           0        3.192039    2.268067   -2.465156
     59          6           0        3.097812    2.204720   -4.569179
     60          1           0        2.279292    1.982005   -5.257630
     61          6           0        4.192731    1.114625   -4.713123
     62          6           0        3.669513    3.597843   -4.872815
     63          1           0        4.079719    3.626854   -5.886545
     64          1           0        4.475070    3.852347   -4.173628
     65          1           0        2.883089    4.353410   -4.788918
     66          8           0        4.612131    0.544314   -3.654622
     67          7           0        4.590187    0.916145   -5.953048
     68          1           0        4.241650    1.532245   -6.753007
     69          6           0        5.801977    0.332136   -6.568252
     70          1           0        6.677561    0.650766   -5.987833
     71          6           0        5.865497    1.023178   -8.001216
     72          6           0        5.818021   -1.205823   -6.668424
     73          1           0        5.040991   -1.556830   -7.357699
     74          1           0        6.786216   -1.486443   -7.092394
     75          8           0        6.792135    0.642686   -8.720072
     76          6           0        5.586305   -1.719816   -5.252630
     77          1           0        6.265634   -1.126137   -4.629360
     78          1           0        4.572250   -1.391243   -5.001411
     79          6           0        5.698667   -3.167233   -4.765889
     80          1           0        6.742696   -3.488528   -4.670360
     81          1           0        5.203374   -3.881167   -5.434105
     82          6           0        4.970071   -3.238755   -3.406602
     83          1           0        3.888124   -3.237211   -3.560704
     84          1           0        5.235393   -4.111153   -2.804761
     85          7           0        5.241814   -2.004585   -2.552318
     86          1           0        4.533976   -1.849423   -1.811686
     87          1           0        6.172119   -2.031762   -2.125656
     88          1           0        5.177437   -1.122349   -3.122576
     89          8           0        4.933265    1.864824   -8.191301
 ---------------------------------------------------------------------

 SCF Done:  E(RB3LYP) =  -2042.43373756     A.U. after    2 cycles

 Alpha  occ. eigenvalues --  -19.27265 -19.24823 -19.23093 -19.21200 -19.20480
 Alpha  occ. eigenvalues --  -19.09121 -19.07501 -14.60661 -14.54592 -14.50165
 Alpha  occ. eigenvalues --  -14.46939 -14.46539 -14.45238 -14.40425 -10.44141
 Alpha  occ. eigenvalues --  -10.41370 -10.40196 -10.38317 -10.36069 -10.35517
 Alpha  occ. eigenvalues --  -10.35314 -10.34262 -10.33798 -10.33530 -10.31852
 Alpha  occ. eigenvalues --  -10.30838 -10.30781 -10.30175 -10.30078 -10.29199
 Alpha  occ. eigenvalues --  -10.28613 -10.28404 -10.27334 -10.26734 -10.26683
 Alpha  occ. eigenvalues --  -10.26670 -10.26502 -10.26116 -10.25694 -10.25616
 Alpha  occ. eigenvalues --  -10.25061 -10.24632 -10.23109  -1.19869  -1.15130
 Alpha  occ. eigenvalues --   -1.14330  -1.13317  -1.11851  -1.10134  -1.09222
 Alpha  occ. eigenvalues --   -1.06827  -1.06330  -1.03367  -1.02170  -1.01512
 Alpha  occ. eigenvalues --   -0.97262  -0.95540  -0.93307  -0.91919  -0.91054
 Alpha  occ. eigenvalues --   -0.89213  -0.88915  -0.87394  -0.85385  -0.84055
 Alpha  occ. eigenvalues --   -0.82333  -0.81503  -0.81248  -0.80250  -0.79481
 Alpha  occ. eigenvalues --   -0.77048  -0.76986  -0.75745  -0.74490  -0.73810
 Alpha  occ. eigenvalues --   -0.72928  -0.72112  -0.70916  -0.70263  -0.69681
 Alpha  occ. eigenvalues --   -0.69043  -0.68703  -0.67677  -0.67487  -0.67360
 Alpha  occ. eigenvalues --   -0.66863  -0.64546  -0.64200  -0.63807  -0.62917
 Alpha  occ. eigenvalues --   -0.62388  -0.62027  -0.60598  -0.60543  -0.59963
 Alpha  occ. eigenvalues --   -0.59132  -0.58768  -0.57612  -0.57489  -0.56904
 Alpha  occ. eigenvalues --   -0.56657  -0.56429  -0.55747  -0.55412  -0.54940
 Alpha  occ. eigenvalues --   -0.54724  -0.54419  -0.53446  -0.53113  -0.52757
 Alpha  occ. eigenvalues --   -0.52358  -0.51706  -0.51494  -0.51239  -0.51167
 Alpha  occ. eigenvalues --   -0.50817  -0.50563  -0.50517  -0.50022  -0.49948
 Alpha  occ. eigenvalues --   -0.49758  -0.49208  -0.49011  -0.48755  -0.48512
 Alpha  occ. eigenvalues --   -0.48015  -0.47626  -0.46822  -0.46159  -0.45950
 Alpha  occ. eigenvalues --   -0.45657  -0.45151  -0.45034  -0.44920  -0.44598
 Alpha  occ. eigenvalues --   -0.44377  -0.43632  -0.43188  -0.43137  -0.42529
 Alpha  occ. eigenvalues --   -0.41940  -0.41490  -0.41186  -0.40491  -0.39857
 Alpha  occ. eigenvalues --   -0.39421  -0.38787  -0.38622  -0.37943  -0.37340
 Alpha  occ. eigenvalues --   -0.36395  -0.36237  -0.35381  -0.35080  -0.34891
 Alpha  occ. eigenvalues --   -0.33875  -0.32041  -0.30348  -0.28784  -0.24284
 Alpha  occ. eigenvalues --   -0.23821  -0.21732
 Alpha virt. eigenvalues --   -0.12995  -0.11569  -0.09460  -0.08692  -0.07508
 Alpha virt. eigenvalues --   -0.07085  -0.06318  -0.05821  -0.05323  -0.05270
 Alpha virt. eigenvalues --   -0.03257  -0.02355  -0.01566  -0.01220  -0.01029

 Mulliken charges:
               1
     1  N   -0.755048
     2  H    0.417774
     3  H    0.436315
     4  H    0.411563
     5  C   -0.118051
     6  H    0.212102
     7  C    0.656230
     8  C   -0.285243
     9  H    0.161035
    10  H    0.175035
    11  O   -0.531109
    12  C   -0.108171
    13  H    0.164938
    14  C   -0.460660
    15  H    0.157947
    16  H    0.133796
    17  H    0.187526
    18  C   -0.451661
    19  H    0.156889
    20  H    0.156218
    21  H    0.174068
    22  N   -0.589151
    23  H    0.375313
    24  C   -0.087860
    25  H    0.203308
    26  C    0.636916
    27  C   -0.368744
    28  H    0.162428
    29  H    0.180755
    30  O   -0.545763
    31  C    0.078138
    32  C   -0.022553
    33  H    0.154862
    34  C    0.096300
    35  C    0.294131
    36  C   -0.200006
    37  H    0.119764
    38  N   -0.688302
    39  H    0.338525
    40  C   -0.150643
    41  H    0.143716
    42  C   -0.167576
    43  H    0.136097
    44  C   -0.139235
    45  H    0.139664
    46  N   -0.615911
    47  H    0.366284
    48  C   -0.073979
    49  H    0.187822
    50  C    0.588893
    51  C   -0.025368
    52  H    0.142510
    53  H    0.171482
    54  O   -0.523331
    55  O   -0.694172
    56  H    0.437891
    57  N   -0.578630
    58  H    0.338147
    59  C   -0.087922
    60  H    0.214322
    61  C    0.625682
    62  C   -0.463734
    63  H    0.214989
    64  H    0.152490
    65  H    0.170107
    66  O   -0.634570
    67  N   -0.596188
    68  H    0.390947
    69  C   -0.092971
    70  H    0.153799
    71  C    0.605791
    72  C   -0.260154
    73  H    0.153769
    74  H    0.181352
    75  O   -0.560558
    76  C   -0.295933
    77  H    0.134314
    78  H    0.145276
    79  C   -0.268627
    80  H    0.167356
    81  H    0.182629
    82  C   -0.191834
    83  H    0.202371
    84  H    0.194540
    85  N   -0.791710
    86  H    0.414640
    87  H    0.395006
    88  H    0.449208
    89  O   -0.617602
 Sum of Mulliken charges =   1.00000

 Dipole moment (field-independent basis, Debye):
    X=            -18.7405    Y=             -4.9246    Z=             24.5561  Tot=             31.2803
 Quadrupole moment (field-independent basis, Debye-Ang):
   XX=           -131.4461   YY=           -207.7993   ZZ=           -356.3038
   XY=            -68.4921   XZ=             10.6786   YZ=             44.7062

 Normal termination of Gaussian 16 at Tue Jun 28 00:56:45 2022.
