 Gaussian 16, Revision C.01,
 Gaussian 16:  ES64L-G16RevC.01  3-Jul-2019

 -------------------------------------------------------------------
 # B3LYP/6-31G* guess=read geom=check nosymm integral(ultrafinegrid)
 -------------------------------------------------------------------

 ------------------------------------------------------
 Candidate Structure: Conf:669 Charge calc in gas phase
 ------------------------------------------------------
 Structure from the checkpoint file:  "conf-669.chk"
 Charge =  1 Multiplicity = 1

                          Input orientation:
 ---------------------------------------------------------------------
 Center     Atomic      Atomic             Coordinates (Angstroms)
 Number     Number       Type             X           Y           Z
 ---------------------------------------------------------------------
      1          7           0       -2.623824   -1.115811    3.066298
      2          1           0       -2.482026   -1.358509    4.049406
      3          1           0       -2.891246   -1.942897    2.511657
      4          1           0       -1.718077   -0.768847    2.627419
      5          6           0       -3.735320   -0.099937    2.863970
      6          1           0       -4.634381   -0.545325    3.300565
      7          6           0       -3.866466   -0.115016    1.317364
      8          6           0       -3.396396    1.235483    3.527463
      9          1           0       -2.532857    1.678365    3.013857
     10          1           0       -4.245602    1.910265    3.351532
     11          8           0       -3.686339   -1.195139    0.749562
     12          6           0       -3.131381    1.190573    5.050466
     13          1           0       -2.255248    0.546897    5.235531
     14          6           0       -2.760152    2.598425    5.541258
     15          1           0       -3.595297    3.294423    5.395914
     16          1           0       -1.891634    2.995642    5.004275
     17          1           0       -2.518417    2.585628    6.608711
     18          6           0       -4.322466    0.630844    5.844072
     19          1           0       -5.222877    1.233965    5.675136
     20          1           0       -4.566023   -0.407519    5.583875
     21          1           0       -4.109503    0.648760    6.917589
     22          7           0       -4.057660    1.053385    0.679510
     23          1           0       -4.155739    1.901853    1.223992
     24          6           0       -3.552191    1.225351   -0.697013
     25          1           0       -4.002845    0.449678   -1.320515
     26          6           0       -2.029288    1.025823   -0.546102
     27          6           0       -3.887453    2.634803   -1.240761
     28          1           0       -3.161169    3.338388   -0.818412
     29          1           0       -3.709077    2.615396   -2.321667
     30          8           0       -1.385326    1.803383    0.181927
     31          6           0       -5.282125    3.093328   -0.929158
     32          6           0       -6.426767    2.880911   -1.659327
     33          1           0       -6.556063    2.392773   -2.616068
     34          6           0       -5.683343    3.808892    0.258167
     35          6           0       -7.092680    3.985643    0.187025
     36          6           0       -4.988929    4.324844    1.370289
     37          1           0       -3.903365    4.258927    1.428307
     38          7           0       -7.513124    3.408121   -0.993478
     39          1           0       -8.458205    3.420642   -1.346228
     40          6           0       -7.103528    5.127136    2.281635
     41          1           0       -7.634828    5.646155    3.073826
     42          6           0       -7.814073    4.641900    1.189523
     43          1           0       -8.890264    4.773003    1.118251
     44          6           0       -5.704567    4.974054    2.370896
     45          1           0       -5.178016    5.393743    3.223617
     46          7           0       -1.488178   -0.064149   -1.105681
     47          1           0       -2.036778   -0.742255   -1.630028
     48          6           0       -0.113240   -0.472122   -0.855857
     49          1           0        0.536101    0.406544   -0.934063
     50          6           0        0.232289   -1.517995   -1.941274
     51          6           0        0.050510   -1.114040    0.540789
     52          1           0        1.108219   -1.349556    0.708960
     53          1           0       -0.522095   -2.047933    0.572040
     54          8           0       -0.675502   -2.136805   -2.497354
     55          8           0       -0.423423   -0.275619    1.610415
     56          1           0       -0.520177    0.642420    1.260082
     57          7           0        1.541974   -1.696810   -2.170728
     58          1           0        2.266914   -1.183928   -1.670289
     59          6           0        2.080517   -2.691095   -3.090773
     60          1           0        1.580324   -3.649334   -2.905171
     61          6           0        3.577615   -2.806337   -2.726375
     62          6           0        1.872104   -2.291198   -4.562224
     63          1           0        2.262274   -3.059706   -5.237162
     64          1           0        2.383331   -1.348067   -4.780404
     65          1           0        0.803811   -2.172980   -4.759409
     66          8           0        4.093649   -2.004149   -1.943201
     67          7           0        4.246871   -3.810700   -3.321658
     68          1           0        3.810660   -4.390307   -4.033067
     69          6           0        5.693667   -3.969162   -3.232667
     70          1           0        6.165571   -2.982644   -3.295759
     71          6           0        6.116775   -4.832915   -4.413155
     72          6           0        6.157559   -4.634181   -1.907860
     73          1           0        7.235344   -4.463426   -1.813384
     74          1           0        5.678459   -4.065394   -1.104223
     75          8           0        7.427183   -4.984707   -4.483600
     76          6           0        5.854266   -6.141728   -1.725768
     77          1           0        5.759602   -6.308556   -0.646700
     78          1           0        4.864842   -6.377793   -2.141151
     79          6           0        6.914533   -7.155001   -2.258084
     80          1           0        7.060462   -7.916139   -1.483884
     81          1           0        7.880257   -6.644644   -2.356344
     82          6           0        6.598825   -7.894160   -3.587688
     83          1           0        6.555607   -8.976617   -3.407276
     84          1           0        5.622879   -7.594016   -3.975645
     85          7           0        7.585504   -7.585958   -4.658904
     86          1           0        7.301746   -8.035591   -5.528787
     87          1           0        7.603074   -5.952507   -4.811266
     88          1           0        8.499198   -7.969629   -4.416602
     89          8           0        5.298034   -5.406030   -5.119943
 ---------------------------------------------------------------------

 SCF Done:  E(RB3LYP) =  -2042.51029327     A.U. after    1 cycles

 Alpha  occ. eigenvalues --  -19.26971 -19.24811 -19.22718 -19.21968 -19.20896
 Alpha  occ. eigenvalues --  -19.19388 -19.19301 -14.57031 -14.48239 -14.46966
 Alpha  occ. eigenvalues --  -14.46032 -14.44685 -14.42923 -14.41144 -10.41994
 Alpha  occ. eigenvalues --  -10.39789 -10.38775 -10.38320 -10.37058 -10.36360
 Alpha  occ. eigenvalues --  -10.34951 -10.34518 -10.34116 -10.31801 -10.31551
 Alpha  occ. eigenvalues --  -10.31098 -10.30172 -10.29852 -10.29620 -10.29020
 Alpha  occ. eigenvalues --  -10.28247 -10.27846 -10.27292 -10.26844 -10.26735
 Alpha  occ. eigenvalues --  -10.26667 -10.26625 -10.26173 -10.26117 -10.25493
 Alpha  occ. eigenvalues --  -10.24816 -10.24777 -10.24750  -1.17417  -1.15134
 Alpha  occ. eigenvalues --   -1.14525  -1.13034  -1.12864  -1.11178  -1.11103
 Alpha  occ. eigenvalues --   -1.05999  -1.05957  -1.04830  -1.03160  -1.01274
 Alpha  occ. eigenvalues --   -0.99530  -0.96425  -0.93643  -0.91825  -0.90152
 Alpha  occ. eigenvalues --   -0.88001  -0.87447  -0.86228  -0.84718  -0.83660
 Alpha  occ. eigenvalues --   -0.81465  -0.80915  -0.80054  -0.79200  -0.78040
 Alpha  occ. eigenvalues --   -0.77322  -0.75794  -0.75056  -0.73324  -0.72059
 Alpha  occ. eigenvalues --   -0.71435  -0.70183  -0.69695  -0.69377  -0.68903
 Alpha  occ. eigenvalues --   -0.68051  -0.67712  -0.67056  -0.66009  -0.65531
 Alpha  occ. eigenvalues --   -0.65373  -0.63979  -0.62895  -0.62858  -0.61973
 Alpha  occ. eigenvalues --   -0.61828  -0.60999  -0.60531  -0.59312  -0.58351
 Alpha  occ. eigenvalues --   -0.57597  -0.56983  -0.56682  -0.56392  -0.55973
 Alpha  occ. eigenvalues --   -0.55849  -0.55309  -0.54983  -0.54331  -0.53775
 Alpha  occ. eigenvalues --   -0.53425  -0.53337  -0.53064  -0.52931  -0.52275
 Alpha  occ. eigenvalues --   -0.52110  -0.51908  -0.51848  -0.51212  -0.50870
 Alpha  occ. eigenvalues --   -0.50615  -0.50356  -0.50200  -0.49593  -0.49158
 Alpha  occ. eigenvalues --   -0.49115  -0.48871  -0.48599  -0.48305  -0.48205
 Alpha  occ. eigenvalues --   -0.47690  -0.47386  -0.47197  -0.46742  -0.46492
 Alpha  occ. eigenvalues --   -0.46179  -0.45408  -0.45204  -0.44830  -0.44761
 Alpha  occ. eigenvalues --   -0.44016  -0.43948  -0.43915  -0.43232  -0.43182
 Alpha  occ. eigenvalues --   -0.42874  -0.41952  -0.41536  -0.41234  -0.39942
 Alpha  occ. eigenvalues --   -0.39404  -0.39302  -0.39153  -0.38673  -0.38646
 Alpha  occ. eigenvalues --   -0.37177  -0.36040  -0.35622  -0.35417  -0.34928
 Alpha  occ. eigenvalues --   -0.34393  -0.33552  -0.33345  -0.32758  -0.32100
 Alpha  occ. eigenvalues --   -0.30241  -0.28398
 Alpha virt. eigenvalues --   -0.12575  -0.09574  -0.09214  -0.07841  -0.07130
 Alpha virt. eigenvalues --   -0.05682  -0.05231  -0.04551  -0.03164  -0.02289
 Alpha virt. eigenvalues --   -0.01758  -0.01158  -0.00243   0.00039   0.00544

 Mulliken charges:
               1
     1  N   -0.775273
     2  H    0.401698
     3  H    0.414594
     4  H    0.452297
     5  C   -0.123804
     6  H    0.222818
     7  C    0.644557
     8  C   -0.309952
     9  H    0.178204
    10  H    0.185742
    11  O   -0.533395
    12  C   -0.100779
    13  H    0.118394
    14  C   -0.449648
    15  H    0.161210
    16  H    0.159958
    17  H    0.170442
    18  C   -0.456990
    19  H    0.168914
    20  H    0.129142
    21  H    0.179298
    22  N   -0.599750
    23  H    0.373076
    24  C   -0.022482
    25  H    0.184489
    26  C    0.616777
    27  C   -0.411735
    28  H    0.194052
    29  H    0.179278
    30  O   -0.580052
    31  C    0.068006
    32  C    0.009636
    33  H    0.166571
    34  C    0.070751
    35  C    0.318281
    36  C   -0.254483
    37  H    0.136818
    38  N   -0.686865
    39  H    0.342748
    40  C   -0.152117
    41  H    0.144244
    42  C   -0.155513
    43  H    0.144616
    44  C   -0.144714
    45  H    0.134688
    46  N   -0.575570
    47  H    0.374365
    48  C   -0.119365
    49  H    0.197771
    50  C    0.625350
    51  C   -0.000565
    52  H    0.171706
    53  H    0.157719
    54  O   -0.533950
    55  O   -0.693626
    56  H    0.453041
    57  N   -0.621232
    58  H    0.362390
    59  C   -0.043006
    60  H    0.182588
    61  C    0.621932
    62  C   -0.455662
    63  H    0.166450
    64  H    0.166685
    65  H    0.190074
    66  O   -0.544826
    67  N   -0.621068
    68  H    0.357946
    69  C   -0.036633
    70  H    0.191277
    71  C    0.605393
    72  C   -0.266953
    73  H    0.164393
    74  H    0.166543
    75  O   -0.605446
    76  C   -0.286614
    77  H    0.147279
    78  H    0.142462
    79  C   -0.282613
    80  H    0.149719
    81  H    0.159453
    82  C   -0.159092
    83  H    0.148924
    84  H    0.183490
    85  N   -0.774930
    86  H    0.339004
    87  H    0.459668
    88  H    0.330420
    89  O   -0.508634
 Sum of Mulliken charges =   1.00000

 Dipole moment (field-independent basis, Debye):
    X=             -8.9740    Y=             -6.4641    Z=              5.8845  Tot=             12.5277
 Quadrupole moment (field-independent basis, Debye-Ang):
   XX=           -113.0770   YY=           -169.1539   ZZ=           -185.4995
   XY=            -91.6961   XZ=            -48.1187   YZ=             22.8934

 Normal termination of Gaussian 16 at Tue Jun 28 01:16:16 2022.
