 Gaussian 16, Revision C.01,
 Gaussian 16:  ES64L-G16RevC.01  3-Jul-2019

 -------------------------------------------------------------------
 # B3LYP/6-31G* guess=read geom=check nosymm integral(ultrafinegrid)
 -------------------------------------------------------------------

 ------------------------------------------------------
 Candidate Structure: Conf:950 Charge calc in gas phase
 ------------------------------------------------------
 Structure from the checkpoint file:  "conf-950.chk"
 Charge =  1 Multiplicity = 1

                          Input orientation:
 ---------------------------------------------------------------------
 Center     Atomic      Atomic             Coordinates (Angstroms)
 Number     Number       Type             X           Y           Z
 ---------------------------------------------------------------------
      1          7           0       -5.388682    2.317991    3.336201
      2          1           0       -5.599298    3.319423    3.299440
      3          1           0       -5.567272    1.892733    2.372862
      4          1           0       -5.976648    1.884105    4.053112
      5          6           0       -3.909281    2.019942    3.519176
      6          1           0       -3.425410    2.925100    3.890169
      7          6           0       -3.471642    1.684790    2.064466
      8          6           0       -3.747840    0.846908    4.506349
      9          1           0       -4.306834    1.101552    5.419587
     10          1           0       -4.226915   -0.038575    4.067000
     11          8           0       -4.377960    1.417815    1.253621
     12          6           0       -2.299562    0.496016    4.920087
     13          1           0       -1.731197    0.225890    4.021666
     14          6           0       -1.586660    1.668365    5.612022
     15          1           0       -2.131023    1.989928    6.509242
     16          1           0       -1.462218    2.543142    4.961159
     17          1           0       -0.582170    1.367035    5.923613
     18          6           0       -2.332148   -0.738991    5.834468
     19          1           0       -2.879378   -0.532296    6.762759
     20          1           0       -2.809162   -1.593688    5.341831
     21          1           0       -1.315220   -1.036877    6.107598
     22          7           0       -2.174462    1.702601    1.807262
     23          1           0       -1.469419    1.832326    2.539996
     24          6           0       -1.559691    1.255227    0.554343
     25          1           0       -2.061781    0.339299    0.225702
     26          6           0       -0.101418    0.932620    0.964575
     27          6           0       -1.681685    2.322557   -0.575769
     28          1           0       -2.677781    2.770708   -0.478567
     29          1           0       -0.953494    3.121636   -0.395255
     30          8           0        0.264436    1.148472    2.131099
     31          6           0       -1.524410    1.750210   -1.953337
     32          6           0       -0.454265    1.903400   -2.804828
     33          1           0        0.478710    2.427648   -2.655414
     34          6           0       -2.491377    0.933783   -2.652536
     35          6           0       -1.933721    0.627343   -3.923247
     36          6           0       -3.769812    0.441244   -2.332712
     37          1           0       -4.225704    0.666243   -1.371693
     38          7           0       -0.698448    1.243113   -3.986390
     39          1           0       -0.026972    1.135617   -4.731102
     40          6           0       -3.864861   -0.634808   -4.519172
     41          1           0       -4.415366   -1.246707   -5.227908
     42          6           0       -2.607056   -0.155960   -4.865837
     43          1           0       -2.166190   -0.380815   -5.833170
     44          6           0       -4.441042   -0.337533   -3.267156
     45          1           0       -5.428698   -0.725262   -3.033542
     46          7           0        0.698142    0.435794    0.015517
     47          1           0        0.377347    0.320963   -0.942858
     48          6           0        2.083376    0.075112    0.275363
     49          1           0        2.522428    0.824980    0.944750
     50          6           0        2.810223    0.070019   -1.077161
     51          6           0        2.189905   -1.320180    0.954811
     52          1           0        1.546759   -1.301199    1.840220
     53          1           0        3.222871   -1.468539    1.309761
     54          8           0        2.205228    0.193978   -2.137576
     55          8           0        1.756806   -2.360834    0.121901
     56          1           0        2.501211   -2.599479   -0.468358
     57          7           0        4.162503   -0.099609   -1.005721
     58          1           0        4.535988   -0.387563   -0.109160
     59          6           0        4.903181   -0.582109   -2.161638
     60          1           0        4.488606   -0.073039   -3.036363
     61          6           0        4.663464   -2.107215   -2.324755
     62          6           0        6.394244   -0.248671   -2.013628
     63          1           0        6.961055   -0.566792   -2.893050
     64          1           0        6.825449   -0.755010   -1.141828
     65          1           0        6.527187    0.829934   -1.889863
     66          8           0        4.089940   -2.771091   -1.454394
     67          7           0        5.148132   -2.648470   -3.456397
     68          1           0        5.618889   -2.084462   -4.157038
     69          6           0        5.100049   -4.072537   -3.763150
     70          1           0        5.255659   -4.639508   -2.842753
     71          6           0        6.221362   -4.373386   -4.747795
     72          6           0        3.727784   -4.480062   -4.392977
     73          1           0        3.008412   -4.516763   -3.568813
     74          1           0        3.410566   -3.661380   -5.050935
     75          8           0        6.606153   -5.638584   -4.684134
     76          6           0        3.715511   -5.809963   -5.182222
     77          1           0        4.371219   -6.532171   -4.686609
     78          1           0        2.704363   -6.229629   -5.129672
     79          6           0        4.109421   -5.659680   -6.680600
     80          1           0        4.639425   -4.712883   -6.843048
     81          1           0        3.190400   -5.580249   -7.273210
     82          6           0        4.966455   -6.794797   -7.278877
     83          1           0        4.762767   -7.739791   -6.763461
     84          1           0        4.699810   -6.942435   -8.334425
     85          7           0        6.423618   -6.522836   -7.147907
     86          1           0        6.961934   -7.332048   -7.455600
     87          1           0        6.684330   -5.750904   -7.762326
     88          1           0        6.798370   -5.985861   -5.638206
     89          8           0        6.612732   -3.544441   -5.556350
 ---------------------------------------------------------------------

 SCF Done:  E(RB3LYP) =  -2042.50459168     A.U. after    3 cycles

 Alpha  occ. eigenvalues --  -19.26376 -19.21632 -19.21166 -19.19965 -19.19142
 Alpha  occ. eigenvalues --  -19.18940 -19.18808 -14.59564 -14.48550 -14.44369
 Alpha  occ. eigenvalues --  -14.44197 -14.43699 -14.42958 -14.41069 -10.42940
 Alpha  occ. eigenvalues --  -10.40244 -10.38096 -10.36843 -10.36649 -10.36049
 Alpha  occ. eigenvalues --  -10.33532 -10.33060 -10.31041 -10.30877 -10.30504
 Alpha  occ. eigenvalues --  -10.30106 -10.29305 -10.28567 -10.28282 -10.28132
 Alpha  occ. eigenvalues --  -10.27915 -10.27798 -10.27031 -10.26035 -10.25154
 Alpha  occ. eigenvalues --  -10.24838 -10.24706 -10.24600 -10.24497 -10.24410
 Alpha  occ. eigenvalues --  -10.24165 -10.24052 -10.23844  -1.18708  -1.13972
 Alpha  occ. eigenvalues --   -1.13478  -1.12928  -1.11942  -1.10522  -1.06967
 Alpha  occ. eigenvalues --   -1.05593  -1.05247  -1.04201  -1.00891  -1.00366
 Alpha  occ. eigenvalues --   -0.99369  -0.96448  -0.94244  -0.89993  -0.89241
 Alpha  occ. eigenvalues --   -0.87500  -0.86572  -0.85246  -0.83985  -0.81953
 Alpha  occ. eigenvalues --   -0.80578  -0.79885  -0.79364  -0.78488  -0.78001
 Alpha  occ. eigenvalues --   -0.75814  -0.75574  -0.73407  -0.73131  -0.72603
 Alpha  occ. eigenvalues --   -0.72057  -0.69854  -0.68757  -0.68207  -0.68176
 Alpha  occ. eigenvalues --   -0.67137  -0.66379  -0.65511  -0.65348  -0.65239
 Alpha  occ. eigenvalues --   -0.65029  -0.63378  -0.62976  -0.62539  -0.61516
 Alpha  occ. eigenvalues --   -0.59882  -0.59498  -0.58868  -0.57700  -0.57451
 Alpha  occ. eigenvalues --   -0.56947  -0.56017  -0.55918  -0.55201  -0.55030
 Alpha  occ. eigenvalues --   -0.54810  -0.54415  -0.54219  -0.53768  -0.53482
 Alpha  occ. eigenvalues --   -0.53072  -0.52831  -0.52565  -0.52104  -0.51625
 Alpha  occ. eigenvalues --   -0.51495  -0.51066  -0.50547  -0.50121  -0.49710
 Alpha  occ. eigenvalues --   -0.49078  -0.48921  -0.48868  -0.48736  -0.48596
 Alpha  occ. eigenvalues --   -0.48439  -0.47742  -0.47403  -0.47259  -0.47149
 Alpha  occ. eigenvalues --   -0.46711  -0.46577  -0.46388  -0.45959  -0.45627
 Alpha  occ. eigenvalues --   -0.44937  -0.44602  -0.44340  -0.44161  -0.43883
 Alpha  occ. eigenvalues --   -0.43772  -0.43575  -0.42741  -0.42331  -0.41632
 Alpha  occ. eigenvalues --   -0.41277  -0.40952  -0.39636  -0.39435  -0.39179
 Alpha  occ. eigenvalues --   -0.39112  -0.38895  -0.38563  -0.38442  -0.35590
 Alpha  occ. eigenvalues --   -0.35329  -0.35175  -0.34564  -0.33799  -0.33429
 Alpha  occ. eigenvalues --   -0.33378  -0.32824  -0.32351  -0.31681  -0.31434
 Alpha  occ. eigenvalues --   -0.28215  -0.26645
 Alpha virt. eigenvalues --   -0.11816  -0.10707  -0.07210  -0.06685  -0.06144
 Alpha virt. eigenvalues --   -0.05749  -0.05310  -0.04385  -0.04180  -0.03339
 Alpha virt. eigenvalues --   -0.01460  -0.00813  -0.00103   0.00183   0.00642

 Mulliken charges:
               1
     1  N   -0.757862
     2  H    0.415010
     3  H    0.433687
     4  H    0.411249
     5  C   -0.116473
     6  H    0.212816
     7  C    0.652107
     8  C   -0.287201
     9  H    0.158681
    10  H    0.176131
    11  O   -0.544992
    12  C   -0.104234
    13  H    0.165671
    14  C   -0.459827
    15  H    0.153286
    16  H    0.139011
    17  H    0.186954
    18  C   -0.452021
    19  H    0.153420
    20  H    0.159095
    21  H    0.175614
    22  N   -0.613915
    23  H    0.388016
    24  C   -0.062532
    25  H    0.212230
    26  C    0.625311
    27  C   -0.353979
    28  H    0.172585
    29  H    0.161342
    30  O   -0.565439
    31  C    0.017726
    32  C    0.020852
    33  H    0.167023
    34  C    0.085697
    35  C    0.313323
    36  C   -0.226392
    37  H    0.138563
    38  N   -0.681086
    39  H    0.340368
    40  C   -0.148541
    41  H    0.135923
    42  C   -0.158254
    43  H    0.133831
    44  C   -0.139659
    45  H    0.126639
    46  N   -0.607186
    47  H    0.386701
    48  C   -0.069742
    49  H    0.180463
    50  C    0.606721
    51  C   -0.043339
    52  H    0.166302
    53  H    0.124563
    54  O   -0.530108
    55  O   -0.640476
    56  H    0.447245
    57  N   -0.580449
    58  H    0.335636
    59  C   -0.078319
    60  H    0.193066
    61  C    0.643205
    62  C   -0.463582
    63  H    0.173128
    64  H    0.163631
    65  H    0.178217
    66  O   -0.562091
    67  N   -0.608804
    68  H    0.352410
    69  C   -0.010410
    70  H    0.191232
    71  C    0.576408
    72  C   -0.279735
    73  H    0.171552
    74  H    0.146853
    75  O   -0.600257
    76  C   -0.284019
    77  H    0.170578
    78  H    0.147190
    79  C   -0.290730
    80  H    0.160416
    81  H    0.150632
    82  C   -0.143806
    83  H    0.165573
    84  H    0.149454
    85  N   -0.776617
    86  H    0.334947
    87  H    0.339928
    88  H    0.458585
    89  O   -0.504722
 Sum of Mulliken charges =   1.00000

 Dipole moment (field-independent basis, Debye):
    X=             -8.0304    Y=              3.4773    Z=              4.4190  Tot=              9.8034
 Quadrupole moment (field-independent basis, Debye-Ang):
   XX=           -121.1092   YY=           -188.9622   ZZ=           -117.2918
   XY=            -67.2716   XZ=           -111.8588   YZ=             82.5200

 Normal termination of Gaussian 16 at Tue Jun 28 01:16:38 2022.
