 Gaussian 16, Revision C.01,
 Gaussian 16:  ES64L-G16RevC.01  3-Jul-2019

 -------------------------------------------------------------------
 # B3LYP/6-31G* guess=read geom=check nosymm integral(ultrafinegrid)
 -------------------------------------------------------------------

 ------------------------------------------------------
 Candidate Structure: Conf:771 Charge calc in gas phase
 ------------------------------------------------------
 Structure from the checkpoint file:  "conf-771.chk"
 Charge =  1 Multiplicity = 1

                          Input orientation:
 ---------------------------------------------------------------------
 Center     Atomic      Atomic             Coordinates (Angstroms)
 Number     Number       Type             X           Y           Z
 ---------------------------------------------------------------------
      1          7           0       -5.486206   -0.649939    2.014442
      2          1           0       -5.763725   -0.094679    1.176551
      3          1           0       -5.406184   -1.635504    1.700196
      4          1           0       -6.196420   -0.557309    2.746649
      5          6           0       -4.091062   -0.282020    2.491330
      6          1           0       -4.038999    0.808141    2.507983
      7          6           0       -3.211785   -0.902977    1.387253
      8          6           0       -3.846515   -0.903699    3.873302
      9          1           0       -4.586034   -0.492623    4.576709
     10          1           0       -4.030401   -1.983107    3.792873
     11          8           0       -3.543483   -2.013803    0.957118
     12          6           0       -2.426810   -0.679954    4.442534
     13          1           0       -1.704441   -1.118381    3.741365
     14          6           0       -2.098128    0.808313    4.636723
     15          1           0       -2.812696    1.288067    5.317835
     16          1           0       -2.100712    1.376119    3.697137
     17          1           0       -1.100106    0.923781    5.070685
     18          6           0       -2.293453   -1.440920    5.770522
     19          1           0       -2.981919   -1.047450    6.528891
     20          1           0       -2.506716   -2.508652    5.643953
     21          1           0       -1.276313   -1.347289    6.163524
     22          7           0       -2.187984   -0.171527    0.935139
     23          1           0       -2.047227    0.761544    1.303058
     24          6           0       -1.485341   -0.495744   -0.315861
     25          1           0       -2.051802   -1.317856   -0.759252
     26          6           0       -0.065984   -0.997731    0.048463
     27          6           0       -1.443968    0.730086   -1.268764
     28          1           0       -0.458262    1.193389   -1.161553
     29          1           0       -1.495123    0.346106   -2.295189
     30          8           0        0.917899   -0.269145   -0.033026
     31          6           0       -2.510576    1.765636   -1.024919
     32          6           0       -2.269089    3.096510   -0.777448
     33          1           0       -1.325247    3.624625   -0.750554
     34          6           0       -3.946917    1.604787   -0.959665
     35          6           0       -4.503018    2.883138   -0.655445
     36          6           0       -4.823267    0.513525   -1.110346
     37          1           0       -4.446350   -0.467878   -1.385779
     38          7           0       -3.454555    3.768539   -0.556587
     39          1           0       -3.538659    4.764024   -0.412419
     40          6           0       -6.714905    1.984548   -0.608364
     41          1           0       -7.787497    2.112559   -0.496019
     42          6           0       -5.876806    3.085015   -0.475594
     43          1           0       -6.277169    4.068929   -0.247892
     44          6           0       -6.194753    0.707542   -0.926587
     45          1           0       -6.881824   -0.116996   -1.105028
     46          7           0       -0.031690   -2.268772    0.510885
     47          1           0       -0.907576   -2.758160    0.652452
     48          6           0        1.152524   -2.808733    1.188603
     49          1           0        1.648961   -1.965862    1.682135
     50          6           0        2.135756   -3.463893    0.184296
     51          6           0        0.724180   -3.840829    2.225047
     52          1           0        1.610217   -4.154591    2.789968
     53          1           0        0.328296   -4.728251    1.715369
     54          8           0        2.263476   -4.686129    0.131753
     55          8           0       -0.260597   -3.239760    3.073573
     56          1           0       -0.500143   -3.900361    3.740767
     57          7           0        2.816670   -2.594674   -0.591056
     58          1           0        2.674630   -1.587851   -0.518893
     59          6           0        3.781051   -3.039887   -1.585207
     60          1           0        4.377946   -3.845814   -1.142400
     61          6           0        4.678925   -1.831836   -1.903815
     62          6           0        3.098278   -3.574780   -2.858722
     63          1           0        3.839649   -3.929236   -3.582481
     64          1           0        2.502752   -2.786620   -3.331439
     65          1           0        2.445027   -4.410536   -2.594826
     66          8           0        4.317493   -0.683256   -1.649944
     67          7           0        5.852160   -2.130975   -2.505792
     68          1           0        6.124928   -3.090243   -2.690402
     69          6           0        6.784872   -1.121536   -2.981818
     70          1           0        6.219334   -0.272251   -3.371995
     71          6           0        7.622216   -1.732229   -4.094961
     72          6           0        7.727740   -0.622274   -1.836629
     73          1           0        7.128011    0.055441   -1.220834
     74          1           0        7.967587   -1.488943   -1.208034
     75          8           0        7.906923   -2.919940   -4.122422
     76          6           0        9.037923    0.065875   -2.285257
     77          1           0        8.848344    0.656579   -3.186610
     78          1           0        9.334293    0.780510   -1.508560
     79          6           0       10.218685   -0.920056   -2.522683
     80          1           0        9.841749   -1.942422   -2.649910
     81          1           0       10.832080   -0.950442   -1.614335
     82          6           0       11.146565   -0.602704   -3.713350
     83          1           0       11.180007    0.477395   -3.894776
     84          1           0       12.172020   -0.918592   -3.475463
     85          7           0       10.684043   -1.250129   -4.970092
     86          1           0       11.267908   -0.956333   -5.752337
     87          1           0       10.791299   -2.261959   -4.891905
     88          1           0        9.045303   -1.055833   -5.199003
     89          8           0        8.084458   -0.808035   -4.928108
 ---------------------------------------------------------------------

 SCF Done:  E(RB3LYP) =  -2042.49063469     A.U. after    2 cycles

 Alpha  occ. eigenvalues --  -19.26100 -19.23400 -19.20890 -19.20590 -19.17617
 Alpha  occ. eigenvalues --  -19.17040 -19.16536 -14.59866 -14.49965 -14.48617
 Alpha  occ. eigenvalues --  -14.44980 -14.40862 -14.40811 -14.40027 -10.43221
 Alpha  occ. eigenvalues --  -10.40273 -10.37894 -10.35441 -10.34432 -10.34396
 Alpha  occ. eigenvalues --  -10.33749 -10.33030 -10.32867 -10.32465 -10.31123
 Alpha  occ. eigenvalues --  -10.30733 -10.30477 -10.30187 -10.29963 -10.29759
 Alpha  occ. eigenvalues --  -10.29708 -10.29597 -10.29154 -10.29011 -10.28597
 Alpha  occ. eigenvalues --  -10.28309 -10.27853 -10.27344 -10.27197 -10.23560
 Alpha  occ. eigenvalues --  -10.23485 -10.23264 -10.23009  -1.18627  -1.13799
 Alpha  occ. eigenvalues --   -1.12830  -1.12779  -1.10345  -1.09058  -1.08649
 Alpha  occ. eigenvalues --   -1.08234  -1.06311  -1.04405  -1.01048  -0.97507
 Alpha  occ. eigenvalues --   -0.97284  -0.95445  -0.95045  -0.94444  -0.91079
 Alpha  occ. eigenvalues --   -0.88681  -0.86637  -0.85034  -0.84674  -0.84210
 Alpha  occ. eigenvalues --   -0.82695  -0.81785  -0.79972  -0.79210  -0.78554
 Alpha  occ. eigenvalues --   -0.76385  -0.74489  -0.73950  -0.73183  -0.73083
 Alpha  occ. eigenvalues --   -0.72331  -0.71963  -0.70114  -0.69642  -0.68298
 Alpha  occ. eigenvalues --   -0.67603  -0.67493  -0.66649  -0.65243  -0.64904
 Alpha  occ. eigenvalues --   -0.64044  -0.63833  -0.62903  -0.62759  -0.62065
 Alpha  occ. eigenvalues --   -0.61397  -0.60567  -0.59860  -0.58980  -0.58488
 Alpha  occ. eigenvalues --   -0.57908  -0.57599  -0.56805  -0.55965  -0.55364
 Alpha  occ. eigenvalues --   -0.54910  -0.54585  -0.54330  -0.54225  -0.53972
 Alpha  occ. eigenvalues --   -0.53574  -0.53249  -0.52866  -0.52206  -0.52085
 Alpha  occ. eigenvalues --   -0.51673  -0.51241  -0.51004  -0.50405  -0.50110
 Alpha  occ. eigenvalues --   -0.49981  -0.49758  -0.49694  -0.48963  -0.48828
 Alpha  occ. eigenvalues --   -0.48287  -0.47888  -0.47795  -0.47644  -0.47310
 Alpha  occ. eigenvalues --   -0.47152  -0.46514  -0.46117  -0.45729  -0.45474
 Alpha  occ. eigenvalues --   -0.45221  -0.44912  -0.44778  -0.44353  -0.44049
 Alpha  occ. eigenvalues --   -0.43741  -0.43520  -0.43041  -0.42604  -0.41916
 Alpha  occ. eigenvalues --   -0.41787  -0.41223  -0.40631  -0.40393  -0.40152
 Alpha  occ. eigenvalues --   -0.39868  -0.38387  -0.38289  -0.38044  -0.37732
 Alpha  occ. eigenvalues --   -0.35648  -0.35503  -0.34337  -0.34126  -0.33644
 Alpha  occ. eigenvalues --   -0.32300  -0.31586  -0.31304  -0.31117  -0.30494
 Alpha  occ. eigenvalues --   -0.29951  -0.29503
 Alpha virt. eigenvalues --   -0.13198  -0.11986  -0.10251  -0.08762  -0.07745
 Alpha virt. eigenvalues --   -0.05847  -0.04454  -0.03896  -0.03633  -0.03590
 Alpha virt. eigenvalues --   -0.03176  -0.02021  -0.01606  -0.01550  -0.00669

 Mulliken charges:
               1
     1  N   -0.752913
     2  H    0.413155
     3  H    0.418820
     4  H    0.406685
     5  C   -0.125616
     6  H    0.204874
     7  C    0.664761
     8  C   -0.273166
     9  H    0.155077
    10  H    0.172048
    11  O   -0.551891
    12  C   -0.109811
    13  H    0.185707
    14  C   -0.456820
    15  H    0.155977
    16  H    0.121031
    17  H    0.183673
    18  C   -0.449506
    19  H    0.154160
    20  H    0.148825
    21  H    0.173616
    22  N   -0.577574
    23  H    0.355609
    24  C   -0.084877
    25  H    0.199366
    26  C    0.632181
    27  C   -0.388945
    28  H    0.209749
    29  H    0.187302
    30  O   -0.507974
    31  C    0.039855
    32  C    0.003632
    33  H    0.186516
    34  C    0.083527
    35  C    0.315032
    36  C   -0.245989
    37  H    0.158907
    38  N   -0.679369
    39  H    0.349384
    40  C   -0.153880
    41  H    0.155791
    42  C   -0.159307
    43  H    0.156256
    44  C   -0.224914
    45  H    0.153621
    46  N   -0.590739
    47  H    0.352565
    48  C   -0.072502
    49  H    0.187313
    50  C    0.636094
    51  C   -0.069384
    52  H    0.165699
    53  H    0.166047
    54  O   -0.535267
    55  O   -0.640013
    56  H    0.405582
    57  N   -0.629336
    58  H    0.382745
    59  C   -0.037679
    60  H    0.174812
    61  C    0.614480
    62  C   -0.448279
    63  H    0.157209
    64  H    0.154799
    65  H    0.182451
    66  O   -0.537215
    67  N   -0.621166
    68  H    0.348330
    69  C   -0.004805
    70  H    0.186170
    71  C    0.572951
    72  C   -0.280042
    73  H    0.169937
    74  H    0.146512
    75  O   -0.503718
    76  C   -0.283619
    77  H    0.168190
    78  H    0.143125
    79  C   -0.289557
    80  H    0.161849
    81  H    0.149221
    82  C   -0.142643
    83  H    0.162137
    84  H    0.146303
    85  N   -0.774347
    86  H    0.331146
    87  H    0.338881
    88  H    0.455705
    89  O   -0.602527
 Sum of Mulliken charges =   1.00000

 Dipole moment (field-independent basis, Debye):
    X=            -13.0268    Y=              2.5781    Z=              7.8198  Tot=             15.4109
 Quadrupole moment (field-independent basis, Debye-Ang):
   XX=            -26.7318   YY=           -228.8583   ZZ=           -202.7270
   XY=            -13.2619   XZ=            -77.1765   YZ=            -10.5511

 Normal termination of Gaussian 16 at Tue Jun 28 01:16:24 2022.
