 Gaussian 16, Revision C.01,
 Gaussian 16:  ES64L-G16RevC.01  3-Jul-2019

 -------------------------------------------------------------------
 # B3LYP/6-31G* guess=read geom=check nosymm integral(ultrafinegrid)
 -------------------------------------------------------------------

 ------------------------------------------------------
 Candidate Structure: Conf:961 Charge calc in gas phase
 ------------------------------------------------------
 Structure from the checkpoint file:  "conf-961.chk"
 Charge =  1 Multiplicity = 1

                          Input orientation:
 ---------------------------------------------------------------------
 Center     Atomic      Atomic             Coordinates (Angstroms)
 Number     Number       Type             X           Y           Z
 ---------------------------------------------------------------------
      1          7           0       -5.372551    1.186439    1.270655
      2          1           0       -5.792300    1.860453    0.591903
      3          1           0       -5.077969    0.331081    0.758756
      4          1           0       -6.072306    0.948685    1.979405
      5          6           0       -4.099973    1.747992    1.871709
      6          1           0       -4.238191    2.827985    1.940995
      7          6           0       -3.033668    1.341348    0.824994
      8          6           0       -3.848981    1.103129    3.243131
      9          1           0       -4.730790    1.278449    3.877515
     10          1           0       -3.760720    0.019372    3.093945
     11          8           0       -3.136920    0.221137    0.330730
     12          6           0       -2.597142    1.620952    3.984961
     13          1           0       -1.729067    1.470980    3.327539
     14          6           0       -2.694495    3.115663    4.329514
     15          1           0       -3.566679    3.318527    4.963506
     16          1           0       -2.771394    3.757405    3.442551
     17          1           0       -1.805907    3.440130    4.880431
     18          6           0       -2.376639    0.783715    5.254203
     19          1           0       -3.218151    0.890864    5.949720
     20          1           0       -2.265770   -0.280859    5.019937
     21          1           0       -1.472012    1.108292    5.778566
     22          7           0       -2.077218    2.245671    0.532605
     23          1           0       -2.156310    3.176980    0.923918
     24          6           0       -1.202868    2.101535   -0.642879
     25          1           0       -1.194738    1.039858   -0.895475
     26          6           0        0.219539    2.554737   -0.245212
     27          6           0       -1.765650    2.910243   -1.844487
     28          1           0       -1.809987    3.968876   -1.557606
     29          1           0       -1.035341    2.839143   -2.655024
     30          8           0        0.532504    3.755514   -0.239558
     31          6           0       -3.099835    2.409055   -2.328442
     32          6           0       -3.304932    1.470624   -3.322647
     33          1           0       -2.631659    0.964829   -4.028028
     34          6           0       -4.400423    2.739473   -1.802384
     35          6           0       -5.353056    1.927908   -2.500124
     36          6           0       -4.881324    3.643712   -0.836662
     37          1           0       -4.203397    4.334152   -0.338604
     38          7           0       -4.646831    1.186291   -3.412441
     39          1           0       -5.030511    0.549166   -4.096961
     40          6           0       -7.158910    2.831614   -1.215845
     41          1           0       -8.218230    2.891281   -0.983568
     42          6           0       -6.720028    1.956801   -2.208516
     43          1           0       -7.422833    1.327149   -2.747045
     44          6           0       -6.248099    3.681169   -0.543912
     45          1           0       -6.625698    4.404403    0.174896
     46          7           0        1.042016    1.541059    0.121460
     47          1           0        0.787224    0.625365   -0.273477
     48          6           0        2.480366    1.698356    0.369198
     49          1           0        2.703781    2.763158    0.443639
     50          6           0        3.184187    1.158507   -0.898821
     51          6           0        2.887558    1.031086    1.684315
     52          1           0        2.577527   -0.028207    1.696758
     53          1           0        2.348026    1.529301    2.503475
     54          8           0        3.488764    1.937621   -1.813587
     55          8           0        4.288712    1.182373    1.780509
     56          1           0        4.596711    0.783134    2.608281
     57          7           0        3.277248   -0.186200   -1.034819
     58          1           0        2.933514   -0.729357   -0.252247
     59          6           0        3.022873   -0.832516   -2.342077
     60          1           0        3.726008   -0.414559   -3.065018
     61          6           0        1.570434   -0.435425   -2.722994
     62          6           0        3.206906   -2.344660   -2.219868
     63          1           0        3.035508   -2.823356   -3.188422
     64          1           0        2.485526   -2.766168   -1.510191
     65          1           0        4.221169   -2.586947   -1.888193
     66          8           0        0.727215   -0.331114   -1.806285
     67          7           0        1.323530   -0.108162   -3.992341
     68          1           0        1.863295   -0.496878   -4.763793
     69          6           0        0.079850    0.537883   -4.412790
     70          1           0       -0.535079    0.614766   -3.517678
     71          6           0       -0.667202   -0.309086   -5.496454
     72          6           0        0.384018    1.947639   -4.968676
     73          1           0        0.786715    1.852755   -5.985024
     74          1           0       -0.574920    2.471360   -5.066683
     75          8           0       -1.904795   -0.083928   -5.541762
     76          6           0        1.368321    2.737609   -4.090071
     77          1           0        1.182529    2.476982   -3.040635
     78          1           0        2.390737    2.396859   -4.291594
     79          6           0        1.296394    4.262102   -4.236814
     80          1           0        0.327293    4.634122   -3.877544
     81          1           0        1.361719    4.552466   -5.292794
     82          6           0        2.426851    4.994613   -3.512156
     83          1           0        3.393501    4.802594   -3.985511
     84          1           0        2.260231    6.074640   -3.487772
     85          7           0        2.580197    4.538051   -2.074187
     86          1           0        3.216936    5.157121   -1.564802
     87          1           0        1.689466    4.504597   -1.540407
     88          1           0        2.974687    3.559509   -2.001551
     89          8           0        0.075424   -1.032119   -6.188591
 ---------------------------------------------------------------------

 SCF Done:  E(RB3LYP) =  -2042.44899487     A.U. after    3 cycles

 Alpha  occ. eigenvalues --  -19.25485 -19.25391 -19.24594 -19.24484 -19.19860
 Alpha  occ. eigenvalues --  -19.08906 -19.08673 -14.58458 -14.54766 -14.49924
 Alpha  occ. eigenvalues --  -14.47570 -14.46626 -14.45954 -14.42597 -10.42873
 Alpha  occ. eigenvalues --  -10.41294 -10.40824 -10.39596 -10.36594 -10.35763
 Alpha  occ. eigenvalues --  -10.35066 -10.34948 -10.34551 -10.32845 -10.32687
 Alpha  occ. eigenvalues --  -10.31335 -10.31193 -10.29405 -10.29324 -10.29135
 Alpha  occ. eigenvalues --  -10.28891 -10.28720 -10.28711 -10.28677 -10.28506
 Alpha  occ. eigenvalues --  -10.28135 -10.27890 -10.27352 -10.26917 -10.26867
 Alpha  occ. eigenvalues --  -10.26566 -10.25541 -10.24671  -1.18095  -1.16111
 Alpha  occ. eigenvalues --   -1.15319  -1.12918  -1.12697  -1.11185  -1.09681
 Alpha  occ. eigenvalues --   -1.06281  -1.05991  -1.04430  -1.02843  -1.02302
 Alpha  occ. eigenvalues --   -0.98578  -0.94484  -0.93772  -0.93662  -0.90630
 Alpha  occ. eigenvalues --   -0.89916  -0.88538  -0.88023  -0.85967  -0.84931
 Alpha  occ. eigenvalues --   -0.83693  -0.83102  -0.81199  -0.79853  -0.78787
 Alpha  occ. eigenvalues --   -0.78056  -0.77000  -0.75280  -0.73827  -0.72830
 Alpha  occ. eigenvalues --   -0.72311  -0.71472  -0.71249  -0.71157  -0.70177
 Alpha  occ. eigenvalues --   -0.70135  -0.68276  -0.68136  -0.67760  -0.67169
 Alpha  occ. eigenvalues --   -0.66652  -0.66267  -0.65224  -0.64515  -0.63702
 Alpha  occ. eigenvalues --   -0.62525  -0.62343  -0.62032  -0.60615  -0.60438
 Alpha  occ. eigenvalues --   -0.59329  -0.58810  -0.58769  -0.58176  -0.57789
 Alpha  occ. eigenvalues --   -0.57239  -0.56894  -0.56085  -0.55721  -0.55457
 Alpha  occ. eigenvalues --   -0.54741  -0.54383  -0.54181  -0.53683  -0.53358
 Alpha  occ. eigenvalues --   -0.53033  -0.52889  -0.52486  -0.52178  -0.51896
 Alpha  occ. eigenvalues --   -0.51430  -0.51017  -0.50762  -0.50526  -0.50024
 Alpha  occ. eigenvalues --   -0.49712  -0.49531  -0.49376  -0.48921  -0.48543
 Alpha  occ. eigenvalues --   -0.48195  -0.47922  -0.47343  -0.46846  -0.46736
 Alpha  occ. eigenvalues --   -0.46401  -0.45514  -0.45126  -0.45093  -0.44945
 Alpha  occ. eigenvalues --   -0.44695  -0.44577  -0.44375  -0.44220  -0.43666
 Alpha  occ. eigenvalues --   -0.43228  -0.42875  -0.42012  -0.41543  -0.40492
 Alpha  occ. eigenvalues --   -0.40068  -0.40014  -0.39424  -0.38821  -0.38149
 Alpha  occ. eigenvalues --   -0.37837  -0.37425  -0.36873  -0.36627  -0.36000
 Alpha  occ. eigenvalues --   -0.33951  -0.32748  -0.31952  -0.28994  -0.24450
 Alpha  occ. eigenvalues --   -0.23517  -0.22965
 Alpha virt. eigenvalues --   -0.12743  -0.12188  -0.10922  -0.09586  -0.08488
 Alpha virt. eigenvalues --   -0.07574  -0.06706  -0.06435  -0.06157  -0.03422
 Alpha virt. eigenvalues --   -0.03099  -0.02345  -0.01886  -0.01366  -0.01049

 Mulliken charges:
               1
     1  N   -0.762124
     2  H    0.427185
     3  H    0.424059
     4  H    0.401629
     5  C   -0.105097
     6  H    0.190662
     7  C    0.661007
     8  C   -0.281853
     9  H    0.155663
    10  H    0.179625
    11  O   -0.513665
    12  C   -0.093684
    13  H    0.146132
    14  C   -0.455354
    15  H    0.162182
    16  H    0.126289
    17  H    0.175008
    18  C   -0.450230
    19  H    0.158750
    20  H    0.159997
    21  H    0.165261
    22  N   -0.603167
    23  H    0.349259
    24  C   -0.081384
    25  H    0.241451
    26  C    0.621468
    27  C   -0.383525
    28  H    0.153670
    29  H    0.186215
    30  O   -0.576002
    31  C    0.015232
    32  C    0.017659
    33  H    0.271611
    34  C    0.080958
    35  C    0.322138
    36  C   -0.253053
    37  H    0.119004
    38  N   -0.688319
    39  H    0.360853
    40  C   -0.179832
    41  H    0.151658
    42  C   -0.165138
    43  H    0.158569
    44  C   -0.217639
    45  H    0.142701
    46  N   -0.605068
    47  H    0.392292
    48  C   -0.090770
    49  H    0.176660
    50  C    0.655926
    51  C   -0.032331
    52  H    0.128718
    53  H    0.151966
    54  O   -0.551117
    55  O   -0.606855
    56  H    0.416615
    57  N   -0.559459
    58  H    0.340477
    59  C   -0.055271
    60  H    0.189156
    61  C    0.625159
    62  C   -0.475414
    63  H    0.195617
    64  H    0.166362
    65  H    0.179283
    66  O   -0.593843
    67  N   -0.564824
    68  H    0.346733
    69  C   -0.096073
    70  H    0.150483
    71  C    0.597409
    72  C   -0.283718
    73  H    0.167305
    74  H    0.158267
    75  O   -0.596258
    76  C   -0.280605
    77  H    0.119664
    78  H    0.159209
    79  C   -0.287904
    80  H    0.158570
    81  H    0.186973
    82  C   -0.184053
    83  H    0.205819
    84  H    0.195844
    85  N   -0.807834
    86  H    0.393120
    87  H    0.429859
    88  H    0.452926
    89  O   -0.584847
 Sum of Mulliken charges =   1.00000

 Dipole moment (field-independent basis, Debye):
    X=             -5.8082    Y=             16.7209    Z=             13.4394  Tot=             22.2248
 Quadrupole moment (field-independent basis, Debye-Ang):
   XX=           -120.0969   YY=           -186.6303   ZZ=           -275.9510
   XY=             -2.8857   XZ=            -48.2138   YZ=            -29.5468

 Normal termination of Gaussian 16 at Tue Jun 28 01:17:12 2022.
