 Gaussian 16, Revision C.01,
 Gaussian 16:  ES64L-G16RevC.01  3-Jul-2019

 -------------------------------------------------------------------
 # B3LYP/6-31G* guess=read geom=check nosymm integral(ultrafinegrid)
 -------------------------------------------------------------------

 ------------------------------------------------------
 Candidate Structure: Conf:315 Charge calc in gas phase
 ------------------------------------------------------
 Structure from the checkpoint file:  "conf-315.chk"
 Charge =  1 Multiplicity = 1

                          Input orientation:
 ---------------------------------------------------------------------
 Center     Atomic      Atomic             Coordinates (Angstroms)
 Number     Number       Type             X           Y           Z
 ---------------------------------------------------------------------
      1          7           0       -5.901619    1.621300    3.265041
      2          1           0       -6.066667    2.608232    2.979211
      3          1           0       -6.267554    1.005274    2.506975
      4          1           0       -6.374708    1.436419    4.153715
      5          6           0       -4.420654    1.307906    3.308732
      6          1           0       -3.910119    2.212520    3.642685
      7          6           0       -4.117520    0.982686    1.826064
      8          6           0       -4.141733    0.111034    4.228810
      9          1           0       -4.685699   -0.757391    3.834056
     10          1           0       -3.074712   -0.124784    4.124034
     11          8           0       -5.001250    0.411018    1.181138
     12          6           0       -4.462737    0.308553    5.727477
     13          1           0       -5.533441    0.558576    5.836710
     14          6           0       -4.241929   -1.017517    6.472493
     15          1           0       -3.190144   -1.323270    6.418672
     16          1           0       -4.849943   -1.824866    6.049471
     17          1           0       -4.505431   -0.915905    7.529859
     18          6           0       -3.642775    1.441107    6.363640
     19          1           0       -2.568046    1.238860    6.278566
     20          1           0       -3.836973    2.419552    5.907297
     21          1           0       -3.877677    1.532512    7.428720
     22          7           0       -2.931650    1.384062    1.360145
     23          1           0       -2.203065    1.749191    1.971872
     24          6           0       -2.516259    1.303683   -0.035309
     25          1           0       -2.974015    0.419509   -0.487702
     26          6           0       -0.978605    1.199197   -0.002295
     27          6           0       -2.937722    2.581719   -0.833617
     28          1           0       -2.381323    3.432636   -0.420929
     29          1           0       -2.591445    2.456389   -1.866008
     30          8           0       -0.357782    1.566135    0.997164
     31          6           0       -4.413577    2.855829   -0.813413
     32          6           0       -5.333085    2.418208   -1.735312
     33          1           0       -5.177141    1.875665   -2.658106
     34          6           0       -5.167394    3.535224    0.212440
     35          6           0       -6.546164    3.439545   -0.144187
     36          6           0       -4.827390    4.211305    1.398488
     37          1           0       -3.785509    4.350128    1.675771
     38          7           0       -6.607743    2.760004   -1.337702
     39          1           0       -7.447113    2.582521   -1.869444
     40          6           0       -7.203386    4.593913    1.841784
     41          1           0       -7.972221    5.025028    2.476404
     42          6           0       -7.568452    3.956915    0.659057
     43          1           0       -8.611935    3.874407    0.368144
     44          6           0       -5.841995    4.728414    2.206666
     45          1           0       -5.584317    5.287841    3.102501
     46          7           0       -0.402918    0.748547   -1.132874
     47          1           0       -0.948141    0.482511   -1.950249
     48          6           0        1.028642    0.775661   -1.383740
     49          1           0        1.477306    1.626985   -0.862688
     50          6           0        1.185994    0.859073   -2.912057
     51          6           0        1.691517   -0.535125   -0.876034
     52          1           0        1.224619   -1.378753   -1.407161
     53          1           0        1.475519   -0.632880    0.190926
     54          8           0        0.305911    0.392622   -3.634497
     55          8           0        3.105915   -0.540404   -1.010644
     56          1           0        3.371355   -0.331337   -1.942812
     57          7           0        2.348586    1.390612   -3.356851
     58          1           0        3.026070    1.688244   -2.664993
     59          6           0        2.886846    1.109819   -4.685955
     60          1           0        2.052579    0.733704   -5.282562
     61          6           0        3.967726    0.002802   -4.568416
     62          6           0        3.467699    2.372384   -5.340350
     63          1           0        3.855642    2.138498   -6.336150
     64          1           0        4.291160    2.780927   -4.742502
     65          1           0        2.692136    3.137906   -5.434830
     66          8           0        4.410708   -0.279105   -3.408557
     67          7           0        4.329424   -0.516856   -5.723418
     68          1           0        3.964009   -0.124983   -6.647487
     69          6           0        5.518411   -1.260085   -6.194564
     70          1           0        6.412775   -0.813329   -5.741137
     71          6           0        5.545478   -0.970561   -7.760021
     72          6           0        5.520308   -2.770555   -5.887876
     73          1           0        4.721712   -3.278566   -6.441342
     74          1           0        6.474037   -3.166408   -6.247893
     75          8           0        6.446767   -1.541577   -8.377945
     76          6           0        5.324592   -2.893794   -4.381519
     77          1           0        6.025361   -2.168187   -3.951589
     78          1           0        4.320445   -2.496400   -4.199520
     79          6           0        5.439640   -4.166688   -3.538125
     80          1           0        6.483620   -4.465688   -3.386366
     81          1           0        4.923044   -5.023015   -3.986915
     82          6           0        4.744969   -3.874712   -2.190824
     83          1           0        3.659566   -3.898148   -2.316084
     84          1           0        5.018408   -4.565746   -1.389986
     85          7           0        5.046845   -2.465661   -1.690131
     86          1           0        4.353801   -2.113310   -1.004703
     87          1           0        5.984566   -2.395650   -1.285157
     88          1           0        4.980862   -1.761113   -2.468427
     89          8           0        4.615487   -0.193212   -8.140180
 ---------------------------------------------------------------------

 SCF Done:  E(RB3LYP) =  -2042.44731656     A.U. after    3 cycles

 Alpha  occ. eigenvalues --  -19.25671 -19.24754 -19.22862 -19.21228 -19.20445
 Alpha  occ. eigenvalues --  -19.09126 -19.07505 -14.58823 -14.54543 -14.49333
 Alpha  occ. eigenvalues --  -14.48660 -14.46815 -14.45225 -14.40421 -10.42947
 Alpha  occ. eigenvalues --  -10.40015 -10.39799 -10.38330 -10.36055 -10.35468
 Alpha  occ. eigenvalues --  -10.35363 -10.33680 -10.33457 -10.33076 -10.33055
 Alpha  occ. eigenvalues --  -10.32494 -10.32292 -10.30828 -10.30791 -10.30329
 Alpha  occ. eigenvalues --  -10.30216 -10.29958 -10.29882 -10.29687 -10.29100
 Alpha  occ. eigenvalues --  -10.28933 -10.28579 -10.28344 -10.26676 -10.25593
 Alpha  occ. eigenvalues --  -10.25056 -10.24658 -10.23101  -1.18239  -1.14916
 Alpha  occ. eigenvalues --   -1.13319  -1.12952  -1.11801  -1.10105  -1.09176
 Alpha  occ. eigenvalues --   -1.08701  -1.05895  -1.03266  -1.02173  -1.01503
 Alpha  occ. eigenvalues --   -0.97254  -0.95275  -0.94710  -0.93309  -0.91844
 Alpha  occ. eigenvalues --   -0.89357  -0.89172  -0.87735  -0.85920  -0.84778
 Alpha  occ. eigenvalues --   -0.84201  -0.82904  -0.82210  -0.80250  -0.79381
 Alpha  occ. eigenvalues --   -0.77528  -0.76988  -0.75529  -0.73385  -0.73112
 Alpha  occ. eigenvalues --   -0.72759  -0.71878  -0.71556  -0.70702  -0.70239
 Alpha  occ. eigenvalues --   -0.69589  -0.69154  -0.68960  -0.67728  -0.67410
 Alpha  occ. eigenvalues --   -0.67296  -0.65859  -0.64673  -0.64054  -0.62661
 Alpha  occ. eigenvalues --   -0.62339  -0.62197  -0.60566  -0.60244  -0.59703
 Alpha  occ. eigenvalues --   -0.58963  -0.58864  -0.58460  -0.58199  -0.57412
 Alpha  occ. eigenvalues --   -0.57237  -0.56829  -0.56344  -0.55475  -0.55140
 Alpha  occ. eigenvalues --   -0.54731  -0.54320  -0.54125  -0.53359  -0.53189
 Alpha  occ. eigenvalues --   -0.52876  -0.52699  -0.52157  -0.51753  -0.51698
 Alpha  occ. eigenvalues --   -0.51516  -0.51237  -0.50997  -0.50594  -0.50255
 Alpha  occ. eigenvalues --   -0.49785  -0.49712  -0.49306  -0.49062  -0.48521
 Alpha  occ. eigenvalues --   -0.48287  -0.47981  -0.47724  -0.46910  -0.46214
 Alpha  occ. eigenvalues --   -0.45914  -0.45342  -0.45096  -0.45042  -0.45036
 Alpha  occ. eigenvalues --   -0.44860  -0.44590  -0.44446  -0.44368  -0.43599
 Alpha  occ. eigenvalues --   -0.43123  -0.42524  -0.40481  -0.40226  -0.39432
 Alpha  occ. eigenvalues --   -0.39358  -0.38784  -0.38528  -0.38304  -0.37941
 Alpha  occ. eigenvalues --   -0.37010  -0.36260  -0.36222  -0.35084  -0.34872
 Alpha  occ. eigenvalues --   -0.33855  -0.33745  -0.32029  -0.31071  -0.24291
 Alpha  occ. eigenvalues --   -0.23827  -0.21736
 Alpha virt. eigenvalues --   -0.12626  -0.12206  -0.09797  -0.09120  -0.08434
 Alpha virt. eigenvalues --   -0.07486  -0.06270  -0.05256  -0.05120  -0.03884
 Alpha virt. eigenvalues --   -0.03325  -0.02003  -0.01565  -0.01456  -0.01351

 Mulliken charges:
               1
     1  N   -0.762014
     2  H    0.418834
     3  H    0.419990
     4  H    0.402946
     5  C   -0.118400
     6  H    0.198343
     7  C    0.669268
     8  C   -0.281165
     9  H    0.176551
    10  H    0.183946
    11  O   -0.538048
    12  C   -0.101616
    13  H    0.113493
    14  C   -0.447386
    15  H    0.162754
    16  H    0.159093
    17  H    0.173355
    18  C   -0.454376
    19  H    0.165803
    20  H    0.135964
    21  H    0.180949
    22  N   -0.609981
    23  H    0.363703
    24  C   -0.061500
    25  H    0.192960
    26  C    0.631853
    27  C   -0.365612
    28  H    0.172812
    29  H    0.177159
    30  O   -0.539539
    31  C    0.085590
    32  C    0.027623
    33  H    0.179129
    34  C    0.075230
    35  C    0.324364
    36  C   -0.238189
    37  H    0.141921
    38  N   -0.682136
    39  H    0.349553
    40  C   -0.173135
    41  H    0.157136
    42  C   -0.162722
    43  H    0.157552
    44  C   -0.215409
    45  H    0.151305
    46  N   -0.619311
    47  H    0.363141
    48  C   -0.073106
    49  H    0.188637
    50  C    0.588770
    51  C   -0.027159
    52  H    0.141645
    53  H    0.175859
    54  O   -0.525413
    55  O   -0.693730
    56  H    0.437488
    57  N   -0.579249
    58  H    0.338695
    59  C   -0.087691
    60  H    0.213001
    61  C    0.625525
    62  C   -0.462990
    63  H    0.214152
    64  H    0.153322
    65  H    0.169343
    66  O   -0.634161
    67  N   -0.596474
    68  H    0.390425
    69  C   -0.092721
    70  H    0.154058
    71  C    0.605580
    72  C   -0.260151
    73  H    0.153253
    74  H    0.181402
    75  O   -0.560615
    76  C   -0.296072
    77  H    0.134858
    78  H    0.144777
    79  C   -0.268564
    80  H    0.167512
    81  H    0.182386
    82  C   -0.191854
    83  H    0.202178
    84  H    0.195024
    85  N   -0.791754
    86  H    0.415674
    87  H    0.395247
    88  H    0.449070
    89  O   -0.617957
 Sum of Mulliken charges =   1.00000

 Dipole moment (field-independent basis, Debye):
    X=            -21.2852    Y=              2.4286    Z=             23.9012  Tot=             32.0971
 Quadrupole moment (field-independent basis, Debye-Ang):
   XX=           -104.1535   YY=           -206.0886   ZZ=           -346.3600
   XY=            -70.9172   XZ=             25.2903   YZ=              4.5746

 Normal termination of Gaussian 16 at Tue Jun 28 00:56:59 2022.
