 Gaussian 16, Revision C.01,
 Gaussian 16:  ES64L-G16RevC.01  3-Jul-2019

 -------------------------------------------------------------------
 # B3LYP/6-31G* guess=read geom=check nosymm integral(ultrafinegrid)
 -------------------------------------------------------------------

 ------------------------------------------------------
 Candidate Structure: Conf:459 Charge calc in gas phase
 ------------------------------------------------------
 Structure from the checkpoint file:  "conf-459.chk"
 Charge =  1 Multiplicity = 1

                          Input orientation:
 ---------------------------------------------------------------------
 Center     Atomic      Atomic             Coordinates (Angstroms)
 Number     Number       Type             X           Y           Z
 ---------------------------------------------------------------------
      1          7           0       -1.501279    1.354252    5.324536
      2          1           0       -1.536239    1.631857    6.306635
      3          1           0       -1.975194    0.451142    5.268014
      4          1           0        0.072876    1.060848    5.012538
      5          6           0       -2.238369    2.365092    4.518866
      6          1           0       -3.292908    2.389171    4.812183
      7          6           0       -2.278080    2.000823    3.023067
      8          6           0       -1.604220    3.748511    4.768659
      9          1           0       -1.708342    3.967513    5.842826
     10          1           0       -0.525312    3.676425    4.579333
     11          8           0       -3.325397    2.128641    2.392148
     12          6           0       -2.198121    4.924764    3.967948
     13          1           0       -2.049664    4.717222    2.898766
     14          6           0       -3.705088    5.106154    4.205534
     15          1           0       -3.923892    5.234750    5.274086
     16          1           0       -4.276030    4.251028    3.832374
     17          1           0       -4.070995    5.998612    3.685341
     18          6           0       -1.429289    6.211748    4.304295
     19          1           0       -1.554844    6.481146    5.360970
     20          1           0       -0.354281    6.099431    4.114236
     21          1           0       -1.792184    7.052703    3.702895
     22          7           0       -1.118503    1.595853    2.438180
     23          1           0       -0.267437    1.473192    2.973613
     24          6           0       -1.066839    1.293035    1.008255
     25          1           0       -1.952315    0.699818    0.757640
     26          6           0        0.223778    0.500998    0.767293
     27          6           0       -1.099140    2.591015    0.153207
     28          1           0       -1.939232    3.181709    0.528445
     29          1           0       -0.179246    3.150185    0.359570
     30          8           0        1.316793    0.956074    1.117513
     31          6           0       -1.263413    2.356087   -1.320583
     32          6           0       -2.458476    2.264673   -1.994813
     33          1           0       -3.467802    2.351648   -1.614912
     34          6           0       -0.228490    2.184907   -2.311577
     35          6           0       -0.872322    1.996439   -3.567790
     36          6           0        1.179813    2.186095   -2.267814
     37          1           0        1.697775    2.321557   -1.321782
     38          7           0       -2.230753    2.042797   -3.337453
     39          1           0       -2.946978    1.964490   -4.043216
     40          6           0        1.229823    1.817242   -4.681211
     41          1           0        1.813907    1.672417   -5.585027
     42          6           0       -0.157715    1.812124   -4.756515
     43          1           0       -0.667184    1.667572   -5.705274
     44          6           0        1.892678    2.002135   -3.449119
     45          1           0        2.979003    1.999158   -3.427305
     46          7           0        0.091689   -0.699113    0.156460
     47          1           0       -0.838159   -1.035266   -0.045931
     48          6           0        1.204541   -1.633322   -0.000462
     49          1           0        0.751168   -2.590017   -0.283544
     50          6           0        1.867905   -1.866952    1.378695
     51          6           0        2.139498   -1.228817   -1.160472
     52          1           0        2.904901   -2.006158   -1.282332
     53          1           0        2.638770   -0.281448   -0.921466
     54          8           0        1.182865   -1.906133    2.399499
     55          8           0        1.436446   -1.166165   -2.380170
     56          1           0        1.135060   -0.251055   -2.505801
     57          7           0        3.209478   -2.081241    1.397302
     58          1           0        3.758564   -1.913755    0.565795
     59          6           0        3.948139   -2.328679    2.644473
     60          1           0        3.262356   -2.882405    3.293288
     61          6           0        4.289269   -0.983013    3.335874
     62          6           0        5.203288   -3.148116    2.367968
     63          1           0        5.730029   -3.355393    3.302678
     64          1           0        5.897886   -2.599798    1.723251
     65          1           0        4.939538   -4.097571    1.892739
     66          8           0        5.443839   -0.576809    3.462414
     67          7           0        3.203114   -0.291615    3.765118
     68          1           0        2.272305   -0.659669    3.574485
     69          6           0        3.321077    1.048057    4.308552
     70          1           0        4.062780    1.033671    5.117853
     71          6           0        1.998554    1.523077    4.914756
     72          6           0        3.804869    2.059512    3.232951
     73          1           0        4.656719    1.587838    2.734073
     74          1           0        3.012949    2.195919    2.487768
     75          8           0        1.913511    2.570906    5.537305
     76          6           0        4.246367    3.406209    3.818276
     77          1           0        3.394632    3.896850    4.302748
     78          1           0        4.981470    3.191529    4.613706
     79          6           0        4.864298    4.326799    2.755034
     80          1           0        4.162888    4.458503    1.921998
     81          1           0        5.767528    3.875570    2.321026
     82          6           0        5.178512    5.727376    3.268439
     83          1           0        5.676103    6.359163    2.529174
     84          1           0        4.287696    6.239192    3.640924
     85          7           0        6.131068    5.650669    4.466892
     86          1           0        6.337489    6.575075    4.862118
     87          1           0        5.717303    5.068471    5.206487
     88          1           0        7.022216    5.213107    4.202176
     89          8           0        0.981267    0.715304    4.649796
 ---------------------------------------------------------------------

 SCF Done:  E(RB3LYP) =  -2042.49094567     A.U. after    3 cycles

 Alpha  occ. eigenvalues --  -19.24952 -19.20857 -19.20177 -19.19634 -19.18782
 Alpha  occ. eigenvalues --  -19.18164 -19.18103 -14.64200 -14.44292 -14.44198
 Alpha  occ. eigenvalues --  -14.43916 -14.43566 -14.42956 -14.41781 -10.41423
 Alpha  occ. eigenvalues --  -10.39343 -10.36586 -10.36441 -10.35508 -10.35001
 Alpha  occ. eigenvalues --  -10.33635 -10.31450 -10.30940 -10.30682 -10.30547
 Alpha  occ. eigenvalues --  -10.30490 -10.30457 -10.30231 -10.28212 -10.28158
 Alpha  occ. eigenvalues --  -10.27702 -10.25959 -10.25684 -10.25631 -10.25184
 Alpha  occ. eigenvalues --  -10.25039 -10.24867 -10.24648 -10.24594 -10.24536
 Alpha  occ. eigenvalues --  -10.24523 -10.24000 -10.22843  -1.18186  -1.16622
 Alpha  occ. eigenvalues --   -1.11900  -1.10701  -1.10032  -1.09656  -1.07934
 Alpha  occ. eigenvalues --   -1.07898  -1.04179  -1.00115  -0.99928  -0.99750
 Alpha  occ. eigenvalues --   -0.98820  -0.98442  -0.94821  -0.90189  -0.88309
 Alpha  occ. eigenvalues --   -0.87568  -0.86979  -0.85383  -0.83248  -0.82302
 Alpha  occ. eigenvalues --   -0.81115  -0.80016  -0.79650  -0.77862  -0.77707
 Alpha  occ. eigenvalues --   -0.76766  -0.75353  -0.74306  -0.73906  -0.72441
 Alpha  occ. eigenvalues --   -0.71684  -0.71262  -0.70395  -0.68491  -0.67789
 Alpha  occ. eigenvalues --   -0.67029  -0.65890  -0.65787  -0.65217  -0.65128
 Alpha  occ. eigenvalues --   -0.64112  -0.63705  -0.62303  -0.61296  -0.61141
 Alpha  occ. eigenvalues --   -0.60605  -0.60023  -0.58570  -0.58246  -0.57664
 Alpha  occ. eigenvalues --   -0.57145  -0.56841  -0.56467  -0.55590  -0.55261
 Alpha  occ. eigenvalues --   -0.55056  -0.54369  -0.54029  -0.53942  -0.53511
 Alpha  occ. eigenvalues --   -0.53244  -0.53058  -0.52262  -0.51350  -0.50764
 Alpha  occ. eigenvalues --   -0.50364  -0.49627  -0.49591  -0.49438  -0.49306
 Alpha  occ. eigenvalues --   -0.49213  -0.49049  -0.48790  -0.48245  -0.48049
 Alpha  occ. eigenvalues --   -0.48021  -0.47718  -0.46998  -0.46834  -0.46771
 Alpha  occ. eigenvalues --   -0.46189  -0.45830  -0.45382  -0.44980  -0.44759
 Alpha  occ. eigenvalues --   -0.44644  -0.44198  -0.44046  -0.43789  -0.43723
 Alpha  occ. eigenvalues --   -0.43326  -0.43024  -0.42872  -0.42199  -0.41946
 Alpha  occ. eigenvalues --   -0.41199  -0.40244  -0.39601  -0.39346  -0.39141
 Alpha  occ. eigenvalues --   -0.38994  -0.38775  -0.38373  -0.36246  -0.34972
 Alpha  occ. eigenvalues --   -0.34636  -0.34362  -0.34209  -0.33814  -0.33570
 Alpha  occ. eigenvalues --   -0.31947  -0.31818  -0.31736  -0.31523  -0.30657
 Alpha  occ. eigenvalues --   -0.28613  -0.26547
 Alpha virt. eigenvalues --   -0.14566  -0.08066  -0.07692  -0.07543  -0.07039
 Alpha virt. eigenvalues --   -0.06414  -0.05513  -0.05270  -0.04830  -0.03754
 Alpha virt. eigenvalues --   -0.03708  -0.02420  -0.01093  -0.00790  -0.00431

 Mulliken charges:
               1
     1  N   -0.796815
     2  H    0.341747
     3  H    0.346014
     4  H    0.473637
     5  C   -0.070237
     6  H    0.174106
     7  C    0.616370
     8  C   -0.267267
     9  H    0.136337
    10  H    0.150064
    11  O   -0.527775
    12  C   -0.079589
    13  H    0.140986
    14  C   -0.460285
    15  H    0.137107
    16  H    0.176447
    17  H    0.149742
    18  C   -0.441342
    19  H    0.145471
    20  H    0.121781
    21  H    0.151595
    22  N   -0.640497
    23  H    0.361271
    24  C    0.002390
    25  H    0.161908
    26  C    0.631486
    27  C   -0.360619
    28  H    0.184857
    29  H    0.148444
    30  O   -0.568848
    31  C    0.053708
    32  C    0.001161
    33  H    0.171803
    34  C    0.074014
    35  C    0.315785
    36  C   -0.265874
    37  H    0.137053
    38  N   -0.684635
    39  H    0.338662
    40  C   -0.145727
    41  H    0.140489
    42  C   -0.157407
    43  H    0.140171
    44  C   -0.150869
    45  H    0.127022
    46  N   -0.585884
    47  H    0.350220
    48  C   -0.068724
    49  H    0.191318
    50  C    0.653615
    51  C   -0.054048
    52  H    0.139343
    53  H    0.154135
    54  O   -0.547563
    55  O   -0.629226
    56  H    0.426045
    57  N   -0.615107
    58  H    0.341399
    59  C   -0.066779
    60  H    0.192848
    61  C    0.626178
    62  C   -0.456992
    63  H    0.178031
    64  H    0.160413
    65  H    0.160760
    66  O   -0.545071
    67  N   -0.643691
    68  H    0.409405
    69  C   -0.022260
    70  H    0.175030
    71  C    0.600741
    72  C   -0.296581
    73  H    0.180844
    74  H    0.191271
    75  O   -0.507486
    76  C   -0.304641
    77  H    0.188956
    78  H    0.114191
    79  C   -0.290894
    80  H    0.207122
    81  H    0.173789
    82  C   -0.208854
    83  H    0.224574
    84  H    0.229036
    85  N   -0.732342
    86  H    0.428935
    87  H    0.433226
    88  H    0.426306
    89  O   -0.615431
 Sum of Mulliken charges =   1.00000

 Dipole moment (field-independent basis, Debye):
    X=             19.3626    Y=             21.8833    Z=             15.2388  Tot=             32.9547
 Quadrupole moment (field-independent basis, Debye-Ang):
   XX=           -102.2718   YY=           -113.0807   ZZ=           -151.1085
   XY=            128.2088   XZ=             90.3753   YZ=             92.6295

 Normal termination of Gaussian 16 at Tue Jun 28 00:57:15 2022.
