 Gaussian 16, Revision C.01,
 Gaussian 16:  ES64L-G16RevC.01  3-Jul-2019

 -------------------------------------------------------------------
 # B3LYP/6-31G* guess=read geom=check nosymm integral(ultrafinegrid)
 -------------------------------------------------------------------

 ------------------------------------------------------
 Candidate Structure: Conf:549 Charge calc in gas phase
 ------------------------------------------------------
 Structure from the checkpoint file:  "conf-549.chk"
 Charge =  1 Multiplicity = 1

                          Input orientation:
 ---------------------------------------------------------------------
 Center     Atomic      Atomic             Coordinates (Angstroms)
 Number     Number       Type             X           Y           Z
 ---------------------------------------------------------------------
      1          7           0       -4.558261    4.725755    2.283980
      2          1           0       -4.370796    5.703596    2.044523
      3          1           0       -4.998158    4.243125    1.439735
      4          1           0       -5.179382    4.699415    3.097297
      5          6           0       -3.296122    3.899429    2.472479
      6          1           0       -2.462664    4.586260    2.629567
      7          6           0       -3.190624    3.164823    1.105617
      8          6           0       -3.484780    2.954717    3.676193
      9          1           0       -3.791093    3.569795    4.535987
     10          1           0       -4.316430    2.273700    3.449665
     11          8           0       -4.216541    3.139458    0.400759
     12          6           0       -2.246216    2.130834    4.100017
     13          1           0       -1.936829    1.497729    3.259559
     14          6           0       -1.058884    3.020000    4.501195
     15          1           0       -1.324938    3.686954    5.331378
     16          1           0       -0.685334    3.640348    3.676516
     17          1           0       -0.218984    2.400259    4.828662
     18          6           0       -2.644619    1.199515    5.255967
     19          1           0       -2.953137    1.771695    6.139952
     20          1           0       -3.471031    0.537263    4.974283
     21          1           0       -1.797445    0.570447    5.545636
     22          7           0       -2.022725    2.620879    0.805841
     23          1           0       -1.251418    2.577331    1.479742
     24          6           0       -1.775214    1.736439   -0.335936
     25          1           0       -2.621543    1.048287   -0.434181
     26          6           0       -0.513858    0.943096    0.091658
     27          6           0       -1.615714    2.524460   -1.671588
     28          1           0       -2.344253    3.343423   -1.641751
     29          1           0       -0.621240    2.984157   -1.701922
     30          8           0        0.005828    1.177212    1.189694
     31          6           0       -1.859353    1.690258   -2.896099
     32          6           0       -0.926062    1.260230   -3.813717
     33          1           0        0.147274    1.385233   -3.821146
     34          6           0       -3.142516    1.210202   -3.358257
     35          6           0       -2.907944    0.492278   -4.562186
     36          6           0       -4.460533    1.324830   -2.879161
     37          1           0       -4.672066    1.876597   -1.966584
     38          7           0       -1.549819    0.545371   -4.810682
     39          1           0       -1.074700    0.098579   -5.580031
     40          6           0       -5.231011    0.011698   -4.784556
     41          1           0       -6.056810   -0.445645   -5.321785
     42          6           0       -3.940686   -0.112883   -5.285531
     43          1           0       -3.744152   -0.657372   -6.205066
     44          6           0       -5.488439    0.724442   -3.595420
     45          1           0       -6.511148    0.805290   -3.237818
     46          7           0       -0.060245    0.037509   -0.788228
     47          1           0       -0.458426    0.004725   -1.723248
     48          6           0        1.103434   -0.798725   -0.538315
     49          1           0        1.560775   -0.444934    0.388689
     50          6           0        2.068967   -0.671921   -1.731845
     51          6           0        0.696616   -2.270331   -0.356822
     52          1           0        1.608408   -2.867320   -0.201059
     53          1           0        0.215502   -2.623674   -1.282493
     54          8           0        1.638206   -0.470721   -2.869682
     55          8           0       -0.177730   -2.339551    0.754747
     56          1           0       -0.454189   -3.262412    0.861550
     57          7           0        3.371621   -0.840234   -1.435601
     58          1           0        3.695794   -1.038834   -0.491441
     59          6           0        4.428395   -0.880939   -2.435204
     60          1           0        4.091169   -1.501964   -3.274402
     61          6           0        5.633054   -1.548468   -1.738397
     62          6           0        4.781782    0.522401   -2.960847
     63          1           0        5.561248    0.472582   -3.728265
     64          1           0        5.141246    1.157427   -2.144880
     65          1           0        3.891351    0.976859   -3.402350
     66          8           0        5.644397   -1.703997   -0.517524
     67          7           0        6.646490   -1.912137   -2.556446
     68          1           0        6.572383   -1.763705   -3.555264
     69          6           0        7.914609   -2.456979   -2.077660
     70          1           0        7.986163   -2.241826   -1.011477
     71          6           0        9.083821   -1.800477   -2.803662
     72          6           0        8.002004   -3.989039   -2.349426
     73          1           0        7.281076   -4.480381   -1.687153
     74          1           0        7.646067   -4.150794   -3.373038
     75          8           0       10.099004   -1.434685   -2.252347
     76          6           0        9.419066   -4.599384   -2.171120
     77          1           0       10.138112   -3.814874   -1.914602
     78          1           0        9.414756   -5.274112   -1.307548
     79          6           0        9.957052   -5.409610   -3.372145
     80          1           0        9.318880   -6.290490   -3.525980
     81          1           0       10.945710   -5.802684   -3.095468
     82          6           0       10.075001   -4.722703   -4.743418
     83          1           0       10.479411   -5.466025   -5.443563
     84          1           0        9.081282   -4.448668   -5.116429
     85          7           0       10.903036   -3.486440   -4.755487
     86          1           0       11.384932   -3.396907   -5.648142
     87          1           0        9.807403   -2.183719   -4.512271
     88          1           0       11.627866   -3.522150   -4.039784
     89          8           0        8.915275   -1.851544   -4.138532
 ---------------------------------------------------------------------

 SCF Done:  E(RB3LYP) =  -2042.48893530     A.U. after    1 cycles

 Alpha  occ. eigenvalues --  -19.26421 -19.22017 -19.21252 -19.21148 -19.19131
 Alpha  occ. eigenvalues --  -19.18569 -19.18105 -14.59607 -14.48556 -14.44576
 Alpha  occ. eigenvalues --  -14.44518 -14.43182 -14.42969 -14.40248 -10.42964
 Alpha  occ. eigenvalues --  -10.40238 -10.38226 -10.36401 -10.35889 -10.35764
 Alpha  occ. eigenvalues --  -10.33617 -10.33025 -10.31422 -10.31132 -10.30696
 Alpha  occ. eigenvalues --  -10.30374 -10.28922 -10.28690 -10.28424 -10.28221
 Alpha  occ. eigenvalues --  -10.27663 -10.27662 -10.26944 -10.25473 -10.24976
 Alpha  occ. eigenvalues --  -10.24963 -10.24882 -10.24742 -10.24701 -10.24681
 Alpha  occ. eigenvalues --  -10.24436 -10.24114 -10.23970  -1.18733  -1.13520
 Alpha  occ. eigenvalues --   -1.13317  -1.12944  -1.11173  -1.10251  -1.09429
 Alpha  occ. eigenvalues --   -1.05280  -1.04883  -1.04481  -1.01130  -0.99765
 Alpha  occ. eigenvalues --   -0.99229  -0.95699  -0.94202  -0.90211  -0.89387
 Alpha  occ. eigenvalues --   -0.87549  -0.86431  -0.85404  -0.83948  -0.82412
 Alpha  occ. eigenvalues --   -0.80425  -0.79945  -0.79601  -0.78616  -0.78000
 Alpha  occ. eigenvalues --   -0.75756  -0.75262  -0.73477  -0.73373  -0.72615
 Alpha  occ. eigenvalues --   -0.72088  -0.69883  -0.69414  -0.68435  -0.67603
 Alpha  occ. eigenvalues --   -0.66963  -0.66351  -0.65642  -0.65494  -0.64948
 Alpha  occ. eigenvalues --   -0.64447  -0.63204  -0.62966  -0.62569  -0.61820
 Alpha  occ. eigenvalues --   -0.60135  -0.59362  -0.58869  -0.58392  -0.57156
 Alpha  occ. eigenvalues --   -0.56748  -0.56339  -0.55948  -0.55157  -0.54922
 Alpha  occ. eigenvalues --   -0.54523  -0.54429  -0.53770  -0.53534  -0.53262
 Alpha  occ. eigenvalues --   -0.53213  -0.52598  -0.52317  -0.52115  -0.51543
 Alpha  occ. eigenvalues --   -0.51300  -0.50925  -0.50507  -0.50468  -0.49778
 Alpha  occ. eigenvalues --   -0.49612  -0.49225  -0.49051  -0.48761  -0.48574
 Alpha  occ. eigenvalues --   -0.48235  -0.47534  -0.47325  -0.47166  -0.46988
 Alpha  occ. eigenvalues --   -0.46863  -0.46598  -0.46419  -0.45270  -0.44989
 Alpha  occ. eigenvalues --   -0.44502  -0.44356  -0.44206  -0.44088  -0.43674
 Alpha  occ. eigenvalues --   -0.43473  -0.43272  -0.42901  -0.42154  -0.41529
 Alpha  occ. eigenvalues --   -0.41506  -0.41193  -0.40959  -0.39629  -0.39469
 Alpha  occ. eigenvalues --   -0.39458  -0.38786  -0.38618  -0.38274  -0.35697
 Alpha  occ. eigenvalues --   -0.35311  -0.34843  -0.34554  -0.33762  -0.33638
 Alpha  occ. eigenvalues --   -0.32983  -0.32743  -0.32446  -0.32173  -0.29831
 Alpha  occ. eigenvalues --   -0.28521  -0.26944
 Alpha virt. eigenvalues --   -0.11856  -0.10727  -0.07464  -0.06606  -0.06141
 Alpha virt. eigenvalues --   -0.05628  -0.04978  -0.04341  -0.03623  -0.03503
 Alpha virt. eigenvalues --   -0.01461  -0.00945  -0.00097   0.00563   0.00678

 Mulliken charges:
               1
     1  N   -0.757559
     2  H    0.415182
     3  H    0.433194
     4  H    0.411336
     5  C   -0.116968
     6  H    0.213437
     7  C    0.650825
     8  C   -0.287091
     9  H    0.158553
    10  H    0.174857
    11  O   -0.545308
    12  C   -0.105838
    13  H    0.170241
    14  C   -0.460044
    15  H    0.152513
    16  H    0.138414
    17  H    0.189128
    18  C   -0.451831
    19  H    0.152705
    20  H    0.156973
    21  H    0.177171
    22  N   -0.613920
    23  H    0.389603
    24  C   -0.064658
    25  H    0.210829
    26  C    0.628890
    27  C   -0.354542
    28  H    0.174466
    29  H    0.164206
    30  O   -0.549185
    31  C    0.009403
    32  C    0.005741
    33  H    0.186370
    34  C    0.086965
    35  C    0.311095
    36  C   -0.227093
    37  H    0.140446
    38  N   -0.684772
    39  H    0.340771
    40  C   -0.148809
    41  H    0.137881
    42  C   -0.159546
    43  H    0.136351
    44  C   -0.140518
    45  H    0.127662
    46  N   -0.596494
    47  H    0.372451
    48  C   -0.091234
    49  H    0.199268
    50  C    0.621263
    51  C   -0.020855
    52  H    0.144198
    53  H    0.141096
    54  O   -0.551438
    55  O   -0.612999
    56  H    0.405378
    57  N   -0.612157
    58  H    0.362969
    59  C   -0.042095
    60  H    0.174880
    61  C    0.618106
    62  C   -0.448179
    63  H    0.157660
    64  H    0.167820
    65  H    0.180132
    66  O   -0.532481
    67  N   -0.615404
    68  H    0.349280
    69  C   -0.034729
    70  H    0.199281
    71  C    0.582104
    72  C   -0.275291
    73  H    0.162571
    74  H    0.146260
    75  O   -0.460887
    76  C   -0.291750
    77  H    0.174036
    78  H    0.152963
    79  C   -0.289360
    80  H    0.151105
    81  H    0.145377
    82  C   -0.129383
    83  H    0.149148
    84  H    0.156281
    85  N   -0.780791
    86  H    0.332238
    87  H    0.456442
    88  H    0.337380
    89  O   -0.631685
 Sum of Mulliken charges =   1.00000

 Dipole moment (field-independent basis, Debye):
    X=             -5.9135    Y=              7.9406    Z=              1.3603  Tot=              9.9937
 Quadrupole moment (field-independent basis, Debye-Ang):
   XX=           -111.5542   YY=           -138.3604   ZZ=           -172.3701
   XY=           -119.1575   XZ=           -100.5471   YZ=             73.9481

 Normal termination of Gaussian 16 at Tue Jun 28 00:56:30 2022.
