 Gaussian 16, Revision C.01,
 Gaussian 16:  ES64L-G16RevC.01  3-Jul-2019

 -------------------------------------------------------------------
 # B3LYP/6-31G* guess=read geom=check nosymm integral(ultrafinegrid)
 -------------------------------------------------------------------

 ------------------------------------------------------
 Candidate Structure: Conf:746 Charge calc in gas phase
 ------------------------------------------------------
 Structure from the checkpoint file:  "conf-746.chk"
 Charge =  1 Multiplicity = 1

                          Input orientation:
 ---------------------------------------------------------------------
 Center     Atomic      Atomic             Coordinates (Angstroms)
 Number     Number       Type             X           Y           Z
 ---------------------------------------------------------------------
      1          7           0       -6.093325    2.712315    1.144450
      2          1           0       -6.373157    2.528784    0.158753
      3          1           0       -6.243726    1.835392    1.686461
      4          1           0       -6.658750    3.476824    1.523969
      5          6           0       -4.602440    2.967699    1.253939
      6          1           0       -4.306930    3.522006    0.361817
      7          6           0       -4.035663    1.526951    1.270485
      8          6           0       -4.305725    3.743938    2.545392
      9          1           0       -4.900103    4.669990    2.540242
     10          1           0       -4.650668    3.136643    3.392409
     11          8           0       -4.691861    0.670797    1.870217
     12          6           0       -2.819463    4.114628    2.751527
     13          1           0       -2.230308    3.187406    2.719637
     14          6           0       -2.293261    5.062177    1.661813
     15          1           0       -2.870537    5.995093    1.638059
     16          1           0       -2.323264    4.623401    0.656494
     17          1           0       -1.249437    5.325437    1.858405
     18          6           0       -2.641397    4.734913    4.145770
     19          1           0       -3.210256    5.668322    4.239039
     20          1           0       -2.976390    4.053748    4.935973
     21          1           0       -1.588346    4.969579    4.330116
     22          7           0       -2.902489    1.322223    0.592495
     23          1           0       -2.351018    2.092538    0.217163
     24          6           0       -2.276532    0.020964    0.387969
     25          1           0       -2.493664   -0.611319    1.253797
     26          6           0       -0.770278    0.313923    0.250392
     27          6           0       -2.801597   -0.669528   -0.912795
     28          1           0       -2.472189   -0.065952   -1.767501
     29          1           0       -2.289791   -1.634505   -1.001736
     30          8           0       -0.392832    1.441689   -0.069760
     31          6           0       -4.290556   -0.861107   -0.938994
     32          6           0       -4.976340   -1.969067   -0.504134
     33          1           0       -4.596816   -2.913928   -0.138956
     34          6           0       -5.292797    0.104903   -1.320470
     35          6           0       -6.566692   -0.482936   -1.059477
     36          6           0       -5.251657    1.407974   -1.849839
     37          1           0       -4.302020    1.870127   -2.107030
     38          7           0       -6.335127   -1.747031   -0.570794
     39          1           0       -7.045407   -2.424970   -0.337128
     40          6           0       -7.695908    1.497867   -1.772801
     41          1           0       -8.611725    2.047247   -1.970600
     42          6           0       -7.769009    0.199932   -1.275455
     43          1           0       -8.728516   -0.266934   -1.071318
     44          6           0       -6.446819    2.096840   -2.065724
     45          1           0       -6.423849    3.088043   -2.511526
     46          7           0        0.063648   -0.730540    0.428729
     47          1           0       -0.256023   -1.569905    0.898788
     48          6           0        1.509629   -0.569881    0.362932
     49          1           0        1.834462    0.106743    1.164065
     50          6           0        1.965610   -0.036503   -1.007184
     51          6           0        2.155069   -1.945109    0.574522
     52          1           0        3.241866   -1.819194    0.654503
     53          1           0        1.943922   -2.573028   -0.302247
     54          8           0        1.521999   -0.529227   -2.053360
     55          8           0        1.578346   -2.489074    1.756673
     56          1           0        1.983791   -3.352673    1.928765
     57          7           0        2.910118    0.915985   -0.953857
     58          1           0        3.215740    1.234474   -0.044082
     59          6           0        3.720087    1.324143   -2.098123
     60          1           0        3.068091    1.795909   -2.842137
     61          6           0        4.379270    0.085064   -2.736424
     62          6           0        4.802725    2.318201   -1.650228
     63          1           0        5.478161    2.537898   -2.485296
     64          1           0        5.405111    1.880619   -0.845208
     65          1           0        4.347757    3.248270   -1.292984
     66          8           0        4.545445   -0.951014   -2.094336
     67          7           0        4.686646    0.235754   -4.070872
     68          1           0        4.867537    1.240526   -4.314919
     69          6           0        5.935746   -0.401336   -4.579499
     70          1           0        6.226543   -1.197921   -3.892958
     71          6           0        7.027854    0.759980   -4.550357
     72          6           0        5.847736   -0.910450   -6.030440
     73          1           0        5.919665   -0.041771   -6.698017
     74          1           0        6.765540   -1.484307   -6.198020
     75          8           0        6.514922    1.918549   -4.430764
     76          6           0        4.626080   -1.714326   -6.515444
     77          1           0        3.752704   -1.046852   -6.578945
     78          1           0        4.824033   -1.992487   -7.558101
     79          6           0        4.226970   -3.016027   -5.788841
     80          1           0        5.098807   -3.674276   -5.690917
     81          1           0        3.509397   -3.554852   -6.423457
     82          6           0        3.620236   -2.864653   -4.388504
     83          1           0        3.083526   -3.767801   -4.084628
     84          1           0        4.357901   -2.616554   -3.625175
     85          7           0        2.636359   -1.719620   -4.346574
     86          1           0        2.209346   -1.558316   -3.412619
     87          1           0        3.178745   -0.838584   -4.532624
     88          1           0        1.893180   -1.817480   -5.042614
     89          8           0        8.194857    0.392489   -4.696730
 ---------------------------------------------------------------------

 SCF Done:  E(RB3LYP) =  -2042.44770947     A.U. after    1 cycles

 Alpha  occ. eigenvalues --  -19.25900 -19.25262 -19.23336 -19.21738 -19.19339
 Alpha  occ. eigenvalues --  -19.08959 -19.07622 -14.59282 -14.52105 -14.49625
 Alpha  occ. eigenvalues --  -14.49159 -14.47228 -14.45567 -14.40317 -10.43191
 Alpha  occ. eigenvalues --  -10.40269 -10.39992 -10.38911 -10.35778 -10.35426
 Alpha  occ. eigenvalues --  -10.33862 -10.33822 -10.33530 -10.33035 -10.33033
 Alpha  occ. eigenvalues --  -10.32350 -10.31248 -10.31139 -10.31035 -10.30740
 Alpha  occ. eigenvalues --  -10.30637 -10.30357 -10.30268 -10.30135 -10.29440
 Alpha  occ. eigenvalues --  -10.28409 -10.27578 -10.27243 -10.26553 -10.25372
 Alpha  occ. eigenvalues --  -10.24344 -10.24278 -10.22574  -1.18481  -1.15451
 Alpha  occ. eigenvalues --   -1.13388  -1.13246  -1.12444  -1.10479  -1.09191
 Alpha  occ. eigenvalues --   -1.07205  -1.06185  -1.03536  -1.01922  -1.01862
 Alpha  occ. eigenvalues --   -0.96779  -0.95681  -0.94600  -0.92985  -0.92110
 Alpha  occ. eigenvalues --   -0.89310  -0.87976  -0.87253  -0.86411  -0.85175
 Alpha  occ. eigenvalues --   -0.83992  -0.83201  -0.81038  -0.80268  -0.78904
 Alpha  occ. eigenvalues --   -0.77726  -0.76123  -0.74543  -0.73821  -0.73434
 Alpha  occ. eigenvalues --   -0.73058  -0.71987  -0.71673  -0.70754  -0.70642
 Alpha  occ. eigenvalues --   -0.69167  -0.68118  -0.67966  -0.67327  -0.66411
 Alpha  occ. eigenvalues --   -0.65601  -0.65382  -0.64950  -0.63855  -0.62970
 Alpha  occ. eigenvalues --   -0.62692  -0.61618  -0.60796  -0.60594  -0.59659
 Alpha  occ. eigenvalues --   -0.59098  -0.58924  -0.58649  -0.58516  -0.57532
 Alpha  occ. eigenvalues --   -0.56929  -0.56174  -0.55973  -0.55369  -0.54896
 Alpha  occ. eigenvalues --   -0.54706  -0.54330  -0.54029  -0.53748  -0.53578
 Alpha  occ. eigenvalues --   -0.53369  -0.52471  -0.52385  -0.52032  -0.51691
 Alpha  occ. eigenvalues --   -0.50856  -0.50616  -0.50380  -0.49960  -0.49625
 Alpha  occ. eigenvalues --   -0.49328  -0.49204  -0.49133  -0.48697  -0.48187
 Alpha  occ. eigenvalues --   -0.47892  -0.47606  -0.46880  -0.46676  -0.46551
 Alpha  occ. eigenvalues --   -0.45474  -0.45397  -0.44914  -0.44660  -0.44613
 Alpha  occ. eigenvalues --   -0.44311  -0.44274  -0.44120  -0.44072  -0.43379
 Alpha  occ. eigenvalues --   -0.42382  -0.41738  -0.40510  -0.40441  -0.39669
 Alpha  occ. eigenvalues --   -0.39163  -0.38741  -0.38395  -0.37865  -0.37557
 Alpha  occ. eigenvalues --   -0.37194  -0.37036  -0.35922  -0.35491  -0.35368
 Alpha  occ. eigenvalues --   -0.34194  -0.33910  -0.32007  -0.31548  -0.23968
 Alpha  occ. eigenvalues --   -0.23821  -0.21440
 Alpha virt. eigenvalues --   -0.13034  -0.12581  -0.10008  -0.09594  -0.08667
 Alpha virt. eigenvalues --   -0.08303  -0.06243  -0.05724  -0.04411  -0.03771
 Alpha virt. eigenvalues --   -0.03736  -0.02265  -0.02181  -0.02082  -0.01380

 Mulliken charges:
               1
     1  N   -0.760586
     2  H    0.419921
     3  H    0.420362
     4  H    0.403114
     5  C   -0.113741
     6  H    0.199234
     7  C    0.667569
     8  C   -0.280099
     9  H    0.155715
    10  H    0.176042
    11  O   -0.538683
    12  C   -0.095729
    13  H    0.149563
    14  C   -0.458117
    15  H    0.158311
    16  H    0.135097
    17  H    0.182387
    18  C   -0.450447
    19  H    0.156843
    20  H    0.158509
    21  H    0.172065
    22  N   -0.610657
    23  H    0.371959
    24  C   -0.067681
    25  H    0.189393
    26  C    0.645946
    27  C   -0.357600
    28  H    0.175498
    29  H    0.169551
    30  O   -0.536623
    31  C    0.084801
    32  C    0.026660
    33  H    0.173026
    34  C    0.074931
    35  C    0.323500
    36  C   -0.238726
    37  H    0.143292
    38  N   -0.681904
    39  H    0.349048
    40  C   -0.172762
    41  H    0.158654
    42  C   -0.163424
    43  H    0.157979
    44  C   -0.215106
    45  H    0.153511
    46  N   -0.612453
    47  H    0.357322
    48  C   -0.049767
    49  H    0.170748
    50  C    0.688964
    51  C   -0.063518
    52  H    0.182568
    53  H    0.149785
    54  O   -0.597441
    55  O   -0.632164
    56  H    0.418298
    57  N   -0.584487
    58  H    0.346887
    59  C   -0.033362
    60  H    0.174335
    61  C    0.592291
    62  C   -0.516434
    63  H    0.255644
    64  H    0.162481
    65  H    0.158628
    66  O   -0.534922
    67  N   -0.661073
    68  H    0.355363
    69  C   -0.102639
    70  H    0.158478
    71  C    0.593062
    72  C   -0.269346
    73  H    0.161760
    74  H    0.176502
    75  O   -0.611319
    76  C   -0.290191
    77  H    0.110263
    78  H    0.164719
    79  C   -0.283096
    80  H    0.182286
    81  H    0.144706
    82  C   -0.197500
    83  H    0.176431
    84  H    0.245597
    85  N   -0.781220
    86  H    0.437917
    87  H    0.416386
    88  H    0.379790
    89  O   -0.550871
 Sum of Mulliken charges =   1.00000

 Dipole moment (field-independent basis, Debye):
    X=            -32.3239    Y=             -0.2214    Z=              4.9611  Tot=             32.7031
 Quadrupole moment (field-independent basis, Debye-Ang):
   XX=           -219.7273   YY=           -181.3828   ZZ=           -234.9922
   XY=            -79.3865   XZ=             39.1754   YZ=             50.5677

 Normal termination of Gaussian 16 at Tue Jun 28 01:16:09 2022.
