 Gaussian 16, Revision C.01,
 Gaussian 16:  ES64L-G16RevC.01  3-Jul-2019

 -------------------------------------------------------------------
 # B3LYP/6-31G* guess=read geom=check nosymm integral(ultrafinegrid)
 -------------------------------------------------------------------

 ------------------------------------------------------
 Candidate Structure: Conf:472 Charge calc in gas phase
 ------------------------------------------------------
 Structure from the checkpoint file:  "conf-472.chk"
 Charge =  1 Multiplicity = 1

                          Input orientation:
 ---------------------------------------------------------------------
 Center     Atomic      Atomic             Coordinates (Angstroms)
 Number     Number       Type             X           Y           Z
 ---------------------------------------------------------------------
      1          7           0       -4.439246    3.775291    3.669752
      2          1           0       -4.254676    4.779866    3.608938
      3          1           0       -5.048344    3.475138    2.840680
      4          1           0       -4.900329    3.584085    4.563465
      5          6           0       -3.206293    2.918704    3.446998
      6          1           0       -2.337194    3.579260    3.431951
      7          6           0       -3.470996    2.320845    2.034167
      8          6           0       -3.075679    1.841968    4.534497
      9          1           0       -3.973637    1.208686    4.502587
     10          1           0       -2.240905    1.191595    4.245763
     11          8           0       -4.600173    2.506823    1.543372
     12          6           0       -2.836583    2.355159    5.972197
     13          1           0       -3.672162    3.018144    6.259203
     14          6           0       -2.854635    1.164801    6.944243
     15          1           0       -2.036853    0.468758    6.722848
     16          1           0       -3.796456    0.607928    6.884811
     17          1           0       -2.730917    1.507387    7.976234
     18          6           0       -1.530861    3.153557    6.102849
     19          1           0       -0.667509    2.538108    5.822259
     20          1           0       -1.515341    4.056910    5.480301
     21          1           0       -1.383127    3.477374    7.137784
     22          7           0       -2.471742    1.656465    1.481135
     23          1           0       -1.599747    1.448332    1.981449
     24          6           0       -2.541843    0.902688    0.226774
     25          1           0       -3.452764    0.294447    0.232957
     26          6           0       -1.301082   -0.024743    0.300562
     27          6           0       -2.569068    1.831933   -1.025126
     28          1           0       -3.187329    2.698171   -0.761897
     29          1           0       -1.557489    2.208259   -1.215576
     30          8           0       -0.544898    0.052335    1.275819
     31          6           0       -3.136833    1.173346   -2.249188
     32          6           0       -2.454374    0.780385   -3.379472
     33          1           0       -1.396884    0.816798   -3.598221
     34          6           0       -4.529323    0.859331   -2.479271
     35          6           0       -4.614346    0.272269   -3.770874
     36          6           0       -5.707248    1.025577   -1.727852
     37          1           0       -5.675166    1.483593   -0.742376
     38          7           0       -3.334497    0.242905   -4.290543
     39          1           0       -3.070331   -0.147297   -5.182352
     40          6           0       -6.972888    0.014609   -3.551144
     41          1           0       -7.931958   -0.306233   -3.947338
     42          6           0       -5.827456   -0.155838   -4.319543
     43          1           0       -5.874933   -0.601903   -5.309185
     44          6           0       -6.913831    0.601075   -2.270207
     45          1           0       -7.831506    0.724177   -1.701769
     46          7           0       -1.131035   -0.863814   -0.732982
     47          1           0       -1.710102   -0.760269   -1.562461
     48          6           0       -0.026096   -1.805613   -0.818272
     49          1           0        0.656433   -1.578685    0.004377
     50          6           0        0.659796   -1.637611   -2.187376
     51          6           0       -0.521228   -3.253293   -0.662244
     52          1           0        0.340156   -3.930741   -0.768719
     53          1           0       -1.228664   -3.476794   -1.476280
     54          8           0        0.016795   -1.260120   -3.169167
     55          8           0       -1.127245   -3.364738    0.612394
     56          1           0       -1.481021   -4.263012    0.698631
     57          7           0        1.964034   -1.972422   -2.224820
     58          1           0        2.463923   -2.312973   -1.407142
     59          6           0        2.748876   -1.998330   -3.450603
     60          1           0        2.140714   -2.449642   -4.243233
     61          6           0        3.969125   -2.891824   -3.155845
     62          6           0        3.179761   -0.587072   -3.892366
     63          1           0        3.758090   -0.622634   -4.821438
     64          1           0        3.795350   -0.115595   -3.119369
     65          1           0        2.290213    0.024781   -4.061935
     66          8           0        4.267790   -3.189824   -1.996158
     67          7           0        4.662181   -3.292177   -4.241772
     68          1           0        4.463608   -2.888594   -5.154141
     69          6           0        5.978581   -3.910475   -4.168632
     70          1           0        6.458318   -3.567979   -3.246208
     71          6           0        6.793595   -3.376277   -5.359455
     72          6           0        5.937275   -5.461752   -4.184682
     73          1           0        5.095206   -5.765393   -4.817306
     74          1           0        6.839124   -5.837935   -4.678940
     75          8           0        8.082674   -3.694532   -5.350926
     76          6           0        5.809803   -6.116501   -2.801486
     77          1           0        4.881195   -5.788827   -2.321357
     78          1           0        5.722236   -7.200983   -2.953909
     79          6           0        6.973282   -5.851332   -1.826142
     80          1           0        6.805272   -6.469280   -0.935578
     81          1           0        6.937771   -4.813521   -1.467076
     82          6           0        8.383468   -6.157929   -2.358216
     83          1           0        9.030860   -6.461943   -1.523609
     84          1           0        8.351583   -7.002765   -3.056238
     85          7           0        8.982231   -5.005062   -3.083857
     86          1           0        9.907929   -5.271104   -3.423624
     87          1           0        8.334979   -4.211472   -4.519112
     88          1           0        9.149548   -4.250053   -2.416693
     89          8           0        6.278627   -2.725752   -6.247530
 ---------------------------------------------------------------------

 SCF Done:  E(RB3LYP) =  -2042.50325526     A.U. after    1 cycles

 Alpha  occ. eigenvalues --  -19.26583 -19.22130 -19.22033 -19.21092 -19.19132
 Alpha  occ. eigenvalues --  -19.18816 -19.18005 -14.59425 -14.48546 -14.44498
 Alpha  occ. eigenvalues --  -14.44379 -14.43225 -14.42355 -14.41346 -10.43027
 Alpha  occ. eigenvalues --  -10.40276 -10.38164 -10.36413 -10.36348 -10.35748
 Alpha  occ. eigenvalues --  -10.33587 -10.33188 -10.32059 -10.31448 -10.31154
 Alpha  occ. eigenvalues --  -10.30531 -10.29420 -10.28828 -10.28555 -10.28328
 Alpha  occ. eigenvalues --  -10.28273 -10.28099 -10.28009 -10.25343 -10.24860
 Alpha  occ. eigenvalues --  -10.24782 -10.24770 -10.24759 -10.24627 -10.24586
 Alpha  occ. eigenvalues --  -10.24326 -10.24044 -10.24018  -1.18817  -1.13738
 Alpha  occ. eigenvalues --   -1.13454  -1.12912  -1.11195  -1.10293  -1.09451
 Alpha  occ. eigenvalues --   -1.05799  -1.05325  -1.04351  -1.01080  -0.99731
 Alpha  occ. eigenvalues --   -0.99037  -0.96737  -0.94766  -0.90325  -0.89664
 Alpha  occ. eigenvalues --   -0.87913  -0.86600  -0.85501  -0.83875  -0.82381
 Alpha  occ. eigenvalues --   -0.80472  -0.80174  -0.79572  -0.79136  -0.78401
 Alpha  occ. eigenvalues --   -0.75773  -0.75515  -0.73496  -0.73364  -0.72463
 Alpha  occ. eigenvalues --   -0.72003  -0.69904  -0.69297  -0.69015  -0.68316
 Alpha  occ. eigenvalues --   -0.67295  -0.66431  -0.65537  -0.65349  -0.65085
 Alpha  occ. eigenvalues --   -0.64450  -0.63374  -0.63048  -0.62654  -0.62246
 Alpha  occ. eigenvalues --   -0.60020  -0.59925  -0.59225  -0.58629  -0.57642
 Alpha  occ. eigenvalues --   -0.56837  -0.56607  -0.56415  -0.55470  -0.55202
 Alpha  occ. eigenvalues --   -0.55160  -0.54613  -0.54480  -0.53547  -0.53234
 Alpha  occ. eigenvalues --   -0.53160  -0.52785  -0.52664  -0.52215  -0.51699
 Alpha  occ. eigenvalues --   -0.51688  -0.51292  -0.50936  -0.50177  -0.49936
 Alpha  occ. eigenvalues --   -0.49472  -0.49345  -0.49103  -0.48934  -0.48581
 Alpha  occ. eigenvalues --   -0.48351  -0.48113  -0.47707  -0.47168  -0.47005
 Alpha  occ. eigenvalues --   -0.46639  -0.46393  -0.45948  -0.45416  -0.45384
 Alpha  occ. eigenvalues --   -0.45036  -0.44857  -0.44776  -0.44467  -0.44380
 Alpha  occ. eigenvalues --   -0.44172  -0.43696  -0.43168  -0.42470  -0.41935
 Alpha  occ. eigenvalues --   -0.41427  -0.41173  -0.40965  -0.39717  -0.39537
 Alpha  occ. eigenvalues --   -0.39457  -0.39363  -0.38653  -0.38571  -0.35688
 Alpha  occ. eigenvalues --   -0.35287  -0.34767  -0.34551  -0.33618  -0.33517
 Alpha  occ. eigenvalues --   -0.33378  -0.32764  -0.32579  -0.31862  -0.31393
 Alpha  occ. eigenvalues --   -0.28405  -0.26824
 Alpha virt. eigenvalues --   -0.11654  -0.11088  -0.07348  -0.06597  -0.06291
 Alpha virt. eigenvalues --   -0.05616  -0.04329  -0.03610  -0.03512  -0.03170
 Alpha virt. eigenvalues --   -0.01882  -0.00871  -0.00574  -0.00445   0.00024

 Mulliken charges:
               1
     1  N   -0.760544
     2  H    0.414328
     3  H    0.434714
     4  H    0.411069
     5  C   -0.115469
     6  H    0.216339
     7  C    0.657427
     8  C   -0.298542
     9  H    0.172400
    10  H    0.199586
    11  O   -0.547682
    12  C   -0.096339
    13  H    0.111329
    14  C   -0.448244
    15  H    0.168165
    16  H    0.158095
    17  H    0.173703
    18  C   -0.454876
    19  H    0.170763
    20  H    0.132397
    21  H    0.181989
    22  N   -0.615723
    23  H    0.378073
    24  C   -0.058700
    25  H    0.209609
    26  C    0.627199
    27  C   -0.357357
    28  H    0.176727
    29  H    0.164197
    30  O   -0.548037
    31  C    0.009482
    32  C    0.007551
    33  H    0.186135
    34  C    0.087027
    35  C    0.310983
    36  C   -0.227106
    37  H    0.139091
    38  N   -0.684761
    39  H    0.341497
    40  C   -0.148969
    41  H    0.137692
    42  C   -0.159484
    43  H    0.136891
    44  C   -0.140344
    45  H    0.126938
    46  N   -0.597711
    47  H    0.372568
    48  C   -0.090728
    49  H    0.198158
    50  C    0.621422
    51  C   -0.020197
    52  H    0.142238
    53  H    0.141629
    54  O   -0.548987
    55  O   -0.612285
    56  H    0.405097
    57  N   -0.611890
    58  H    0.359217
    59  C   -0.040234
    60  H    0.181387
    61  C    0.611872
    62  C   -0.453228
    63  H    0.169979
    64  H    0.162364
    65  H    0.179668
    66  O   -0.546226
    67  N   -0.610868
    68  H    0.358074
    69  C   -0.068283
    70  H    0.176532
    71  C    0.598315
    72  C   -0.271777
    73  H    0.157248
    74  H    0.154283
    75  O   -0.611801
    76  C   -0.268489
    77  H    0.162975
    78  H    0.139474
    79  C   -0.272718
    80  H    0.151642
    81  H    0.152221
    82  C   -0.147236
    83  H    0.146501
    84  H    0.163146
    85  N   -0.773206
    86  H    0.335691
    87  H    0.474645
    88  H    0.326672
    89  O   -0.476376
 Sum of Mulliken charges =   1.00000

 Dipole moment (field-independent basis, Debye):
    X=             -7.3221    Y=              3.9936    Z=             12.4277  Tot=             14.9670
 Quadrupole moment (field-independent basis, Debye-Ang):
   XX=           -127.3104   YY=           -151.6909   ZZ=           -185.2953
   XY=            -92.3104   XZ=            -47.8626   YZ=             69.0794

 Normal termination of Gaussian 16 at Tue Jun 28 00:56:29 2022.
