 Gaussian 16, Revision C.01,
 Gaussian 16:  ES64L-G16RevC.01  3-Jul-2019

 -------------------------------------------------------------------
 # B3LYP/6-31G* guess=read geom=check nosymm integral(ultrafinegrid)
 -------------------------------------------------------------------

 -----------------------------------------------------
 Candidate Structure: Conf:18 Charge calc in gas phase
 -----------------------------------------------------
 Structure from the checkpoint file:  "conf-18.chk"
 Charge =  1 Multiplicity = 1

                          Input orientation:
 ---------------------------------------------------------------------
 Center     Atomic      Atomic             Coordinates (Angstroms)
 Number     Number       Type             X           Y           Z
 ---------------------------------------------------------------------
      1          7           0       -6.219726    2.455175    2.724098
      2          1           0       -6.444442    3.041019    1.892668
      3          1           0       -6.459131    1.467287    2.489326
      4          1           0       -6.756974    2.782681    3.531298
      5          6           0       -4.725745    2.416506    2.978052
      6          1           0       -4.331930    3.402533    2.727151
      7          6           0       -4.268000    1.325918    1.977234
      8          6           0       -4.458440    2.039009    4.441751
      9          1           0       -4.982646    2.756868    5.090700
     10          1           0       -4.899879    1.050017    4.622044
     11          8           0       -5.030763    0.368937    1.805302
     12          6           0       -2.965085    2.014587    4.839587
     13          1           0       -2.443117    1.326334    4.160446
     14          6           0       -2.303926    3.397571    4.728339
     15          1           0       -2.809802    4.129448    5.370965
     16          1           0       -2.301734    3.792771    3.705153
     17          1           0       -1.257900    3.345422    5.045561
     18          6           0       -2.829734    1.459128    6.265457
     19          1           0       -3.334524    2.107751    6.992336
     20          1           0       -3.262087    0.455675    6.349999
     21          1           0       -1.775843    1.395677    6.554404
     22          7           0       -3.111950    1.543594    1.349786
     23          1           0       -2.462992    2.276089    1.641506
     24          6           0       -2.559828    0.714877    0.285010
     25          1           0       -2.856263   -0.324464    0.451606
     26          6           0       -1.028988    0.899506    0.387041
     27          6           0       -3.054523    1.187477   -1.120785
     28          1           0       -2.642193    2.188002   -1.301900
     29          1           0       -2.603697    0.528036   -1.871143
     30          8           0       -0.574672    1.855179    1.023149
     31          6           0       -4.548343    1.199478   -1.271961
     32          6           0       -5.325225    0.173047   -1.750049
     33          1           0       -5.025330   -0.781023   -2.162275
     34          6           0       -5.464541    2.236471   -0.862632
     35          6           0       -6.786009    1.749938   -1.096352
     36          6           0       -5.311474    3.525453   -0.320040
     37          1           0       -4.320974    3.949149   -0.175687
     38          7           0       -6.662236    0.494547   -1.642093
     39          1           0       -7.424445   -0.082544   -1.965179
     40          6           0       -7.745944    3.749738   -0.208283
     41          1           0       -8.612631    4.357122    0.036123
     42          6           0       -7.928374    2.489807   -0.770916
     43          1           0       -8.925380    2.100783   -0.958241
     44          6           0       -6.446888    4.269097    0.009521
     45          1           0       -6.335460    5.281643    0.389462
     46          7           0       -0.293269    0.003608   -0.288182
     47          1           0       -0.727264   -0.696056   -0.890468
     48          6           0        1.125333    0.159315   -0.571508
     49          1           0        1.376139    1.224163   -0.602738
     50          6           0        1.354592   -0.513743   -1.933074
     51          6           0        2.020924   -0.511591    0.512735
     52          1           0        1.753161   -1.577599    0.574746
     53          1           0        1.777910   -0.042526    1.472330
     54          8           0        0.505412   -1.277449   -2.400363
     55          8           0        3.391137   -0.315926    0.265284
     56          1           0        3.709484   -1.013602   -0.360593
     57          7           0        2.540008   -0.220260   -2.511562
     58          1           0        3.194582    0.282868   -1.920600
     59          6           0        3.138235   -1.071258   -3.532065
     60          1           0        2.314228   -1.559373   -4.058859
     61          6           0        4.012874   -2.163168   -2.856747
     62          6           0        3.966410   -0.229318   -4.515556
     63          1           0        4.430341   -0.860571   -5.278619
     64          1           0        4.769307    0.301555   -3.989514
     65          1           0        3.328519    0.510994   -5.007775
     66          8           0        4.256431   -2.138404   -1.630075
     67          7           0        4.478426   -3.073057   -3.706121
     68          1           0        4.359607   -2.968170   -4.735881
     69          6           0        5.652805   -3.927090   -3.559163
     70          1           0        6.463313   -3.348045   -3.094626
     71          6           0        6.109442   -4.256504   -5.061584
     72          6           0        5.458734   -5.224004   -2.775464
     73          1           0        4.484089   -5.664058   -3.026998
     74          1           0        6.236849   -5.895104   -3.160823
     75          8           0        7.021549   -5.092127   -5.153775
     76          6           0        5.604500   -5.084397   -1.254990
     77          1           0        6.538464   -4.546797   -1.038530
     78          1           0        4.794864   -4.476229   -0.837275
     79          6           0        5.663640   -6.466382   -0.579140
     80          1           0        6.443939   -7.063925   -1.073214
     81          1           0        4.710095   -6.995641   -0.719047
     82          6           0        5.978213   -6.346544    0.900732
     83          1           0        6.918517   -5.821570    1.085603
     84          1           0        5.181119   -5.865531    1.472631
     85          7           0        6.158078   -7.744224    1.521384
     86          1           0        6.381787   -7.711817    2.523087
     87          1           0        5.304993   -8.303309    1.402873
     88          1           0        6.915120   -8.247721    1.043035
     89          8           0        5.472617   -3.611558   -5.939319
 ---------------------------------------------------------------------

 SCF Done:  E(RB3LYP) =  -2042.42671965     A.U. after    3 cycles

 Alpha  occ. eigenvalues --  -19.24252 -19.20524 -19.18225 -19.17922 -19.15652
 Alpha  occ. eigenvalues --  -19.06649 -19.05614 -14.62380 -14.57785 -14.47706
 Alpha  occ. eigenvalues --  -14.47536 -14.43927 -14.41092 -14.36552 -10.41492
 Alpha  occ. eigenvalues --  -10.38768 -10.38519 -10.37582 -10.34647 -10.33500
 Alpha  occ. eigenvalues --  -10.31969 -10.31833 -10.31766 -10.31275 -10.30207
 Alpha  occ. eigenvalues --  -10.29994 -10.29415 -10.29211 -10.29185 -10.29157
 Alpha  occ. eigenvalues --  -10.29099 -10.28902 -10.28796 -10.28517 -10.27676
 Alpha  occ. eigenvalues --  -10.27359 -10.27242 -10.26716 -10.24947 -10.24578
 Alpha  occ. eigenvalues --  -10.22269 -10.21891 -10.21111  -1.16823  -1.16194
 Alpha  occ. eigenvalues --   -1.12504  -1.11711  -1.09692  -1.07551  -1.06524
 Alpha  occ. eigenvalues --   -1.05612  -1.04267  -1.00427  -0.99729  -0.97849
 Alpha  occ. eigenvalues --   -0.94153  -0.93877  -0.93281  -0.91689  -0.90940
 Alpha  occ. eigenvalues --   -0.90253  -0.87561  -0.85666  -0.83748  -0.83350
 Alpha  occ. eigenvalues --   -0.82797  -0.81651  -0.79841  -0.78833  -0.77768
 Alpha  occ. eigenvalues --   -0.77062  -0.75743  -0.74840  -0.74340  -0.72253
 Alpha  occ. eigenvalues --   -0.71982  -0.71578  -0.70656  -0.70207  -0.69642
 Alpha  occ. eigenvalues --   -0.69101  -0.68278  -0.66776  -0.66027  -0.65827
 Alpha  occ. eigenvalues --   -0.64987  -0.64130  -0.63574  -0.63144  -0.62419
 Alpha  occ. eigenvalues --   -0.61224  -0.60168  -0.59340  -0.58847  -0.58843
 Alpha  occ. eigenvalues --   -0.57784  -0.57506  -0.57081  -0.56640  -0.56326
 Alpha  occ. eigenvalues --   -0.55387  -0.53772  -0.53700  -0.53576  -0.53226
 Alpha  occ. eigenvalues --   -0.52968  -0.52712  -0.52472  -0.52256  -0.51768
 Alpha  occ. eigenvalues --   -0.51656  -0.51284  -0.50595  -0.50428  -0.49467
 Alpha  occ. eigenvalues --   -0.49007  -0.48929  -0.48899  -0.48408  -0.48130
 Alpha  occ. eigenvalues --   -0.47999  -0.47356  -0.47040  -0.46837  -0.46535
 Alpha  occ. eigenvalues --   -0.46088  -0.45790  -0.44955  -0.44747  -0.44364
 Alpha  occ. eigenvalues --   -0.44070  -0.43660  -0.43443  -0.43250  -0.43205
 Alpha  occ. eigenvalues --   -0.43023  -0.42721  -0.42429  -0.41737  -0.41047
 Alpha  occ. eigenvalues --   -0.39961  -0.38874  -0.38376  -0.38208  -0.37965
 Alpha  occ. eigenvalues --   -0.37395  -0.36986  -0.36652  -0.35988  -0.35103
 Alpha  occ. eigenvalues --   -0.34690  -0.34040  -0.32628  -0.32218  -0.31559
 Alpha  occ. eigenvalues --   -0.30829  -0.29874  -0.29159  -0.27916  -0.21714
 Alpha  occ. eigenvalues --   -0.21507  -0.19997
 Alpha virt. eigenvalues --   -0.13060  -0.11474  -0.10937  -0.08589  -0.07451
 Alpha virt. eigenvalues --   -0.06521  -0.06423  -0.06189  -0.04131  -0.03671
 Alpha virt. eigenvalues --   -0.03382  -0.02650  -0.02312  -0.01292  -0.00818

 Mulliken charges:
               1
     1  N   -0.761485
     2  H    0.418797
     3  H    0.418865
     4  H    0.399478
     5  C   -0.112484
     6  H    0.198555
     7  C    0.665532
     8  C   -0.278937
     9  H    0.152138
    10  H    0.172807
    11  O   -0.543400
    12  C   -0.095363
    13  H    0.154161
    14  C   -0.457712
    15  H    0.153915
    16  H    0.140372
    17  H    0.181726
    18  C   -0.449945
    19  H    0.153938
    20  H    0.154891
    21  H    0.169378
    22  N   -0.609877
    23  H    0.372071
    24  C   -0.064671
    25  H    0.189915
    26  C    0.627933
    27  C   -0.369007
    28  H    0.172320
    29  H    0.182949
    30  O   -0.544534
    31  C    0.088636
    32  C    0.025727
    33  H    0.177760
    34  C    0.075633
    35  C    0.324772
    36  C   -0.239117
    37  H    0.144637
    38  N   -0.683245
    39  H    0.346781
    40  C   -0.170218
    41  H    0.153900
    42  C   -0.163594
    43  H    0.153845
    44  C   -0.218046
    45  H    0.150060
    46  N   -0.615145
    47  H    0.358900
    48  C   -0.077886
    49  H    0.188007
    50  C    0.597629
    51  C   -0.025226
    52  H    0.126353
    53  H    0.156202
    54  O   -0.545836
    55  O   -0.657054
    56  H    0.442921
    57  N   -0.577734
    58  H    0.340946
    59  C   -0.085693
    60  H    0.198475
    61  C    0.617967
    62  C   -0.465503
    63  H    0.206256
    64  H    0.151369
    65  H    0.160845
    66  O   -0.595951
    67  N   -0.598006
    68  H    0.371563
    69  C   -0.069456
    70  H    0.138549
    71  C    0.585452
    72  C   -0.263575
    73  H    0.129991
    74  H    0.175101
    75  O   -0.581473
    76  C   -0.271142
    77  H    0.144727
    78  H    0.173953
    79  C   -0.291613
    80  H    0.165400
    81  H    0.159357
    82  C   -0.205963
    83  H    0.226393
    84  H    0.221934
    85  N   -0.731125
    86  H    0.422071
    87  H    0.421921
    88  H    0.425779
    89  O   -0.609533
 Sum of Mulliken charges =   1.00000

 Dipole moment (field-independent basis, Debye):
    X=            -16.3271    Y=             -9.6559    Z=             27.7573  Tot=             33.6196
 Quadrupole moment (field-independent basis, Debye-Ang):
   XX=            -63.5101   YY=            -44.3255   ZZ=           -285.8967
   XY=           -157.6408   XZ=             87.6451   YZ=            -89.3348

 Normal termination of Gaussian 16 at Tue Jun 28 01:16:55 2022.
