 Gaussian 16, Revision C.01,
 Gaussian 16:  ES64L-G16RevC.01  3-Jul-2019

 -------------------------------------------------------------------
 # B3LYP/6-31G* guess=read geom=check nosymm integral(ultrafinegrid)
 -------------------------------------------------------------------

 ------------------------------------------------------
 Candidate Structure: Conf:102 Charge calc in gas phase
 ------------------------------------------------------
 Structure from the checkpoint file:  "conf-102.chk"
 Charge =  1 Multiplicity = 1

                          Input orientation:
 ---------------------------------------------------------------------
 Center     Atomic      Atomic             Coordinates (Angstroms)
 Number     Number       Type             X           Y           Z
 ---------------------------------------------------------------------
      1          7           0       -1.341620   -2.000673    1.377960
      2          1           0       -1.044961   -2.668662    2.092447
      3          1           0       -1.834188   -2.474641    0.605374
      4          1           0       -0.502213   -1.566748    0.905033
      5          6           0       -2.298087   -0.952554    1.911763
      6          1           0       -3.145150   -1.504421    2.331562
      7          6           0       -2.757405   -0.267950    0.600645
      8          6           0       -1.626888   -0.071576    2.966648
      9          1           0       -0.831634    0.510133    2.483533
     10          1           0       -2.386686    0.638731    3.322531
     11          8           0       -2.823825   -0.982793   -0.408124
     12          6           0       -1.060751   -0.810064    4.202234
     13          1           0       -0.278756   -1.508598    3.861611
     14          6           0       -0.373571    0.204099    5.129294
     15          1           0       -1.095496    0.933857    5.516032
     16          1           0        0.416248    0.753854    4.605108
     17          1           0        0.081559   -0.299723    5.987881
     18          6           0       -2.129745   -1.609407    4.963554
     19          1           0       -2.936221   -0.952109    5.311263
     20          1           0       -2.588054   -2.402629    4.358982
     21          1           0       -1.694326   -2.091301    5.844720
     22          7           0       -2.959704    1.055273    0.595502
     23          1           0       -2.820110    1.582031    1.447850
     24          6           0       -2.967981    1.824143   -0.663718
     25          1           0       -3.398289    1.159992   -1.417112
     26          6           0       -1.482689    2.138374   -1.019784
     27          6           0       -3.801407    3.108728   -0.534721
     28          1           0       -3.287375    3.796584    0.146889
     29          1           0       -3.774071    3.601465   -1.514109
     30          8           0       -1.064832    3.284864   -1.097261
     31          6           0       -5.211404    2.873002   -0.079937
     32          6           0       -5.765311    3.322199    1.094301
     33          1           0       -5.325836    3.930520    1.874201
     34          6           0       -6.251983    2.146617   -0.770415
     35          6           0       -7.410677    2.193813    0.052358
     36          6           0       -6.328202    1.476658   -2.005505
     37          1           0       -5.470033    1.436824   -2.671952
     38          7           0       -7.078675    2.907795    1.187588
     39          1           0       -7.724688    3.183234    1.911249
     40          6           0       -8.658923    0.936880   -1.541828
     41          1           0       -9.582547    0.463793   -1.862401
     42          6           0       -8.618745    1.593975   -0.318202
     43          1           0       -9.495259    1.644465    0.322181
     44          6           0       -7.525295    0.880023   -2.378472
     45          1           0       -7.594964    0.365729   -3.332616
     46          7           0       -0.697489    1.028963   -1.151614
     47          1           0       -1.139239    0.116755   -1.149931
     48          6           0        0.755876    1.042381   -1.169502
     49          1           0        1.122933    1.440197   -2.125776
     50          6           0        1.245720   -0.409246   -1.008195
     51          6           0        1.385042    1.919246   -0.070017
     52          1           0        1.050370    2.949789   -0.214284
     53          1           0        2.476910    1.876256   -0.191715
     54          8           0        0.596747   -1.267515   -0.377499
     55          8           0        0.994922    1.416360    1.209447
     56          1           0        1.353161    2.023545    1.874879
     57          7           0        2.422130   -0.673012   -1.577619
     58          1           0        2.951049    0.035615   -2.088323
     59          6           0        3.143171   -1.936091   -1.470061
     60          1           0        3.122167   -2.264504   -0.424163
     61          6           0        4.594218   -1.600951   -1.888903
     62          6           0        2.531101   -3.028666   -2.364088
     63          1           0        3.076283   -3.971443   -2.255147
     64          1           0        2.569471   -2.728640   -3.415895
     65          1           0        1.488683   -3.196692   -2.081863
     66          8           0        4.849514   -0.519954   -2.424795
     67          7           0        5.504912   -2.560649   -1.653477
     68          1           0        5.255011   -3.440282   -1.212051
     69          6           0        6.895234   -2.481095   -2.087072
     70          1           0        6.936905   -1.995066   -3.064512
     71          6           0        7.422643   -3.905733   -2.198193
     72          6           0        7.770521   -1.674505   -1.073622
     73          1           0        7.535049   -0.617761   -1.235306
     74          1           0        7.422378   -1.925203   -0.063580
     75          8           0        8.433737   -3.990678   -3.045476
     76          6           0        9.296232   -1.908991   -1.165806
     77          1           0        9.580055   -2.039170   -2.214396
     78          1           0        9.803254   -0.999741   -0.823338
     79          6           0        9.805352   -3.107901   -0.313546
     80          1           0        8.973607   -3.776757   -0.058715
     81          1           0       10.167041   -2.720572    0.646181
     82          6           0       10.929266   -3.960633   -0.939181
     83          1           0       11.531863   -3.355041   -1.624660
     84          1           0       11.605084   -4.319464   -0.151207
     85          7           0       10.390658   -5.109125   -1.718283
     86          1           0       11.144500   -5.581543   -2.216256
     87          1           0        9.989191   -5.797616   -1.081025
     88          1           0        9.151478   -4.638166   -2.670902
     89          8           0        6.997881   -4.807222   -1.489504
 ---------------------------------------------------------------------

 SCF Done:  E(RB3LYP) =  -2042.50556968     A.U. after    1 cycles

 Alpha  occ. eigenvalues --  -19.25503 -19.24594 -19.23820 -19.22500 -19.21059
 Alpha  occ. eigenvalues --  -19.20440 -19.19787 -14.56736 -14.48736 -14.46612
 Alpha  occ. eigenvalues --  -14.45144 -14.44540 -14.44287 -14.41965 -10.42014
 Alpha  occ. eigenvalues --  -10.40515 -10.38752 -10.38182 -10.37637 -10.37586
 Alpha  occ. eigenvalues --  -10.34101 -10.33432 -10.33246 -10.33232 -10.31791
 Alpha  occ. eigenvalues --  -10.31378 -10.30399 -10.28929 -10.28821 -10.28542
 Alpha  occ. eigenvalues --  -10.28179 -10.27890 -10.27501 -10.27196 -10.25874
 Alpha  occ. eigenvalues --  -10.25355 -10.25283 -10.24932 -10.24908 -10.24793
 Alpha  occ. eigenvalues --  -10.24742 -10.24349 -10.23975  -1.17273  -1.15125
 Alpha  occ. eigenvalues --   -1.14895  -1.13019  -1.12314  -1.12181  -1.11186
 Alpha  occ. eigenvalues --   -1.06558  -1.05050  -1.04382  -1.03158  -1.01675
 Alpha  occ. eigenvalues --   -1.00760  -0.97313  -0.93761  -0.90103  -0.89457
 Alpha  occ. eigenvalues --   -0.88480  -0.87116  -0.86790  -0.84983  -0.83154
 Alpha  occ. eigenvalues --   -0.81756  -0.79628  -0.79485  -0.78735  -0.78120
 Alpha  occ. eigenvalues --   -0.76875  -0.76419  -0.75247  -0.73039  -0.72024
 Alpha  occ. eigenvalues --   -0.71476  -0.69977  -0.69360  -0.68615  -0.68468
 Alpha  occ. eigenvalues --   -0.68160  -0.67391  -0.66902  -0.66209  -0.65846
 Alpha  occ. eigenvalues --   -0.65248  -0.64383  -0.63438  -0.62741  -0.62370
 Alpha  occ. eigenvalues --   -0.61198  -0.60041  -0.59836  -0.58558  -0.58068
 Alpha  occ. eigenvalues --   -0.57883  -0.57736  -0.57402  -0.56406  -0.56046
 Alpha  occ. eigenvalues --   -0.55553  -0.54905  -0.54734  -0.54706  -0.54131
 Alpha  occ. eigenvalues --   -0.53581  -0.53362  -0.53181  -0.52961  -0.52684
 Alpha  occ. eigenvalues --   -0.52425  -0.52033  -0.51311  -0.50973  -0.50634
 Alpha  occ. eigenvalues --   -0.50484  -0.49871  -0.49609  -0.49467  -0.49155
 Alpha  occ. eigenvalues --   -0.49066  -0.48938  -0.48799  -0.48141  -0.47953
 Alpha  occ. eigenvalues --   -0.47712  -0.47550  -0.47307  -0.46931  -0.46072
 Alpha  occ. eigenvalues --   -0.45860  -0.45763  -0.45484  -0.45173  -0.44820
 Alpha  occ. eigenvalues --   -0.44331  -0.44113  -0.44084  -0.43949  -0.43268
 Alpha  occ. eigenvalues --   -0.42587  -0.41381  -0.40472  -0.40004  -0.39803
 Alpha  occ. eigenvalues --   -0.39608  -0.39424  -0.39255  -0.38463  -0.38387
 Alpha  occ. eigenvalues --   -0.37519  -0.36875  -0.36235  -0.34765  -0.34696
 Alpha  occ. eigenvalues --   -0.34358  -0.34078  -0.33676  -0.33278  -0.32607
 Alpha  occ. eigenvalues --   -0.28455  -0.26802
 Alpha virt. eigenvalues --   -0.12345  -0.09435  -0.07992  -0.07262  -0.06351
 Alpha virt. eigenvalues --   -0.06296  -0.05163  -0.04367  -0.03710  -0.03037
 Alpha virt. eigenvalues --   -0.01442  -0.00768  -0.00356  -0.00087   0.00134

 Mulliken charges:
               1
     1  N   -0.762220
     2  H    0.399463
     3  H    0.418726
     4  H    0.450324
     5  C   -0.123169
     6  H    0.222231
     7  C    0.653786
     8  C   -0.318486
     9  H    0.203746
    10  H    0.162839
    11  O   -0.543584
    12  C   -0.098004
    13  H    0.119680
    14  C   -0.446320
    15  H    0.158776
    16  H    0.148844
    17  H    0.170988
    18  C   -0.456614
    19  H    0.165385
    20  H    0.132272
    21  H    0.178558
    22  N   -0.574920
    23  H    0.349836
    24  C   -0.099005
    25  H    0.214443
    26  C    0.643975
    27  C   -0.381237
    28  H    0.161706
    29  H    0.189196
    30  O   -0.506215
    31  C    0.077585
    32  C   -0.015908
    33  H    0.148593
    34  C    0.084349
    35  C    0.309198
    36  C   -0.212285
    37  H    0.121980
    38  N   -0.687306
    39  H    0.335523
    40  C   -0.149938
    41  H    0.138801
    42  C   -0.161048
    43  H    0.134348
    44  C   -0.138349
    45  H    0.133775
    46  N   -0.658214
    47  H    0.368384
    48  C   -0.019682
    49  H    0.187432
    50  C    0.634938
    51  C   -0.060167
    52  H    0.203313
    53  H    0.149487
    54  O   -0.603118
    55  O   -0.632891
    56  H    0.411554
    57  N   -0.601962
    58  H    0.373269
    59  C   -0.047057
    60  H    0.171279
    61  C    0.624955
    62  C   -0.449845
    63  H    0.168196
    64  H    0.177114
    65  H    0.174503
    66  O   -0.538081
    67  N   -0.621194
    68  H    0.350952
    69  C   -0.011478
    70  H    0.193940
    71  C    0.577608
    72  C   -0.280346
    73  H    0.172012
    74  H    0.143575
    75  O   -0.599262
    76  C   -0.283648
    77  H    0.172227
    78  H    0.149290
    79  C   -0.291453
    80  H    0.158570
    81  H    0.152671
    82  C   -0.144870
    83  H    0.168255
    84  H    0.152134
    85  N   -0.778047
    86  H    0.337505
    87  H    0.340116
    88  H    0.460173
    89  O   -0.506458
 Sum of Mulliken charges =   1.00000

 Dipole moment (field-independent basis, Debye):
    X=              4.2383    Y=             -6.3531    Z=              9.3552  Tot=             12.0766
 Quadrupole moment (field-independent basis, Debye-Ang):
   XX=            -75.1233   YY=           -214.9448   ZZ=           -219.6363
   XY=            -58.2967   XZ=            -30.3631   YZ=              8.6521

 Normal termination of Gaussian 16 at Tue Jun 28 00:56:24 2022.
