 Gaussian 16, Revision C.01,
 Gaussian 16:  ES64L-G16RevC.01  3-Jul-2019

 -------------------------------------------------------------------
 # B3LYP/6-31G* guess=read geom=check nosymm integral(ultrafinegrid)
 -------------------------------------------------------------------

 -----------------------------------------------------
 Candidate Structure: Conf:18 Charge calc in gas phase
 -----------------------------------------------------
 Structure from the checkpoint file:  "conf-18.chk"
 Charge =  1 Multiplicity = 1

                          Input orientation:
 ---------------------------------------------------------------------
 Center     Atomic      Atomic             Coordinates (Angstroms)
 Number     Number       Type             X           Y           Z
 ---------------------------------------------------------------------
      1          7           0       -1.412608    0.005827   -4.344419
      2          1           0       -2.085753   -0.722123   -4.600909
      3          1           0       -1.896251    0.711404   -3.716655
      4          1           0       -1.061254    0.446327   -5.199302
      5          6           0       -0.290613   -0.498337   -3.448006
      6          1           0       -0.242904   -1.585456   -3.548726
      7          6           0       -0.773022   -0.045247   -2.043297
      8          6           0        1.046432    0.166494   -3.849208
      9          1           0        1.076686    1.196277   -3.476592
     10          1           0        1.088501    0.212064   -4.947637
     11          8           0       -1.653613    0.827777   -1.999798
     12          6           0        2.297412   -0.573161   -3.356145
     13          1           0        2.239853   -0.772897   -2.280429
     14          1           0        2.428629   -1.520941   -3.886302
     15          6           0        3.567658    0.297111   -3.536200
     16          8           0        3.484901    1.468391   -3.014894
     17          8           0        4.543477   -0.198168   -4.120898
     18          7           0       -0.180948   -0.602534   -0.985660
     19          1           0        0.627056   -1.202302   -1.137489
     20          6           0       -0.176079    0.009395    0.355038
     21          1           0       -0.814989    0.892862    0.307323
     22          6           0        1.300515    0.398497    0.578389
     23          6           0       -0.660716   -0.966854    1.442399
     24          1           0       -0.557857   -0.457312    2.410792
     25          1           0        0.032348   -1.817944    1.466783
     26          8           0        2.191241   -0.343688    0.162010
     27          6           0       -2.107564   -1.474854    1.284736
     28          1           0       -2.180837   -1.976088    0.308142
     29          6           0       -2.405953   -2.519327    2.371342
     30          1           0       -2.352945   -2.072391    3.372005
     31          1           0       -3.411928   -2.934663    2.247553
     32          1           0       -1.692596   -3.350981    2.338324
     33          6           0       -3.140547   -0.337763    1.317722
     34          1           0       -3.069064    0.231375    2.253763
     35          1           0       -3.019384    0.361209    0.482589
     36          1           0       -4.157126   -0.741916    1.258490
     37          7           0        1.536786    1.569331    1.204182
     38          1           0        0.788299    2.134781    1.588329
     39          6           0        2.889461    2.093299    1.348789
     40          1           0        3.566983    1.249869    1.510290
     41          6           0        2.884341    2.996061    2.573369
     42          6           0        3.323892    2.865424    0.069318
     43          1           0        2.864536    3.863804    0.084552
     44          1           0        2.911438    2.328026   -0.790852
     45          8           0        1.879304    3.444225    3.081644
     46          6           0        4.841075    2.959439   -0.139373
     47          1           0        5.348793    3.332762    0.757445
     48          1           0        5.224228    1.951508   -0.338834
     49          6           0        5.165415    3.867401   -1.339099
     50          1           0        5.032350    4.921653   -1.076189
     51          1           0        4.485570    3.660299   -2.168721
     52          7           0        6.540679    3.722359   -1.833983
     53          1           0        7.270606    4.119410   -1.257204
     54          7           0        6.044945    1.985705   -3.296051
     55          1           0        6.310760    1.212829   -3.899181
     56          1           0        4.991601    1.931578   -3.096344
     57          7           0        8.262737    2.571452   -2.883820
     58          1           0        8.549952    1.976353   -3.648726
     59          1           0        8.884501    3.347440   -2.701663
     60          6           0        6.924075    2.744454   -2.686391
     61          8           0        4.128054    3.277401    3.004868
     62          1           0        4.035190    3.882147    3.766964
 ---------------------------------------------------------------------

 SCF Done:  E(RB3LYP) =  -1447.40521987     A.U. after    2 cycles

 Alpha  occ. eigenvalues --  -19.29328 -19.26381 -19.23657 -19.21532 -19.16186
 Alpha  occ. eigenvalues --  -19.15015 -14.59266 -14.49030 -14.47852 -14.47738
 Alpha  occ. eigenvalues --  -14.46093 -14.44105 -10.43166 -10.43100 -10.41682
 Alpha  occ. eigenvalues --  -10.39696 -10.38777 -10.33999 -10.33852 -10.33324
 Alpha  occ. eigenvalues --  -10.32248 -10.31461 -10.27949 -10.27895 -10.27723
 Alpha  occ. eigenvalues --  -10.27296 -10.26764 -10.24896 -10.24595  -1.20259
 Alpha  occ. eigenvalues --   -1.18704  -1.13780  -1.13009  -1.11786  -1.11329
 Alpha  occ. eigenvalues --   -1.08819  -1.05587  -1.02522  -1.01690  -1.00004
 Alpha  occ. eigenvalues --   -0.98857  -0.92562  -0.90105  -0.89124  -0.85657
 Alpha  occ. eigenvalues --   -0.84111  -0.82239  -0.78288  -0.75971  -0.75528
 Alpha  occ. eigenvalues --   -0.74588  -0.73549  -0.73282  -0.72455  -0.70786
 Alpha  occ. eigenvalues --   -0.69847  -0.69396  -0.68703  -0.67874  -0.66195
 Alpha  occ. eigenvalues --   -0.65965  -0.63753  -0.62517  -0.61111  -0.60868
 Alpha  occ. eigenvalues --   -0.58819  -0.58314  -0.58167  -0.57560  -0.57449
 Alpha  occ. eigenvalues --   -0.56896  -0.56010  -0.55650  -0.55238  -0.54854
 Alpha  occ. eigenvalues --   -0.53765  -0.53364  -0.53131  -0.52522  -0.52339
 Alpha  occ. eigenvalues --   -0.51342  -0.50783  -0.50060  -0.49246  -0.49136
 Alpha  occ. eigenvalues --   -0.48405  -0.47924  -0.47674  -0.47340  -0.46929
 Alpha  occ. eigenvalues --   -0.46361  -0.45912  -0.45693  -0.44411  -0.44318
 Alpha  occ. eigenvalues --   -0.43740  -0.42550  -0.42240  -0.41233  -0.41118
 Alpha  occ. eigenvalues --   -0.40963  -0.40736  -0.40355  -0.39009  -0.38106
 Alpha  occ. eigenvalues --   -0.37404  -0.36385  -0.35283  -0.34848  -0.31485
 Alpha  occ. eigenvalues --   -0.31106  -0.29260
 Alpha virt. eigenvalues --   -0.11802  -0.10320  -0.08611  -0.07566  -0.07326
 Alpha virt. eigenvalues --   -0.05896  -0.04697  -0.03594  -0.01698  -0.01335
 Alpha virt. eigenvalues --   -0.00996  -0.00543   0.00070   0.00862   0.01296

 Mulliken charges:
               1
     1  N   -0.754590
     2  H    0.413984
     3  H    0.431012
     4  H    0.412054
     5  C   -0.111324
     6  H    0.210866
     7  C    0.644509
     8  C   -0.302334
     9  H    0.203915
    10  H    0.160758
    11  O   -0.538167
    12  C   -0.373110
    13  H    0.182415
    14  H    0.160661
    15  C    0.597587
    16  O   -0.637786
    17  O   -0.565872
    18  N   -0.573558
    19  H    0.369794
    20  C   -0.103291
    21  H    0.191667
    22  C    0.645400
    23  C   -0.263037
    24  H    0.156044
    25  H    0.159560
    26  O   -0.533590
    27  C   -0.070570
    28  H    0.121316
    29  C   -0.446403
    30  H    0.152726
    31  H    0.156435
    32  H    0.149375
    33  C   -0.465802
    34  H    0.149160
    35  H    0.154504
    36  H    0.158418
    37  N   -0.617281
    38  H    0.357914
    39  C   -0.035556
    40  H    0.208120
    41  C    0.585823
    42  C   -0.300238
    43  H    0.145609
    44  H    0.212573
    45  O   -0.459397
    46  C   -0.273053
    47  H    0.160345
    48  H    0.170666
    49  C   -0.179842
    50  H    0.172047
    51  H    0.211198
    52  N   -0.601681
    53  H    0.345542
    54  N   -0.798717
    55  H    0.366843
    56  H    0.454093
    57  N   -0.760245
    58  H    0.368239
    59  H    0.359452
    60  C    0.797128
    61  O   -0.559673
    62  H    0.427364
 Sum of Mulliken charges =   1.00000

 Dipole moment (field-independent basis, Debye):
    X=              9.4667    Y=              7.2643    Z=            -11.3080  Tot=             16.4396
 Quadrupole moment (field-independent basis, Debye-Ang):
   XX=            -38.1585   YY=           -134.3638   ZZ=           -101.3885
   XY=             74.4907   XZ=              2.2485   YZ=             -3.8012

 Normal termination of Gaussian 16 at Fri May 27 00:59:20 2022.
