 Gaussian 16, Revision C.01,
 Gaussian 16:  ES64L-G16RevC.01  3-Jul-2019

 -------------------------------------------------------------------
 # B3LYP/6-31G* guess=read geom=check nosymm integral(ultrafinegrid)
 -------------------------------------------------------------------

 ------------------------------------------------------
 Candidate Structure: Conf:797 Charge calc in gas phase
 ------------------------------------------------------
 Structure from the checkpoint file:  "conf-797.chk"
 Charge =  1 Multiplicity = 1

                          Input orientation:
 ---------------------------------------------------------------------
 Center     Atomic      Atomic             Coordinates (Angstroms)
 Number     Number       Type             X           Y           Z
 ---------------------------------------------------------------------
      1          7           0       -2.597185   -3.446870   -2.014250
      2          1           0       -2.847663   -3.211456   -1.007213
      3          1           0       -3.174624   -2.875895   -2.640901
      4          1           0       -2.752546   -4.434204   -2.228928
      5          6           0       -1.137150   -3.027465   -2.073489
      6          1           0       -0.562209   -3.935449   -1.862603
      7          6           0       -1.009415   -2.119357   -0.814177
      8          6           0       -0.756767   -2.466949   -3.442661
      9          1           0       -0.957553   -3.246745   -4.188209
     10          1           0        0.327428   -2.312886   -3.451370
     11          8           0       -1.909924   -2.224588    0.038102
     12          6           0       -1.433854   -1.139746   -3.822724
     13          1           0       -1.800077   -1.177010   -4.853015
     14          1           0       -2.320267   -0.916118   -3.209696
     15          6           0       -0.519397    0.114365   -3.739720
     16          8           0        0.650178   -0.019495   -3.264451
     17          8           0       -1.046737    1.158335   -4.184610
     18          7           0        0.088115   -1.380242   -0.712134
     19          1           0        0.619833   -1.169142   -1.563175
     20          6           0        0.420425   -0.592820    0.492325
     21          1           0       -0.382326    0.133803    0.660468
     22          6           0        1.757259    0.096600    0.180130
     23          6           0        0.597992   -1.497856    1.732359
     24          1           0        1.413747   -2.192803    1.502438
     25          1           0       -0.317142   -2.083573    1.865033
     26          8           0        2.716990   -0.566412   -0.200592
     27          6           0        0.910625   -0.750495    3.046108
     28          1           0        1.805983   -0.130955    2.891665
     29          6           0       -0.236010    0.170929    3.492454
     30          1           0       -1.167952   -0.394259    3.618910
     31          1           0        0.000160    0.641639    4.452983
     32          1           0       -0.431818    0.980725    2.779237
     33          6           0        1.239054   -1.772605    4.145370
     34          1           0        0.378660   -2.423408    4.346847
     35          1           0        2.083393   -2.410154    3.859798
     36          1           0        1.500293   -1.268862    5.082360
     37          7           0        1.794423    1.440175    0.362441
     38          1           0        0.981541    1.914839    0.730134
     39          6           0        3.028779    2.210489    0.241463
     40          1           0        3.853943    1.536080    0.503895
     41          6           0        3.076339    3.358150    1.250854
     42          6           0        3.267906    2.752302   -1.187108
     43          1           0        4.004281    3.560463   -1.120764
     44          1           0        2.328087    3.193373   -1.543213
     45          8           0        3.946987    4.194093    1.269530
     46          6           0        3.761653    1.680080   -2.170956
     47          1           0        4.801765    1.421442   -1.938702
     48          1           0        3.191261    0.754169   -2.065832
     49          6           0        3.697929    2.141012   -3.629579
     50          1           0        4.268535    1.453572   -4.267203
     51          1           0        4.150873    3.135669   -3.719449
     52          7           0        2.306209    2.202762   -4.085499
     53          1           0        1.675234    1.443357   -3.757503
     54          7           0        2.609258    3.955838   -5.606823
     55          1           0        2.221749    4.798577   -6.004081
     56          1           0        3.611220    3.914343   -5.512401
     57          7           0        0.483732    3.166605   -5.127224
     58          1           0        0.141404    3.620279   -5.962871
     59          1           0       -0.136850    2.442230   -4.685004
     60          6           0        1.803997    3.096517   -4.936226
     61          8           0        2.041705    3.343128    2.125849
     62          1           0        2.171625    4.104843    2.723475
 ---------------------------------------------------------------------

 SCF Done:  E(RB3LYP) =  -1447.42363550     A.U. after    2 cycles

 Alpha  occ. eigenvalues --  -19.29133 -19.25538 -19.22846 -19.20826 -19.19462
 Alpha  occ. eigenvalues --  -19.18348 -14.58805 -14.48324 -14.47941 -14.46635
 Alpha  occ. eigenvalues --  -14.45947 -14.45163 -10.43462 -10.42182 -10.41298
 Alpha  occ. eigenvalues --  -10.39482 -10.38278 -10.37082 -10.33471 -10.33376
 Alpha  occ. eigenvalues --  -10.32864 -10.31751 -10.29356 -10.27945 -10.27500
 Alpha  occ. eigenvalues --  -10.26795 -10.26771 -10.24842 -10.24172  -1.19794
 Alpha  occ. eigenvalues --   -1.17928  -1.13161  -1.12538  -1.12285  -1.11652
 Alpha  occ. eigenvalues --   -1.10739  -1.04614  -1.03330  -1.02328  -1.01472
 Alpha  occ. eigenvalues --   -0.99670  -0.92692  -0.89892  -0.88788  -0.85579
 Alpha  occ. eigenvalues --   -0.84556  -0.82474  -0.78237  -0.76136  -0.75559
 Alpha  occ. eigenvalues --   -0.74733  -0.74143  -0.73184  -0.71240  -0.70739
 Alpha  occ. eigenvalues --   -0.69706  -0.68987  -0.68577  -0.67928  -0.65808
 Alpha  occ. eigenvalues --   -0.64918  -0.63773  -0.62243  -0.61234  -0.61129
 Alpha  occ. eigenvalues --   -0.60305  -0.59656  -0.58217  -0.57937  -0.57566
 Alpha  occ. eigenvalues --   -0.57015  -0.56925  -0.56094  -0.55427  -0.54360
 Alpha  occ. eigenvalues --   -0.54099  -0.53537  -0.53110  -0.52303  -0.52072
 Alpha  occ. eigenvalues --   -0.51214  -0.50839  -0.50482  -0.49878  -0.49709
 Alpha  occ. eigenvalues --   -0.49267  -0.48829  -0.48541  -0.48064  -0.46757
 Alpha  occ. eigenvalues --   -0.46544  -0.45740  -0.45269  -0.44845  -0.44693
 Alpha  occ. eigenvalues --   -0.43939  -0.43573  -0.43219  -0.41227  -0.40730
 Alpha  occ. eigenvalues --   -0.40608  -0.40316  -0.39237  -0.38742  -0.37479
 Alpha  occ. eigenvalues --   -0.37169  -0.36196  -0.34847  -0.34398  -0.34337
 Alpha  occ. eigenvalues --   -0.34049  -0.32820
 Alpha virt. eigenvalues --   -0.11914  -0.09353  -0.08191  -0.07681  -0.07420
 Alpha virt. eigenvalues --   -0.05387  -0.04327  -0.03620  -0.02805  -0.02381
 Alpha virt. eigenvalues --   -0.00827   0.00034   0.00188   0.01118   0.01989

 Mulliken charges:
               1
     1  N   -0.751640
     2  H    0.431722
     3  H    0.410002
     4  H    0.411633
     5  C   -0.125681
     6  H    0.228111
     7  C    0.654040
     8  C   -0.299672
     9  H    0.164488
    10  H    0.217045
    11  O   -0.554927
    12  C   -0.387940
    13  H    0.191895
    14  H    0.146870
    15  C    0.611900
    16  O   -0.605789
    17  O   -0.573240
    18  N   -0.634014
    19  H    0.400520
    20  C   -0.007892
    21  H    0.166719
    22  C    0.600006
    23  C   -0.279248
    24  H    0.165147
    25  H    0.169974
    26  O   -0.526462
    27  C   -0.089133
    28  H    0.136273
    29  C   -0.447031
    30  H    0.153792
    31  H    0.158979
    32  H    0.126469
    33  C   -0.446387
    34  H    0.146927
    35  H    0.152382
    36  H    0.155700
    37  N   -0.608008
    38  H    0.354454
    39  C   -0.056158
    40  H    0.217190
    41  C    0.586958
    42  C   -0.269189
    43  H    0.180983
    44  H    0.150356
    45  O   -0.441376
    46  C   -0.306295
    47  H    0.164760
    48  H    0.204457
    49  C   -0.154056
    50  H    0.179818
    51  H    0.148791
    52  N   -0.633937
    53  H    0.417315
    54  N   -0.768071
    55  H    0.368873
    56  H    0.373069
    57  N   -0.793810
    58  H    0.347790
    59  H    0.430842
    60  C    0.783089
    61  O   -0.578599
    62  H    0.429210
 Sum of Mulliken charges =   1.00000

 Dipole moment (field-independent basis, Debye):
    X=             -1.1270    Y=             -1.3935    Z=            -13.6040  Tot=             13.7215
 Quadrupole moment (field-independent basis, Debye-Ang):
   XX=           -140.6160   YY=            -90.6533   ZZ=            -87.5235
   XY=             48.5589   XZ=            -10.4520   YZ=            -12.9647

 Normal termination of Gaussian 16 at Fri May 27 00:59:22 2022.
