 Gaussian 16, Revision C.01,
 Gaussian 16:  ES64L-G16RevC.01  3-Jul-2019

 -------------------------------------------------------------------
 # B3LYP/6-31G* guess=read geom=check nosymm integral(ultrafinegrid)
 -------------------------------------------------------------------

 ------------------------------------------------------
 Candidate Structure: Conf:535 Charge calc in gas phase
 ------------------------------------------------------
 Structure from the checkpoint file:  "conf-535.chk"
 Charge =  1 Multiplicity = 1

                          Input orientation:
 ---------------------------------------------------------------------
 Center     Atomic      Atomic             Coordinates (Angstroms)
 Number     Number       Type             X           Y           Z
 ---------------------------------------------------------------------
      1          7           0       -2.216499   -1.400611   -4.063570
      2          1           0       -3.039585   -2.009361   -4.073230
      3          1           0       -2.506669   -0.441626   -3.732237
      4          1           0       -1.820641   -1.369576   -5.009666
      5          6           0       -1.175935   -1.808712   -3.040601
      6          1           0       -1.367669   -2.844767   -2.750799
      7          6           0       -1.386102   -0.795796   -1.887853
      8          6           0        0.242010   -1.602829   -3.596251
      9          1           0        0.933379   -1.858793   -2.786364
     10          1           0        0.400163   -0.535677   -3.786717
     11          8           0       -2.079394    0.203807   -2.108068
     12          6           0        0.654158   -2.373570   -4.854356
     13          1           0        0.562640   -3.457065   -4.734184
     14          1           0        0.057877   -2.075111   -5.732465
     15          6           0        2.144272   -2.016118   -5.142026
     16          8           0        2.941316   -2.918547   -5.406074
     17          8           0        2.398601   -0.760819   -5.010262
     18          7           0       -0.702430   -1.053886   -0.764569
     19          1           0       -0.044465   -1.829978   -0.788863
     20          6           0       -0.256287   -0.011150    0.172085
     21          1           0       -0.718342    0.927232   -0.142442
     22          6           0        1.280611    0.036690   -0.019001
     23          6           0       -0.675558   -0.372806    1.615197
     24          1           0       -0.189044   -1.320802    1.881035
     25          1           0       -1.754972   -0.570478    1.586166
     26          8           0        1.873823   -0.965104   -0.422342
     27          6           0       -0.383779    0.677100    2.707564
     28          1           0        0.697379    0.865332    2.741796
     29          6           0       -1.101455    2.011887    2.447365
     30          1           0       -2.188253    1.870701    2.391655
     31          1           0       -0.899298    2.720750    3.256922
     32          1           0       -0.789316    2.496157    1.512104
     33          6           0       -0.791372    0.108934    4.076261
     34          1           0       -1.868958   -0.094770    4.115024
     35          1           0       -0.264029   -0.826645    4.294720
     36          1           0       -0.557261    0.819056    4.876212
     37          7           0        1.906963    1.216206    0.233668
     38          1           0        1.402250    1.932048    0.743907
     39          6           0        3.362021    1.310390    0.240099
     40          1           0        3.735071    0.340370   -0.096711
     41          6           0        3.842034    1.541611    1.673199
     42          6           0        3.909436    2.433340   -0.677125
     43          1           0        5.002641    2.368974   -0.644887
     44          1           0        3.647614    3.406345   -0.241152
     45          8           0        3.125741    1.852011    2.598481
     46          6           0        3.396874    2.411241   -2.125754
     47          1           0        2.306185    2.515261   -2.122669
     48          1           0        3.778671    3.307245   -2.634782
     49          6           0        3.718357    1.178774   -2.974798
     50          1           0        3.209018    1.271022   -3.939340
     51          1           0        3.339321    0.263107   -2.509911
     52          7           0        5.167715    1.018853   -3.176280
     53          1           0        5.742923    1.845253   -3.073036
     54          7           0        4.936677   -0.809595   -4.595058
     55          1           0        5.325511   -1.660164   -4.985408
     56          1           0        3.853272   -0.703759   -4.788094
     57          7           0        7.059951   -0.035698   -3.983903
     58          1           0        7.488128   -0.754040   -4.550808
     59          1           0        7.590307    0.254085   -3.173861
     60          6           0        5.698173    0.027650   -3.934416
     61          8           0        5.176587    1.394264    1.772527
     62          1           0        5.420059    1.581510    2.700113
 ---------------------------------------------------------------------

 SCF Done:  E(RB3LYP) =  -1447.39867754     A.U. after    1 cycles

 Alpha  occ. eigenvalues --  -19.29924 -19.26533 -19.24426 -19.23502 -19.16487
 Alpha  occ. eigenvalues --  -19.15223 -14.59328 -14.48969 -14.47873 -14.47837
 Alpha  occ. eigenvalues --  -14.47715 -14.44532 -10.43200 -10.43153 -10.42410
 Alpha  occ. eigenvalues --  -10.40539 -10.39460 -10.34955 -10.34554 -10.34179
 Alpha  occ. eigenvalues --  -10.32224 -10.30884 -10.30175 -10.29740 -10.28573
 Alpha  occ. eigenvalues --  -10.27856 -10.27651 -10.25925 -10.24911  -1.20904
 Alpha  occ. eigenvalues --   -1.18755  -1.15444  -1.13251  -1.12023  -1.11792
 Alpha  occ. eigenvalues --   -1.09297  -1.05932  -1.04007  -1.01722  -1.00637
 Alpha  occ. eigenvalues --   -0.98894  -0.92876  -0.91131  -0.89926  -0.86270
 Alpha  occ. eigenvalues --   -0.85081  -0.82726  -0.79065  -0.76624  -0.75408
 Alpha  occ. eigenvalues --   -0.74320  -0.73842  -0.73372  -0.73040  -0.71623
 Alpha  occ. eigenvalues --   -0.71372  -0.70229  -0.69517  -0.68226  -0.66131
 Alpha  occ. eigenvalues --   -0.65533  -0.64905  -0.62440  -0.61507  -0.61256
 Alpha  occ. eigenvalues --   -0.59750  -0.59623  -0.58854  -0.58546  -0.58023
 Alpha  occ. eigenvalues --   -0.57468  -0.56794  -0.56226  -0.55844  -0.54950
 Alpha  occ. eigenvalues --   -0.54706  -0.54449  -0.53421  -0.52782  -0.52636
 Alpha  occ. eigenvalues --   -0.52093  -0.51488  -0.50760  -0.50601  -0.49834
 Alpha  occ. eigenvalues --   -0.49323  -0.49044  -0.48414  -0.47683  -0.47040
 Alpha  occ. eigenvalues --   -0.46448  -0.46220  -0.45884  -0.45475  -0.44991
 Alpha  occ. eigenvalues --   -0.44463  -0.44374  -0.42806  -0.42370  -0.42128
 Alpha  occ. eigenvalues --   -0.41401  -0.40976  -0.40658  -0.38933  -0.38346
 Alpha  occ. eigenvalues --   -0.38218  -0.37315  -0.36736  -0.36522  -0.31969
 Alpha  occ. eigenvalues --   -0.31489  -0.29341
 Alpha virt. eigenvalues --   -0.11855  -0.10359  -0.09466  -0.09210  -0.08308
 Alpha virt. eigenvalues --   -0.05466  -0.04607  -0.03342  -0.02812  -0.01755
 Alpha virt. eigenvalues --   -0.01678  -0.01293  -0.00494  -0.00144   0.00533

 Mulliken charges:
               1
     1  N   -0.749199
     2  H    0.415187
     3  H    0.427386
     4  H    0.415439
     5  C   -0.123003
     6  H    0.210266
     7  C    0.635918
     8  C   -0.317335
     9  H    0.205276
    10  H    0.192232
    11  O   -0.528031
    12  C   -0.366559
    13  H    0.167973
    14  H    0.132767
    15  C    0.602947
    16  O   -0.545043
    17  O   -0.643364
    18  N   -0.571181
    19  H    0.364817
    20  C   -0.111929
    21  H    0.197175
    22  C    0.631412
    23  C   -0.251165
    24  H    0.153559
    25  H    0.161406
    26  O   -0.532137
    27  C   -0.112328
    28  H    0.157681
    29  C   -0.456594
    30  H    0.157328
    31  H    0.170678
    32  H    0.122433
    33  C   -0.446411
    34  H    0.149576
    35  H    0.151448
    36  H    0.162305
    37  N   -0.593608
    38  H    0.358839
    39  C   -0.069477
    40  H    0.220146
    41  C    0.593025
    42  C   -0.280217
    43  H    0.167689
    44  H    0.163062
    45  O   -0.449529
    46  C   -0.312307
    47  H    0.166636
    48  H    0.160440
    49  C   -0.143404
    50  H    0.205588
    51  H    0.194019
    52  N   -0.620480
    53  H    0.346546
    54  N   -0.786099
    55  H    0.358521
    56  H    0.469617
    57  N   -0.763428
    58  H    0.366247
    59  H    0.360763
    60  C    0.785189
    61  O   -0.559019
    62  H    0.430308
 Sum of Mulliken charges =   1.00000

 Dipole moment (field-independent basis, Debye):
    X=              6.8845    Y=              0.6946    Z=             -9.3030  Tot=             11.5942
 Quadrupole moment (field-independent basis, Debye-Ang):
   XX=            -48.9534   YY=           -159.7459   ZZ=           -129.7674
   XY=             35.5935   XZ=              3.3919   YZ=              4.7360

 Normal termination of Gaussian 16 at Fri May 27 00:59:09 2022.
