 Gaussian 16, Revision C.01,
 Gaussian 16:  ES64L-G16RevC.01  3-Jul-2019

 -------------------------------------------------------------------
 # B3LYP/6-31G* guess=read geom=check nosymm integral(ultrafinegrid)
 -------------------------------------------------------------------

 ------------------------------------------------------
 Candidate Structure: Conf:961 Charge calc in gas phase
 ------------------------------------------------------
 Structure from the checkpoint file:  "conf-961.chk"
 Charge =  1 Multiplicity = 1

                          Input orientation:
 ---------------------------------------------------------------------
 Center     Atomic      Atomic             Coordinates (Angstroms)
 Number     Number       Type             X           Y           Z
 ---------------------------------------------------------------------
      1          7           0       -1.486570   -0.524255   -4.571035
      2          1           0       -2.327034   -0.189272   -4.101285
      3          1           0       -1.097060    0.269869   -5.076873
      4          1           0       -1.890505   -2.303353   -5.262522
      5          6           0       -0.516999   -1.048823   -3.600304
      6          1           0       -1.014733   -1.883926   -3.095306
      7          6           0       -0.092366   -0.010878   -2.554384
      8          6           0        0.743562   -1.585815   -4.314094
      9          1           0        1.347546   -2.124195   -3.575077
     10          1           0        1.350781   -0.734779   -4.649140
     11          8           0        0.327372    1.113628   -2.899331
     12          6           0        0.459578   -2.498520   -5.527841
     13          1           0        0.063852   -1.902720   -6.358071
     14          1           0        1.399344   -2.949279   -5.854588
     15          6           0       -0.510692   -3.641059   -5.216720
     16          8           0       -1.813210   -3.280395   -5.144874
     17          8           0       -0.159333   -4.777795   -5.021115
     18          7           0       -0.230262   -0.379640   -1.271392
     19          1           0       -0.477701   -1.345897   -1.095577
     20          6           0        0.229345    0.384926   -0.114862
     21          1           0       -0.094229    1.421177   -0.256132
     22          6           0        1.779696    0.345916   -0.073550
     23          6           0       -0.453759   -0.220480    1.139032
     24          1           0       -0.047149   -1.229987    1.293764
     25          1           0       -1.513764   -0.344568    0.878426
     26          8           0        2.417252   -0.425798   -0.779899
     27          6           0       -0.382819    0.560145    2.468231
     28          1           0        0.662621    0.627472    2.794047
     29          6           0       -0.953478    1.982680    2.351319
     30          1           0       -1.997589    1.961535    2.014186
     31          1           0       -0.928597    2.485489    3.323335
     32          1           0       -0.394613    2.615532    1.649100
     33          6           0       -1.136302   -0.232102    3.549558
     34          1           0       -2.201487   -0.323688    3.302917
     35          1           0       -0.728895   -1.242974    3.664193
     36          1           0       -1.060259    0.270466    4.519134
     37          7           0        2.376094    1.258406    0.755506
     38          1           0        1.811264    1.727069    1.457044
     39          6           0        3.794712    1.151479    1.097073
     40          1           0        4.126217    0.149663    0.805646
     41          6           0        3.920862    1.294798    2.611440
     42          6           0        4.709004    2.184851    0.386223
     43          1           0        5.742083    1.913828    0.622097
     44          1           0        4.546389    3.183761    0.813629
     45          8           0        3.016363    1.642419    3.341162
     46          6           0        4.504399    2.218378   -1.141067
     47          1           0        5.450485    2.475929   -1.631363
     48          1           0        4.229550    1.218508   -1.491447
     49          6           0        3.405128    3.220093   -1.567998
     50          1           0        3.819752    4.208188   -1.798047
     51          1           0        2.699388    3.370908   -0.749128
     52          7           0        2.598542    2.759403   -2.699838
     53          1           0        1.817099    2.127468   -2.493166
     54          7           0        3.866740    3.676750   -4.440178
     55          1           0        3.865560    4.076858   -5.367410
     56          1           0        4.570134    4.014705   -3.801280
     57          7           0        1.867395    2.572917   -4.870611
     58          1           0        2.111396    2.473941   -5.845634
     59          1           0        1.110603    1.994887   -4.501083
     60          6           0        2.791234    3.002604   -3.989636
     61          8           0        5.165298    1.023437    3.031132
     62          1           0        5.187066    1.154670    3.999274
 ---------------------------------------------------------------------

 SCF Done:  E(RB3LYP) =  -1447.42507247     A.U. after    2 cycles

 Alpha  occ. eigenvalues --  -19.30753 -19.26084 -19.25417 -19.24280 -19.23566
 Alpha  occ. eigenvalues --  -19.19032 -14.52489 -14.51177 -14.50979 -14.49466
 Alpha  occ. eigenvalues --  -14.47727 -14.45270 -10.48127 -10.43390 -10.42051
 Alpha  occ. eigenvalues --  -10.40660 -10.37741 -10.36262 -10.35675 -10.35294
 Alpha  occ. eigenvalues --  -10.34723 -10.30996 -10.30960 -10.30316 -10.30096
 Alpha  occ. eigenvalues --  -10.28884 -10.28380 -10.26914 -10.25843  -1.21867
 Alpha  occ. eigenvalues --   -1.17236  -1.16528  -1.15351  -1.15148  -1.12997
 Alpha  occ. eigenvalues --   -1.07193  -1.06089  -1.05689  -1.04750  -1.04136
 Alpha  occ. eigenvalues --   -1.01749  -0.92702  -0.91438  -0.88927  -0.87906
 Alpha  occ. eigenvalues --   -0.86002  -0.81865  -0.80759  -0.78273  -0.77676
 Alpha  occ. eigenvalues --   -0.76256  -0.74125  -0.73868  -0.73261  -0.71304
 Alpha  occ. eigenvalues --   -0.70853  -0.70426  -0.69771  -0.66717  -0.66279
 Alpha  occ. eigenvalues --   -0.65704  -0.64897  -0.64495  -0.63167  -0.62007
 Alpha  occ. eigenvalues --   -0.61490  -0.60817  -0.59887  -0.59421  -0.59248
 Alpha  occ. eigenvalues --   -0.58759  -0.57905  -0.57449  -0.56633  -0.55844
 Alpha  occ. eigenvalues --   -0.55011  -0.54711  -0.54168  -0.53597  -0.53497
 Alpha  occ. eigenvalues --   -0.52908  -0.52447  -0.51957  -0.50971  -0.50483
 Alpha  occ. eigenvalues --   -0.50027  -0.49363  -0.48830  -0.48666  -0.47694
 Alpha  occ. eigenvalues --   -0.47558  -0.47226  -0.46870  -0.46331  -0.45824
 Alpha  occ. eigenvalues --   -0.45388  -0.44835  -0.43217  -0.43097  -0.42971
 Alpha  occ. eigenvalues --   -0.42911  -0.42328  -0.41990  -0.40959  -0.40318
 Alpha  occ. eigenvalues --   -0.39773  -0.38904  -0.37504  -0.37067  -0.36861
 Alpha  occ. eigenvalues --   -0.36826  -0.32636
 Alpha virt. eigenvalues --   -0.12128  -0.11559  -0.10378  -0.09881  -0.08489
 Alpha virt. eigenvalues --   -0.06060  -0.04939  -0.04140  -0.03510  -0.03353
 Alpha virt. eigenvalues --   -0.02458  -0.01903  -0.00445   0.00260   0.00437

 Mulliken charges:
               1
     1  N   -0.740071
     2  H    0.336378
     3  H    0.318770
     4  H    0.442715
     5  C   -0.096281
     6  H    0.180050
     7  C    0.653835
     8  C   -0.281459
     9  H    0.191437
    10  H    0.135460
    11  O   -0.594532
    12  C   -0.367646
    13  H    0.159789
    14  H    0.190433
    15  C    0.580674
    16  O   -0.587843
    17  O   -0.433443
    18  N   -0.580420
    19  H    0.360221
    20  C   -0.068136
    21  H    0.183370
    22  C    0.606033
    23  C   -0.296933
    24  H    0.160580
    25  H    0.163853
    26  O   -0.512351
    27  C   -0.110991
    28  H    0.154767
    29  C   -0.456460
    30  H    0.156452
    31  H    0.175247
    32  H    0.124179
    33  C   -0.449325
    34  H    0.152660
    35  H    0.154754
    36  H    0.166384
    37  N   -0.624341
    38  H    0.368697
    39  C   -0.048350
    40  H    0.217630
    41  C    0.588949
    42  C   -0.286821
    43  H    0.191804
    44  H    0.156506
    45  O   -0.457334
    46  C   -0.289500
    47  H    0.155178
    48  H    0.199654
    49  C   -0.174187
    50  H    0.167895
    51  H    0.192529
    52  N   -0.618260
    53  H    0.417697
    54  N   -0.758011
    55  H    0.380887
    56  H    0.382743
    57  N   -0.783866
    58  H    0.366542
    59  H    0.403782
    60  C    0.794942
    61  O   -0.551223
    62  H    0.434307
 Sum of Mulliken charges =   1.00000

 Dipole moment (field-independent basis, Debye):
    X=             12.0525    Y=             15.2606    Z=             -9.4208  Tot=             21.6079
 Quadrupole moment (field-independent basis, Debye-Ang):
   XX=           -110.2684   YY=           -161.7810   ZZ=            -91.2343
   XY=             41.2075   XZ=            -27.7153   YZ=            -61.4221

 Normal termination of Gaussian 16 at Fri May 27 01:16:40 2022.
