 Gaussian 16, Revision C.01,
 Gaussian 16:  ES64L-G16RevC.01  3-Jul-2019

 -------------------------------------------------------------------
 # B3LYP/6-31G* guess=read geom=check nosymm integral(ultrafinegrid)
 -------------------------------------------------------------------

 ------------------------------------------------------
 Candidate Structure: Conf:477 Charge calc in gas phase
 ------------------------------------------------------
 Structure from the checkpoint file:  "conf-477.chk"
 Charge =  1 Multiplicity = 1

                          Input orientation:
 ---------------------------------------------------------------------
 Center     Atomic      Atomic             Coordinates (Angstroms)
 Number     Number       Type             X           Y           Z
 ---------------------------------------------------------------------
      1          7           0       -2.699640   -1.305475   -4.224464
      2          1           0       -3.390576   -2.034302   -4.416127
      3          1           0       -3.102463   -0.538989   -3.612004
      4          1           0       -2.395121   -0.891138   -5.112176
      5          6           0       -1.505663   -1.785416   -3.413559
      6          1           0       -1.778322   -2.762349   -3.002178
      7          6           0       -1.445418   -0.747230   -2.256872
      8          6           0       -0.243854   -1.882971   -4.277564
      9          1           0       -0.383764   -2.658378   -5.039055
     10          1           0        0.578731   -2.257161   -3.659456
     11          8           0       -2.345113    0.104655   -2.192993
     12          6           0        0.194746   -0.566889   -4.927074
     13          1           0       -0.465340   -0.256328   -5.751406
     14          1           0        0.189816    0.260769   -4.206086
     15          6           0        1.630075   -0.676060   -5.522097
     16          8           0        2.076397    0.415561   -6.019675
     17          8           0        2.201658   -1.772304   -5.465631
     18          7           0       -0.430407   -0.867085   -1.403180
     19          1           0        0.343941   -1.499493   -1.601280
     20          6           0       -0.096997    0.116969   -0.367113
     21          1           0       -0.608796    1.050689   -0.614055
     22          6           0        1.432351    0.282594   -0.468172
     23          6           0       -0.481641   -0.359025    1.052285
     24          1           0       -0.068748    0.362715    1.771155
     25          1           0        0.037249   -1.309199    1.234347
     26          8           0        2.123876   -0.643575   -0.891467
     27          6           0       -1.990567   -0.526250    1.321242
     28          1           0       -2.400187   -1.197299    0.551964
     29          6           0       -2.193592   -1.200403    2.687332
     30          1           0       -1.798160   -0.574912    3.497448
     31          1           0       -3.258132   -1.364097    2.886419
     32          1           0       -1.688582   -2.172089    2.737798
     33          6           0       -2.751230    0.806270    1.249525
     34          1           0       -2.349096    1.527009    1.973337
     35          1           0       -2.708550    1.254707    0.251640
     36          1           0       -3.809132    0.656197    1.491321
     37          7           0        1.930332    1.476376   -0.070963
     38          1           0        1.330462    2.145296    0.402311
     39          6           0        3.359890    1.719461    0.087423
     40          1           0        3.855682    0.758858    0.263470
     41          6           0        3.522318    2.598020    1.325732
     42          6           0        4.005277    2.401866   -1.145654
     43          1           0        5.045841    2.636491   -0.891796
     44          1           0        3.493746    3.358243   -1.320264
     45          8           0        2.601528    3.142511    1.895836
     46          6           0        3.946444    1.535271   -2.408737
     47          1           0        4.484120    0.593231   -2.249657
     48          1           0        2.908854    1.259770   -2.622825
     49          6           0        4.509929    2.249886   -3.647219
     50          1           0        5.570163    2.496585   -3.518120
     51          1           0        3.997793    3.206467   -3.800703
     52          7           0        4.316644    1.459761   -4.858315
     53          1           0        3.341089    1.298205   -5.179079
     54          7           0        6.456895    0.483695   -4.985866
     55          1           0        7.128418    0.051248   -5.604664
     56          1           0        6.839352    1.167263   -4.350480
     57          7           0        4.753471   -0.115009   -6.462515
     58          1           0        5.254571   -0.960760   -6.698650
     59          1           0        3.717122   -0.138081   -6.565020
     60          6           0        5.179067    0.612385   -5.422168
     61          8           0        4.809656    2.716646    1.687329
     62          1           0        4.841549    3.305058    2.466707
 ---------------------------------------------------------------------

 SCF Done:  E(RB3LYP) =  -1447.41523531     A.U. after    3 cycles

 Alpha  occ. eigenvalues --  -19.29956 -19.26401 -19.24526 -19.22793 -19.16313
 Alpha  occ. eigenvalues --  -19.15786 -14.58856 -14.49106 -14.48221 -14.46980
 Alpha  occ. eigenvalues --  -14.46368 -14.44774 -10.43168 -10.43096 -10.42530
 Alpha  occ. eigenvalues --  -10.39882 -10.39553 -10.34655 -10.34605 -10.34500
 Alpha  occ. eigenvalues --  -10.33556 -10.31072 -10.29694 -10.28805 -10.28537
 Alpha  occ. eigenvalues --  -10.28343 -10.27665 -10.25005 -10.24960  -1.21031
 Alpha  occ. eigenvalues --   -1.18651  -1.14853  -1.12836  -1.12186  -1.11885
 Alpha  occ. eigenvalues --   -1.09369  -1.05760  -1.03548  -1.01771  -1.00525
 Alpha  occ. eigenvalues --   -0.99439  -0.92819  -0.90891  -0.89756  -0.86402
 Alpha  occ. eigenvalues --   -0.84857  -0.82930  -0.79071  -0.76227  -0.75695
 Alpha  occ. eigenvalues --   -0.74950  -0.73668  -0.73260  -0.73052  -0.71358
 Alpha  occ. eigenvalues --   -0.70627  -0.69358  -0.68905  -0.68635  -0.66480
 Alpha  occ. eigenvalues --   -0.65791  -0.63992  -0.61994  -0.61289  -0.60595
 Alpha  occ. eigenvalues --   -0.59955  -0.59405  -0.59059  -0.57900  -0.57623
 Alpha  occ. eigenvalues --   -0.57198  -0.57016  -0.56509  -0.56129  -0.55506
 Alpha  occ. eigenvalues --   -0.54939  -0.53983  -0.53784  -0.53171  -0.52837
 Alpha  occ. eigenvalues --   -0.51752  -0.51560  -0.50446  -0.50177  -0.49653
 Alpha  occ. eigenvalues --   -0.48940  -0.48379  -0.48083  -0.47935  -0.47631
 Alpha  occ. eigenvalues --   -0.47280  -0.46607  -0.46073  -0.45720  -0.44960
 Alpha  occ. eigenvalues --   -0.44670  -0.44056  -0.42952  -0.42032  -0.41709
 Alpha  occ. eigenvalues --   -0.41168  -0.40926  -0.40585  -0.39096  -0.38756
 Alpha  occ. eigenvalues --   -0.38245  -0.36706  -0.36308  -0.35546  -0.31899
 Alpha  occ. eigenvalues --   -0.31413  -0.30021
 Alpha virt. eigenvalues --   -0.11912  -0.09768  -0.09476  -0.08430  -0.07574
 Alpha virt. eigenvalues --   -0.05599  -0.04960  -0.03190  -0.02400  -0.01899
 Alpha virt. eigenvalues --   -0.01038  -0.00747  -0.00428   0.00069   0.00750

 Mulliken charges:
               1
     1  N   -0.755511
     2  H    0.412591
     3  H    0.431196
     4  H    0.412703
     5  C   -0.119635
     6  H    0.219597
     7  C    0.649005
     8  C   -0.292174
     9  H    0.185240
    10  H    0.208878
    11  O   -0.542235
    12  C   -0.397105
    13  H    0.147499
    14  H    0.157147
    15  C    0.610992
    16  O   -0.643075
    17  O   -0.546844
    18  N   -0.593535
    19  H    0.376167
    20  C   -0.086705
    21  H    0.190382
    22  C    0.626161
    23  C   -0.258487
    24  H    0.154621
    25  H    0.156804
    26  O   -0.533434
    27  C   -0.071331
    28  H    0.121176
    29  C   -0.447329
    30  H    0.153413
    31  H    0.157788
    32  H    0.147853
    33  C   -0.463679
    34  H    0.147369
    35  H    0.159673
    36  H    0.159028
    37  N   -0.608868
    38  H    0.360869
    39  C   -0.049448
    40  H    0.209114
    41  C    0.588223
    42  C   -0.274650
    43  H    0.172593
    44  H    0.155115
    45  O   -0.457956
    46  C   -0.261000
    47  H    0.170448
    48  H    0.165649
    49  C   -0.167293
    50  H    0.148259
    51  H    0.184194
    52  N   -0.609186
    53  H    0.408878
    54  N   -0.755341
    55  H    0.368689
    56  H    0.365766
    57  N   -0.759307
    58  H    0.352726
    59  H    0.415344
    60  C    0.766943
    61  O   -0.556378
    62  H    0.432413
 Sum of Mulliken charges =   1.00000

 Dipole moment (field-independent basis, Debye):
    X=              5.6365    Y=              0.0606    Z=            -13.1562  Tot=             14.3130
 Quadrupole moment (field-independent basis, Debye-Ang):
   XX=            -49.8181   YY=           -153.5470   ZZ=           -104.1353
   XY=             42.8794   XZ=            -10.4337   YZ=             13.6684

 Normal termination of Gaussian 16 at Fri May 27 00:59:25 2022.
