 Gaussian 16, Revision C.01,
 Gaussian 16:  ES64L-G16RevC.01  3-Jul-2019

 -------------------------------------------------------------------
 # B3LYP/6-31G* guess=read geom=check nosymm integral(ultrafinegrid)
 -------------------------------------------------------------------

 ------------------------------------------------------
 Candidate Structure: Conf:304 Charge calc in gas phase
 ------------------------------------------------------
 Structure from the checkpoint file:  "conf-304.chk"
 Charge =  1 Multiplicity = 1

                          Input orientation:
 ---------------------------------------------------------------------
 Center     Atomic      Atomic             Coordinates (Angstroms)
 Number     Number       Type             X           Y           Z
 ---------------------------------------------------------------------
      1          7           0       -2.444028   -0.289389   -4.441169
      2          1           0       -3.104321   -1.047547   -4.636487
      3          1           0       -2.886338    0.374969   -3.749232
      4          1           0       -2.213203    0.181910   -5.322129
      5          6           0       -1.199932   -0.747089   -3.704694
      6          1           0       -1.073318   -1.819319   -3.872350
      7          6           0       -1.491081   -0.364199   -2.232598
      8          6           0        0.026902    0.062631   -4.145408
      9          1           0        0.881445   -0.293393   -3.562741
     10          1           0       -0.134250    1.107884   -3.845268
     11          8           0       -2.394024    0.456749   -2.024327
     12          6           0        0.453227    0.009829   -5.615537
     13          1           0        0.579064   -1.029872   -5.944377
     14          1           0       -0.247376    0.508451   -6.297396
     15          6           0        1.828051    0.733552   -5.708453
     16          8           0        1.969796    1.607561   -6.592013
     17          8           0        2.661186    0.372274   -4.825822
     18          7           0       -0.646742   -0.858723   -1.321666
     19          1           0        0.111775   -1.463843   -1.633759
     20          6           0       -0.285776   -0.149026   -0.077708
     21          1           0       -0.863192    0.777716   -0.054769
     22          6           0        1.226545    0.120261   -0.255068
     23          6           0       -0.543104   -0.991556    1.183340
     24          1           0       -0.172276   -0.417431    2.044382
     25          1           0        0.081288   -1.891568    1.118288
     26          8           0        1.946717   -0.781760   -0.687857
     27          6           0       -2.012322   -1.387870    1.429158
     28          1           0       -2.361062   -1.941068    0.544637
     29          6           0       -2.092284   -2.334381    2.636811
     30          1           0       -1.759069   -1.832040    3.553670
     31          1           0       -3.121526   -2.671643    2.800109
     32          1           0       -1.465821   -3.222750    2.495497
     33          6           0       -2.929201   -0.170406    1.624324
     34          1           0       -2.585745    0.450503    2.462100
     35          1           0       -2.983003    0.458573    0.729004
     36          1           0       -3.950378   -0.493529    1.854553
     37          7           0        1.669005    1.357469    0.045980
     38          1           0        1.040044    2.078614    0.384369
     39          6           0        3.066405    1.762739   -0.095933
     40          1           0        3.706153    1.041576    0.425783
     41          6           0        3.177291    3.112171    0.606143
     42          6           0        3.497743    1.812764   -1.588658
     43          1           0        2.852137    2.523074   -2.117686
     44          1           0        3.273942    0.821157   -1.993220
     45          8           0        2.223665    3.795817    0.913341
     46          6           0        4.981535    2.147791   -1.832195
     47          1           0        5.142391    3.230928   -1.787003
     48          1           0        5.603789    1.713460   -1.039478
     49          6           0        5.506465    1.586794   -3.167099
     50          1           0        5.469004    0.492851   -3.138200
     51          1           0        6.563852    1.850374   -3.298478
     52          7           0        4.735881    1.979972   -4.343260
     53          1           0        3.927002    1.347863   -4.600526
     54          7           0        5.928720    3.933477   -4.868092
     55          1           0        6.296084    4.480644   -5.634261
     56          1           0        6.593706    3.735272   -4.135286
     57          7           0        4.231460    3.155290   -6.256119
     58          1           0        4.263457    4.034161   -6.752620
     59          1           0        3.405670    2.529675   -6.433965
     60          6           0        4.967490    3.008050   -5.149198
     61          8           0        4.452527    3.464656    0.838692
     62          1           0        4.433805    4.336909    1.279088
 ---------------------------------------------------------------------

 SCF Done:  E(RB3LYP) =  -1447.42021347     A.U. after    1 cycles

 Alpha  occ. eigenvalues --  -19.30094 -19.26622 -19.24580 -19.22081 -19.17788
 Alpha  occ. eigenvalues --  -19.17613 -14.59655 -14.49079 -14.47662 -14.46763
 Alpha  occ. eigenvalues --  -14.45173 -14.44704 -10.43252 -10.42690 -10.42574
 Alpha  occ. eigenvalues --  -10.39898 -10.39355 -10.35989 -10.34384 -10.34339
 Alpha  occ. eigenvalues --  -10.32664 -10.31617 -10.28815 -10.28607 -10.28575
 Alpha  occ. eigenvalues --  -10.27890 -10.27184 -10.24738 -10.24525  -1.21149
 Alpha  occ. eigenvalues --   -1.18857  -1.14271  -1.13460  -1.12218  -1.11462
 Alpha  occ. eigenvalues --   -1.10682  -1.05780  -1.03100  -1.02441  -1.00610
 Alpha  occ. eigenvalues --   -0.99007  -0.93170  -0.90402  -0.89386  -0.86025
 Alpha  occ. eigenvalues --   -0.84807  -0.82874  -0.78514  -0.75811  -0.75280
 Alpha  occ. eigenvalues --   -0.74759  -0.73926  -0.73565  -0.72834  -0.71934
 Alpha  occ. eigenvalues --   -0.70884  -0.69883  -0.68466  -0.67625  -0.66453
 Alpha  occ. eigenvalues --   -0.64781  -0.63742  -0.62825  -0.61321  -0.61001
 Alpha  occ. eigenvalues --   -0.59844  -0.59542  -0.58382  -0.58281  -0.57603
 Alpha  occ. eigenvalues --   -0.57196  -0.56675  -0.56237  -0.55888  -0.55517
 Alpha  occ. eigenvalues --   -0.54785  -0.53830  -0.53417  -0.52800  -0.52249
 Alpha  occ. eigenvalues --   -0.52016  -0.51202  -0.50620  -0.50191  -0.49999
 Alpha  occ. eigenvalues --   -0.49224  -0.48607  -0.48302  -0.48032  -0.47569
 Alpha  occ. eigenvalues --   -0.46836  -0.46005  -0.45697  -0.45656  -0.44492
 Alpha  occ. eigenvalues --   -0.44385  -0.44086  -0.43697  -0.42082  -0.41265
 Alpha  occ. eigenvalues --   -0.40899  -0.40657  -0.40296  -0.39117  -0.38290
 Alpha  occ. eigenvalues --   -0.38203  -0.36175  -0.35464  -0.35169  -0.33101
 Alpha  occ. eigenvalues --   -0.32810  -0.31926
 Alpha virt. eigenvalues --   -0.12253  -0.10514  -0.09700  -0.07768  -0.06945
 Alpha virt. eigenvalues --   -0.05632  -0.04422  -0.03454  -0.02806  -0.02065
 Alpha virt. eigenvalues --   -0.01643  -0.00782  -0.00193   0.00035   0.01524

 Mulliken charges:
               1
     1  N   -0.748337
     2  H    0.415524
     3  H    0.427823
     4  H    0.417258
     5  C   -0.124075
     6  H    0.210020
     7  C    0.639561
     8  C   -0.316819
     9  H    0.229153
    10  H    0.170385
    11  O   -0.529366
    12  C   -0.365236
    13  H    0.170250
    14  H    0.142668
    15  C    0.610452
    16  O   -0.566772
    17  O   -0.597382
    18  N   -0.575188
    19  H    0.367270
    20  C   -0.091500
    21  H    0.185552
    22  C    0.636248
    23  C   -0.259760
    24  H    0.153350
    25  H    0.161987
    26  O   -0.539541
    27  C   -0.072510
    28  H    0.125592
    29  C   -0.446395
    30  H    0.151465
    31  H    0.156852
    32  H    0.148883
    33  C   -0.465849
    34  H    0.146706
    35  H    0.156736
    36  H    0.158924
    37  N   -0.630657
    38  H    0.363936
    39  C   -0.024193
    40  H    0.202149
    41  C    0.583717
    42  C   -0.287571
    43  H    0.154750
    44  H    0.206509
    45  O   -0.459766
    46  C   -0.264408
    47  H    0.150426
    48  H    0.165469
    49  C   -0.185026
    50  H    0.194800
    51  H    0.152262
    52  N   -0.624287
    53  H    0.435692
    54  N   -0.759570
    55  H    0.362172
    56  H    0.363761
    57  N   -0.797541
    58  H    0.347163
    59  H    0.429858
    60  C    0.764292
    61  O   -0.557604
    62  H    0.429738
 Sum of Mulliken charges =   1.00000

 Dipole moment (field-independent basis, Debye):
    X=              5.0957    Y=              5.9036    Z=            -15.1595  Tot=             17.0479
 Quadrupole moment (field-independent basis, Debye-Ang):
   XX=            -70.6616   YY=           -131.5557   ZZ=            -92.3592
   XY=             65.2194   XZ=             -7.0464   YZ=            -22.5522

 Normal termination of Gaussian 16 at Fri May 27 00:59:15 2022.
