 Gaussian 16, Revision C.01,
 Gaussian 16:  ES64L-G16RevC.01  3-Jul-2019

 -------------------------------------------------------------------
 # B3LYP/6-31G* guess=read geom=check nosymm integral(ultrafinegrid)
 -------------------------------------------------------------------

 ------------------------------------------------------
 Candidate Structure: Conf:474 Charge calc in gas phase
 ------------------------------------------------------
 Structure from the checkpoint file:  "conf-474.chk"
 Charge =  1 Multiplicity = 1

                          Input orientation:
 ---------------------------------------------------------------------
 Center     Atomic      Atomic             Coordinates (Angstroms)
 Number     Number       Type             X           Y           Z
 ---------------------------------------------------------------------
      1          7           0       -3.503831   -0.224546   -3.782453
      2          1           0       -4.249440   -0.892417   -3.988526
      3          1           0       -3.663133    0.287197   -2.861166
      4          1           0       -3.451768    0.460964   -4.543456
      5          6           0       -2.150257   -0.870790   -3.535085
      6          1           0       -2.373874   -1.869703   -3.145005
      7          6           0       -1.622321   -0.049714   -2.316795
      8          6           0       -1.337652   -1.001208   -4.826468
      9          1           0       -1.929101   -1.617911   -5.515972
     10          1           0       -0.435611   -1.576300   -4.594290
     11          8           0       -2.481194    0.583964   -1.671805
     12          6           0       -0.896865    0.308037   -5.494060
     13          1           0       -0.819028    0.152701   -6.576033
     14          1           0       -1.618905    1.130760   -5.379265
     15          6           0        0.488530    0.832648   -5.022127
     16          8           0        0.788639    1.966732   -5.485221
     17          8           0        1.176570    0.098398   -4.270280
     18          7           0       -0.341144   -0.173444   -2.002702
     19          1           0        0.320570   -0.445992   -2.748559
     20          6           0        0.231651    0.464549   -0.805585
     21          1           0       -0.049386    1.523420   -0.809422
     22          6           0        1.754794    0.287972   -0.895296
     23          6           0       -0.287275   -0.221254    0.482083
     24          1           0        0.051963   -1.263172    0.445906
     25          1           0       -1.382086   -0.225720    0.439056
     26          8           0        2.242689   -0.798864   -1.180194
     27          6           0        0.154431    0.426351    1.811057
     28          1           0        1.252448    0.484655    1.827779
     29          6           0       -0.399438    1.848924    1.990312
     30          1           0       -1.495995    1.849192    1.951694
     31          1           0       -0.097708    2.260404    2.959325
     32          1           0       -0.040128    2.545617    1.223654
     33          6           0       -0.277654   -0.470528    2.981667
     34          1           0       -1.370151   -0.567899    3.019093
     35          1           0        0.146148   -1.477401    2.893287
     36          1           0        0.050421   -0.049804    3.938422
     37          7           0        2.500641    1.395200   -0.607234
     38          1           0        2.037743    2.206039   -0.208800
     39          6           0        3.913734    1.281094   -0.260543
     40          1           0        4.105539    0.239150    0.020238
     41          6           0        4.148503    2.164827    0.962050
     42          6           0        4.894425    1.658037   -1.398413
     43          1           0        5.904377    1.550357   -0.990675
     44          1           0        4.767995    2.720673   -1.645485
     45          8           0        3.331411    2.940231    1.412518
     46          6           0        4.738800    0.788088   -2.666872
     47          1           0        5.732529    0.524490   -3.056130
     48          1           0        4.249583   -0.157683   -2.415952
     49          6           0        3.924961    1.434599   -3.788667
     50          1           0        2.974796    1.814814   -3.412096
     51          1           0        3.680814    0.699037   -4.560300
     52          7           0        4.672063    2.562427   -4.376337
     53          1           0        5.673708    2.442374   -4.464330
     54          7           0        2.838002    3.573931   -5.395378
     55          1           0        2.467359    4.402208   -5.842315
     56          1           0        2.132799    2.767773   -5.313833
     57          7           0        4.965924    4.506410   -5.587905
     58          1           0        4.594557    5.251518   -6.158855
     59          1           0        5.811990    4.721574   -5.079746
     60          6           0        4.129563    3.539119   -5.119300
     61          8           0        5.380862    1.999180    1.471729
     62          1           0        5.459888    2.598474    2.239086
 ---------------------------------------------------------------------

 SCF Done:  E(RB3LYP) =  -1447.41151872     A.U. after    2 cycles

 Alpha  occ. eigenvalues --  -19.29061 -19.24521 -19.23638 -19.20531 -19.17468
 Alpha  occ. eigenvalues --  -19.17391 -14.57827 -14.48996 -14.48563 -14.46424
 Alpha  occ. eigenvalues --  -14.46396 -14.45087 -10.44501 -10.41544 -10.41088
 Alpha  occ. eigenvalues --  -10.38551 -10.37770 -10.35732 -10.33048 -10.32634
 Alpha  occ. eigenvalues --  -10.31291 -10.30769 -10.28399 -10.28314 -10.27756
 Alpha  occ. eigenvalues --  -10.26384 -10.26361 -10.24228 -10.23834  -1.20119
 Alpha  occ. eigenvalues --   -1.16881  -1.12998  -1.12702  -1.11579  -1.11174
 Alpha  occ. eigenvalues --   -1.10630  -1.03495  -1.02592  -1.02041  -1.01607
 Alpha  occ. eigenvalues --   -1.00449  -0.91583  -0.89611  -0.88412  -0.85135
 Alpha  occ. eigenvalues --   -0.84019  -0.81817  -0.78140  -0.75247  -0.74953
 Alpha  occ. eigenvalues --   -0.74553  -0.74130  -0.72251  -0.71478  -0.70740
 Alpha  occ. eigenvalues --   -0.69651  -0.69050  -0.67365  -0.66925  -0.66463
 Alpha  occ. eigenvalues --   -0.64583  -0.63225  -0.62538  -0.61151  -0.60138
 Alpha  occ. eigenvalues --   -0.59345  -0.58951  -0.58136  -0.57948  -0.57486
 Alpha  occ. eigenvalues --   -0.56443  -0.56263  -0.55781  -0.54849  -0.54269
 Alpha  occ. eigenvalues --   -0.53772  -0.52934  -0.52768  -0.52031  -0.51477
 Alpha  occ. eigenvalues --   -0.50511  -0.50378  -0.50013  -0.49533  -0.48932
 Alpha  occ. eigenvalues --   -0.48774  -0.47813  -0.47382  -0.47145  -0.46573
 Alpha  occ. eigenvalues --   -0.45440  -0.45333  -0.44843  -0.44208  -0.43839
 Alpha  occ. eigenvalues --   -0.43605  -0.43416  -0.43255  -0.41163  -0.40698
 Alpha  occ. eigenvalues --   -0.39959  -0.39823  -0.39524  -0.38620  -0.37561
 Alpha  occ. eigenvalues --   -0.36941  -0.36410  -0.34714  -0.34141  -0.32972
 Alpha  occ. eigenvalues --   -0.32463  -0.31706
 Alpha virt. eigenvalues --   -0.11094  -0.08982  -0.08568  -0.08413  -0.06948
 Alpha virt. eigenvalues --   -0.05670  -0.04721  -0.02445  -0.01781  -0.01500
 Alpha virt. eigenvalues --   -0.01256  -0.00717  -0.00267   0.01184   0.01944

 Mulliken charges:
               1
     1  N   -0.752839
     2  H    0.408919
     3  H    0.430163
     4  H    0.406270
     5  C   -0.119637
     6  H    0.226157
     7  C    0.645250
     8  C   -0.297277
     9  H    0.156340
    10  H    0.217583
    11  O   -0.563173
    12  C   -0.382509
    13  H    0.192145
    14  H    0.131841
    15  C    0.611583
    16  O   -0.604968
    17  O   -0.584534
    18  N   -0.628888
    19  H    0.415982
    20  C   -0.019364
    21  H    0.168016
    22  C    0.598817
    23  C   -0.272611
    24  H    0.163700
    25  H    0.164837
    26  O   -0.515094
    27  C   -0.089896
    28  H    0.128039
    29  C   -0.445546
    30  H    0.151703
    31  H    0.161615
    32  H    0.131539
    33  C   -0.445886
    34  H    0.146723
    35  H    0.150489
    36  H    0.154948
    37  N   -0.611847
    38  H    0.358030
    39  C   -0.054122
    40  H    0.210383
    41  C    0.586865
    42  C   -0.271192
    43  H    0.176189
    44  H    0.142916
    45  O   -0.464997
    46  C   -0.324861
    47  H    0.142594
    48  H    0.216948
    49  C   -0.137027
    50  H    0.196583
    51  H    0.203238
    52  N   -0.609671
    53  H    0.347567
    54  N   -0.785873
    55  H    0.350282
    56  H    0.452672
    57  N   -0.766359
    58  H    0.366533
    59  H    0.365798
    60  C    0.796528
    61  O   -0.556203
    62  H    0.428588
 Sum of Mulliken charges =   1.00000

 Dipole moment (field-independent basis, Debye):
    X=              4.2459    Y=              8.9634    Z=            -18.0007  Tot=             20.5523
 Quadrupole moment (field-independent basis, Debye-Ang):
   XX=            -52.2456   YY=           -121.7342   ZZ=            -72.0983
   XY=             66.5051   XZ=             -5.7113   YZ=            -42.2483

 Normal termination of Gaussian 16 at Fri May 27 00:59:19 2022.
