 Gaussian 16, Revision C.01,
 Gaussian 16:  ES64L-G16RevC.01  3-Jul-2019

 -------------------------------------------------------------------
 # B3LYP/6-31G* guess=read geom=check nosymm integral(ultrafinegrid)
 -------------------------------------------------------------------

 ------------------------------------------------------
 Candidate Structure: Conf:549 Charge calc in gas phase
 ------------------------------------------------------
 Structure from the checkpoint file:  "conf-549.chk"
 Charge =  1 Multiplicity = 1

                          Input orientation:
 ---------------------------------------------------------------------
 Center     Atomic      Atomic             Coordinates (Angstroms)
 Number     Number       Type             X           Y           Z
 ---------------------------------------------------------------------
      1          7           0       -3.148166    0.370491   -4.016186
      2          1           0       -3.894679   -0.219461   -4.390885
      3          1           0       -3.428255    0.835765   -3.107278
      4          1           0       -2.918535    1.091114   -4.709586
      5          6           0       -1.906784   -0.406917   -3.604728
      6          1           0       -2.287447   -1.370462   -3.246525
      7          6           0       -1.472301    0.334143   -2.300493
      8          6           0       -0.979525   -0.657253   -4.793429
      9          1           0       -1.557916   -1.237037   -5.524735
     10          1           0       -0.176253   -1.314431   -4.447479
     11          8           0       -2.382418    0.955149   -1.719510
     12          6           0       -0.340005    0.572864   -5.455272
     13          1           0       -0.305450    0.442814   -6.541046
     14          1           0       -0.909682    1.502497   -5.296888
     15          6           0        1.110440    0.853075   -4.989504
     16          8           0        1.721952    1.733041   -5.629554
     17          8           0        1.545953    0.165525   -4.011820
     18          7           0       -0.244303    0.135492   -1.825670
     19          1           0        0.512043   -0.120804   -2.485456
     20          6           0        0.090831    0.516081   -0.440639
     21          1           0       -0.641705    1.263551   -0.128786
     22          6           0        1.507975    1.094834   -0.395431
     23          6           0        0.057253   -0.708459    0.507842
     24          1           0        0.444663   -0.379855    1.483106
     25          1           0        0.777006   -1.437842    0.118097
     26          8           0        2.457569    0.464677   -0.864273
     27          6           0       -1.314522   -1.376519    0.722801
     28          1           0       -1.730549   -1.632135   -0.263830
     29          6           0       -1.123727   -2.691036    1.496821
     30          1           0       -0.703041   -2.502307    2.492379
     31          1           0       -2.081072   -3.205108    1.635495
     32          1           0       -0.446276   -3.374346    0.971877
     33          6           0       -2.313496   -0.459123    1.444147
     34          1           0       -1.926530   -0.157052    2.425829
     35          1           0       -2.537926    0.444274    0.868061
     36          1           0       -3.261448   -0.981778    1.614136
     37          7           0        1.650107    2.284199    0.236229
     38          1           0        0.869352    2.714514    0.720360
     39          6           0        2.963487    2.841302    0.532794
     40          1           0        3.671178    2.009205    0.605477
     41          6           0        2.855092    3.525222    1.892421
     42          6           0        3.443407    3.845820   -0.558524
     43          1           0        2.968725    4.816509   -0.373333
     44          1           0        3.043628    3.496080   -1.515922
     45          8           0        1.804826    3.812204    2.423172
     46          6           0        4.971662    4.017935   -0.655817
     47          1           0        5.190179    5.003556   -1.085805
     48          1           0        5.418985    4.020776    0.344243
     49          6           0        5.693698    2.957707   -1.509281
     50          1           0        5.479822    1.941688   -1.166647
     51          1           0        6.776450    3.085983   -1.407655
     52          7           0        5.373304    3.049252   -2.935476
     53          1           0        5.771763    3.834944   -3.431026
     54          7           0        3.907236    1.228560   -3.081719
     55          1           0        3.114309    0.762558   -3.570592
     56          1           0        3.870651    1.088986   -2.078867
     57          7           0        4.262459    2.550610   -4.924100
     58          1           0        3.366818    2.188229   -5.318497
     59          1           0        4.643154    3.390801   -5.334927
     60          6           0        4.500373    2.281345   -3.631114
     61          8           0        4.062163    3.803933    2.414785
     62          1           0        3.913548    4.270766    3.260681
 ---------------------------------------------------------------------

 SCF Done:  E(RB3LYP) =  -1447.43111623     A.U. after    1 cycles

 Alpha  occ. eigenvalues --  -19.30402 -19.25654 -19.24788 -19.22732 -19.19091
 Alpha  occ. eigenvalues --  -19.18014 -14.59040 -14.47956 -14.47863 -14.47170
 Alpha  occ. eigenvalues --  -14.44492 -14.43642 -10.42847 -10.42572 -10.42319
 Alpha  occ. eigenvalues --  -10.39895 -10.39740 -10.36700 -10.34812 -10.34107
 Alpha  occ. eigenvalues --  -10.33663 -10.31648 -10.29930 -10.29331 -10.29207
 Alpha  occ. eigenvalues --  -10.27992 -10.27670 -10.24966 -10.24952  -1.21368
 Alpha  occ. eigenvalues --   -1.18083  -1.14730  -1.12845  -1.12487  -1.11861
 Alpha  occ. eigenvalues --   -1.10810  -1.04597  -1.03616  -1.03006  -1.01024
 Alpha  occ. eigenvalues --   -0.97748  -0.92652  -0.90968  -0.89704  -0.86295
 Alpha  occ. eigenvalues --   -0.84940  -0.83141  -0.79281  -0.76363  -0.75895
 Alpha  occ. eigenvalues --   -0.75100  -0.73790  -0.73277  -0.72655  -0.71447
 Alpha  occ. eigenvalues --   -0.70659  -0.68991  -0.68711  -0.68366  -0.66510
 Alpha  occ. eigenvalues --   -0.64184  -0.64022  -0.62740  -0.61199  -0.60317
 Alpha  occ. eigenvalues --   -0.60038  -0.59342  -0.58674  -0.58305  -0.57611
 Alpha  occ. eigenvalues --   -0.57245  -0.56627  -0.56313  -0.56171  -0.55524
 Alpha  occ. eigenvalues --   -0.55207  -0.54037  -0.53603  -0.53248  -0.52729
 Alpha  occ. eigenvalues --   -0.52116  -0.51621  -0.50897  -0.50530  -0.49956
 Alpha  occ. eigenvalues --   -0.49778  -0.49390  -0.48747  -0.48221  -0.48033
 Alpha  occ. eigenvalues --   -0.47220  -0.46440  -0.46133  -0.46035  -0.45274
 Alpha  occ. eigenvalues --   -0.45000  -0.44645  -0.44457  -0.42372  -0.41390
 Alpha  occ. eigenvalues --   -0.40937  -0.40876  -0.40004  -0.38828  -0.38109
 Alpha  occ. eigenvalues --   -0.36905  -0.36260  -0.36165  -0.35829  -0.34091
 Alpha  occ. eigenvalues --   -0.33856  -0.32429
 Alpha virt. eigenvalues --   -0.12464  -0.09747  -0.09391  -0.08644  -0.06354
 Alpha virt. eigenvalues --   -0.05958  -0.03753  -0.02963  -0.02735  -0.02250
 Alpha virt. eigenvalues --   -0.01251  -0.00797  -0.00226   0.00571   0.00900

 Mulliken charges:
               1
     1  N   -0.748097
     2  H    0.412035
     3  H    0.431268
     4  H    0.408921
     5  C   -0.131808
     6  H    0.229561
     7  C    0.642426
     8  C   -0.288011
     9  H    0.159764
    10  H    0.218629
    11  O   -0.555182
    12  C   -0.385294
    13  H    0.198521
    14  H    0.136176
    15  C    0.620526
    16  O   -0.567375
    17  O   -0.607933
    18  N   -0.623314
    19  H    0.417483
    20  C   -0.067578
    21  H    0.185682
    22  C    0.624704
    23  C   -0.255364
    24  H    0.150532
    25  H    0.168955
    26  O   -0.543024
    27  C   -0.075050
    28  H    0.107966
    29  C   -0.446421
    30  H    0.153745
    31  H    0.154997
    32  H    0.149190
    33  C   -0.463249
    34  H    0.148900
    35  H    0.161716
    36  H    0.154806
    37  N   -0.609097
    38  H    0.363481
    39  C   -0.045551
    40  H    0.197810
    41  C    0.588681
    42  C   -0.286505
    43  H    0.168882
    44  H    0.170333
    45  O   -0.453295
    46  C   -0.275241
    47  H    0.154059
    48  H    0.184457
    49  C   -0.172977
    50  H    0.183392
    51  H    0.187713
    52  N   -0.603607
    53  H    0.343641
    54  N   -0.804275
    55  H    0.423554
    56  H    0.382497
    57  N   -0.785339
    58  H    0.420587
    59  H    0.340410
    60  C    0.771581
    61  O   -0.556718
    62  H    0.432721
 Sum of Mulliken charges =   1.00000

 Dipole moment (field-independent basis, Debye):
    X=              1.5109    Y=              8.2110    Z=            -11.5335  Tot=             14.2381
 Quadrupole moment (field-independent basis, Debye-Ang):
   XX=            -79.3915   YY=           -130.1957   ZZ=           -109.9004
   XY=             54.1484   XZ=             31.8827   YZ=            -10.7895

 Normal termination of Gaussian 16 at Fri May 27 00:59:09 2022.
