 Gaussian 16, Revision C.01,
 Gaussian 16:  ES64L-G16RevC.01  3-Jul-2019

 -------------------------------------------------------------------
 # B3LYP/6-31G* guess=read geom=check nosymm integral(ultrafinegrid)
 -------------------------------------------------------------------

 ------------------------------------------------------
 Candidate Structure: Conf:966 Charge calc in gas phase
 ------------------------------------------------------
 Structure from the checkpoint file:  "conf-966.chk"
 Charge =  1 Multiplicity = 1

                          Input orientation:
 ---------------------------------------------------------------------
 Center     Atomic      Atomic             Coordinates (Angstroms)
 Number     Number       Type             X           Y           Z
 ---------------------------------------------------------------------
      1          7           0       -1.524784   -0.539643   -3.939854
      2          1           0       -1.081776   -1.449953   -3.811448
      3          1           0       -2.512858   -0.678311   -3.719890
      4          1           0       -0.802880    0.249561   -5.422643
      5          6           0       -0.951467    0.441450   -3.000835
      6          1           0        0.106901    0.543210   -3.269036
      7          6           0       -1.062444    0.042255   -1.518842
      8          6           0       -1.653987    1.803577   -3.181334
      9          1           0       -1.100247    2.551699   -2.601875
     10          1           0       -2.656115    1.740306   -2.743640
     11          8           0       -2.141295   -0.255640   -1.017697
     12          6           0       -1.779124    2.272663   -4.653557
     13          1           0       -2.544102    1.686704   -5.170970
     14          1           0       -2.084387    3.321380   -4.682013
     15          6           0       -0.453197    2.125902   -5.375720
     16          8           0       -0.147202    0.913285   -5.805584
     17          8           0        0.350579    3.050996   -5.502916
     18          7           0        0.109105    0.126837   -0.840798
     19          1           0        0.980468    0.311822   -1.324225
     20          6           0        0.249366    0.005787    0.606516
     21          1           0       -0.667124    0.395441    1.059390
     22          6           0        1.467166    0.890137    0.939718
     23          6           0        0.470312   -1.462666    1.039053
     24          1           0        1.382529   -1.819086    0.543881
     25          1           0       -0.368097   -2.038985    0.628197
     26          8           0        2.436959    0.894911    0.177316
     27          6           0        0.571291   -1.719611    2.556360
     28          1           0        1.392634   -1.107060    2.958904
     29          6           0       -0.718913   -1.348988    3.306031
     30          1           0       -1.573384   -1.916437    2.917468
     31          1           0       -0.625241   -1.576473    4.373351
     32          1           0       -0.972521   -0.284072    3.224889
     33          6           0        0.931767   -3.192435    2.805847
     34          1           0        0.147189   -3.857811    2.424537
     35          1           0        1.871574   -3.464190    2.311848
     36          1           0        1.045008   -3.392229    3.876884
     37          7           0        1.362007    1.658688    2.052479
     38          1           0        0.549922    1.526939    2.642585
     39          6           0        2.411666    2.523679    2.613629
     40          1           0        3.093724    1.908260    3.221525
     41          6           0        1.764204    3.510983    3.593390
     42          6           0        3.268953    3.268488    1.574314
     43          1           0        3.882406    2.523293    1.067181
     44          1           0        3.934702    3.930764    2.134775
     45          8           0        2.126324    4.649574    3.762337
     46          6           0        2.462584    4.079634    0.541096
     47          1           0        1.481248    3.621195    0.376763
     48          1           0        2.285815    5.094766    0.916452
     49          6           0        3.193055    4.122674   -0.806816
     50          1           0        3.324419    3.096292   -1.154961
     51          1           0        4.183420    4.581842   -0.712589
     52          7           0        2.417854    4.865691   -1.815940
     53          1           0        2.108415    5.790850   -1.544232
     54          7           0        2.361506    3.228402   -3.489232
     55          1           0        1.967412    2.938017   -4.386033
     56          1           0        3.270181    2.869649   -3.234866
     57          7           0        0.979882    5.066441   -3.632190
     58          1           0        0.580567    4.635463   -4.471656
     59          1           0        0.460705    5.802854   -3.176189
     60          6           0        1.928261    4.388945   -2.968477
     61          8           0        0.752047    2.937045    4.284612
     62          1           0        0.408537    3.604125    4.910114
 ---------------------------------------------------------------------

 SCF Done:  E(RB3LYP) =  -1447.43187505     A.U. after    3 cycles

 Alpha  occ. eigenvalues --  -19.30978 -19.29191 -19.25736 -19.25133 -19.23005
 Alpha  occ. eigenvalues --  -19.21268 -14.52281 -14.50910 -14.50833 -14.47943
 Alpha  occ. eigenvalues --  -14.46171 -14.45425 -10.48041 -10.43775 -10.43300
 Alpha  occ. eigenvalues --  -10.40192 -10.38546 -10.36005 -10.35719 -10.34255
 Alpha  occ. eigenvalues --  -10.33467 -10.31474 -10.31419 -10.30741 -10.29727
 Alpha  occ. eigenvalues --  -10.27505 -10.27424 -10.25507 -10.24704  -1.21784
 Alpha  occ. eigenvalues --   -1.21021  -1.16405  -1.14971  -1.13128  -1.12873
 Alpha  occ. eigenvalues --   -1.12613  -1.05970  -1.04143  -1.04004  -1.02614
 Alpha  occ. eigenvalues --   -1.01587  -0.92147  -0.90742  -0.89795  -0.87646
 Alpha  occ. eigenvalues --   -0.84731  -0.81732  -0.81028  -0.77987  -0.76196
 Alpha  occ. eigenvalues --   -0.75273  -0.74801  -0.73939  -0.73218  -0.71511
 Alpha  occ. eigenvalues --   -0.70255  -0.69297  -0.68504  -0.68103  -0.65838
 Alpha  occ. eigenvalues --   -0.64842  -0.64415  -0.64214  -0.63224  -0.62250
 Alpha  occ. eigenvalues --   -0.61760  -0.61028  -0.60764  -0.59466  -0.58638
 Alpha  occ. eigenvalues --   -0.58115  -0.57736  -0.57235  -0.56812  -0.55683
 Alpha  occ. eigenvalues --   -0.55525  -0.55327  -0.53862  -0.53585  -0.53391
 Alpha  occ. eigenvalues --   -0.52531  -0.51813  -0.51625  -0.51170  -0.50976
 Alpha  occ. eigenvalues --   -0.49861  -0.49685  -0.49587  -0.48478  -0.47574
 Alpha  occ. eigenvalues --   -0.47239  -0.46836  -0.46635  -0.46046  -0.45595
 Alpha  occ. eigenvalues --   -0.45533  -0.45454  -0.44200  -0.43024  -0.42623
 Alpha  occ. eigenvalues --   -0.42490  -0.41775  -0.40903  -0.40735  -0.40488
 Alpha  occ. eigenvalues --   -0.39578  -0.39264  -0.39200  -0.37266  -0.36355
 Alpha  occ. eigenvalues --   -0.34849  -0.34588
 Alpha virt. eigenvalues --   -0.12063  -0.11425  -0.10692  -0.09320  -0.07725
 Alpha virt. eigenvalues --   -0.07429  -0.05025  -0.04012  -0.03094  -0.02806
 Alpha virt. eigenvalues --   -0.01546  -0.00863   0.00151   0.00435   0.00976

 Mulliken charges:
               1
     1  N   -0.762698
     2  H    0.342454
     3  H    0.346968
     4  H    0.459958
     5  C   -0.090319
     6  H    0.147734
     7  C    0.614634
     8  C   -0.284114
     9  H    0.146688
    10  H    0.197422
    11  O   -0.522341
    12  C   -0.368986
    13  H    0.192681
    14  H    0.179740
    15  C    0.612991
    16  O   -0.556942
    17  O   -0.521416
    18  N   -0.620085
    19  H    0.344775
    20  C   -0.047766
    21  H    0.175666
    22  C    0.625574
    23  C   -0.255825
    24  H    0.150909
    25  H    0.168130
    26  O   -0.553385
    27  C   -0.089756
    28  H    0.122527
    29  C   -0.452061
    30  H    0.164243
    31  H    0.162120
    32  H    0.123189
    33  C   -0.445665
    34  H    0.153245
    35  H    0.150463
    36  H    0.156889
    37  N   -0.643357
    38  H    0.374007
    39  C   -0.033323
    40  H    0.209533
    41  C    0.589334
    42  C   -0.283478
    43  H    0.188767
    44  H    0.184749
    45  O   -0.439668
    46  C   -0.277993
    47  H    0.154272
    48  H    0.169713
    49  C   -0.170729
    50  H    0.192197
    51  H    0.194283
    52  N   -0.602170
    53  H    0.358408
    54  N   -0.775963
    55  H    0.414526
    56  H    0.377820
    57  N   -0.774003
    58  H    0.415925
    59  H    0.364325
    60  C    0.788234
    61  O   -0.578304
    62  H    0.435253
 Sum of Mulliken charges =   1.00000

 Dipole moment (field-independent basis, Debye):
    X=              4.2165    Y=             13.9943    Z=             -5.5978  Tot=             15.6510
 Quadrupole moment (field-independent basis, Debye-Ang):
   XX=           -150.7701   YY=            -96.0940   ZZ=           -121.8516
   XY=             17.3532   XZ=              4.3795   YZ=            -22.7481

 Normal termination of Gaussian 16 at Fri May 27 01:16:43 2022.
