 Gaussian 16, Revision C.01,
 Gaussian 16:  ES64L-G16RevC.01  3-Jul-2019

 -------------------------------------------------------------------
 # B3LYP/6-31G* guess=read geom=check nosymm integral(ultrafinegrid)
 -------------------------------------------------------------------

 ------------------------------------------------------
 Candidate Structure: Conf:962 Charge calc in gas phase
 ------------------------------------------------------
 Structure from the checkpoint file:  "conf-962.chk"
 Charge =  1 Multiplicity = 1

                          Input orientation:
 ---------------------------------------------------------------------
 Center     Atomic      Atomic             Coordinates (Angstroms)
 Number     Number       Type             X           Y           Z
 ---------------------------------------------------------------------
      1          7           0       -2.113464    0.661779   -4.206430
      2          1           0       -2.350116    0.331156   -5.140044
      3          1           0       -2.971148    0.741236   -3.659426
      4          1           0       -1.365469    2.110856   -3.956016
      5          6           0       -1.201002   -0.273849   -3.521494
      6          1           0       -1.541405   -1.314556   -3.629510
      7          6           0       -1.294703    0.045779   -2.009129
      8          6           0        0.243185   -0.195796   -4.103583
      9          1           0        0.351956   -0.963339   -4.877425
     10          1           0        0.970414   -0.444171   -3.324038
     11          8           0       -2.082998    0.889310   -1.592096
     12          6           0        0.674148    1.142254   -4.753239
     13          1           0        1.724452    1.059093   -5.040343
     14          1           0        0.093173    1.313829   -5.667022
     15          6           0        0.540424    2.385009   -3.887840
     16          8           0       -0.684636    2.816115   -3.637292
     17          8           0        1.516264    2.997798   -3.456348
     18          7           0       -0.500646   -0.713012   -1.205415
     19          1           0        0.238481   -1.255670   -1.638751
     20          6           0       -0.175846   -0.310562    0.158925
     21          1           0       -0.814789    0.543478    0.395355
     22          6           0        1.303119    0.123057    0.142525
     23          6           0       -0.398395   -1.447090    1.180087
     24          1           0       -0.088315   -1.082952    2.170371
     25          1           0        0.282427   -2.272169    0.929959
     26          8           0        2.087099   -0.322671   -0.694266
     27          6           0       -1.842697   -1.978981    1.263893
     28          1           0       -2.116184   -2.349321    0.266055
     29          6           0       -1.900163   -3.163452    2.240527
     30          1           0       -1.643340   -2.848015    3.259971
     31          1           0       -2.906647   -3.594707    2.271812
     32          1           0       -1.203548   -3.959152    1.951497
     33          6           0       -2.850928   -0.888997    1.658986
     34          1           0       -2.584194   -0.436301    2.623801
     35          1           0       -2.915054   -0.092745    0.909454
     36          1           0       -3.853895   -1.316697    1.766477
     37          7           0        1.676146    1.019560    1.093536
     38          1           0        1.030416    1.256909    1.834298
     39          6           0        3.070299    1.434388    1.231233
     40          1           0        3.695455    0.537226    1.119959
     41          6           0        3.355940    1.979592    2.627875
     42          6           0        3.514583    2.431012    0.140115
     43          1           0        3.394154    1.924687   -0.822720
     44          1           0        4.582833    2.622874    0.286283
     45          8           0        4.298836    2.685819    2.895625
     46          6           0        2.736169    3.752208    0.146202
     47          1           0        1.660632    3.549293    0.073105
     48          1           0        2.909972    4.287010    1.088166
     49          6           0        3.155414    4.648256   -1.025934
     50          1           0        2.995524    4.143553   -1.981832
     51          1           0        4.220553    4.889371   -0.970246
     52          7           0        2.449391    5.945287   -1.038509
     53          1           0        2.916487    6.724496   -0.595510
     54          7           0        0.530729    5.237649   -2.147827
     55          1           0       -0.464373    5.326784   -2.300528
     56          1           0        0.975644    4.407010   -2.585937
     57          7           0        0.563676    7.296414   -1.089626
     58          1           0       -0.236263    7.620074   -1.613941
     59          1           0        1.003800    7.964844   -0.474715
     60          6           0        1.185667    6.145587   -1.435748
     61          8           0        2.449609    1.570151    3.547357
     62          1           0        2.734695    1.936106    4.407142
 ---------------------------------------------------------------------

 SCF Done:  E(RB3LYP) =  -1447.44185420     A.U. after    2 cycles

 Alpha  occ. eigenvalues --  -19.29928 -19.27218 -19.24031 -19.23822 -19.21675
 Alpha  occ. eigenvalues --  -19.21595 -14.51229 -14.51159 -14.48921 -14.46282
 Alpha  occ. eigenvalues --  -14.45326 -14.45023 -10.47048 -10.42184 -10.41989
 Alpha  occ. eigenvalues --  -10.38746 -10.38470 -10.34417 -10.34042 -10.33956
 Alpha  occ. eigenvalues --  -10.32424 -10.30387 -10.30113 -10.29387 -10.28527
 Alpha  occ. eigenvalues --  -10.27171 -10.26296 -10.24041 -10.23924  -1.20659
 Alpha  occ. eigenvalues --   -1.19222  -1.15413  -1.13935  -1.13138  -1.11632
 Alpha  occ. eigenvalues --   -1.10692  -1.04925  -1.03067  -1.02730  -1.02070
 Alpha  occ. eigenvalues --   -1.01061  -0.90852  -0.89644  -0.88596  -0.86323
 Alpha  occ. eigenvalues --   -0.83703  -0.80798  -0.80096  -0.76886  -0.75062
 Alpha  occ. eigenvalues --   -0.74320  -0.73364  -0.72971  -0.72601  -0.69571
 Alpha  occ. eigenvalues --   -0.69357  -0.68622  -0.67790  -0.67327  -0.64817
 Alpha  occ. eigenvalues --   -0.64509  -0.63258  -0.63159  -0.62751  -0.61262
 Alpha  occ. eigenvalues --   -0.60065  -0.59273  -0.58774  -0.58404  -0.57723
 Alpha  occ. eigenvalues --   -0.56784  -0.56365  -0.56188  -0.55762  -0.55374
 Alpha  occ. eigenvalues --   -0.54264  -0.53849  -0.52738  -0.52622  -0.52339
 Alpha  occ. eigenvalues --   -0.52002  -0.51146  -0.50823  -0.50303  -0.49487
 Alpha  occ. eigenvalues --   -0.48892  -0.48473  -0.48141  -0.47494  -0.46529
 Alpha  occ. eigenvalues --   -0.46254  -0.45868  -0.45343  -0.45229  -0.45079
 Alpha  occ. eigenvalues --   -0.44945  -0.44225  -0.43382  -0.41778  -0.41528
 Alpha  occ. eigenvalues --   -0.40762  -0.40291  -0.39759  -0.39685  -0.39380
 Alpha  occ. eigenvalues --   -0.38534  -0.37631  -0.37391  -0.36100  -0.35627
 Alpha  occ. eigenvalues --   -0.35335  -0.34150
 Alpha virt. eigenvalues --   -0.10977  -0.09676  -0.09219  -0.07813  -0.07771
 Alpha virt. eigenvalues --   -0.07272  -0.03779  -0.03146  -0.02622  -0.02320
 Alpha virt. eigenvalues --   -0.00304   0.00207   0.00656   0.01700   0.02326

 Mulliken charges:
               1
     1  N   -0.788557
     2  H    0.338642
     3  H    0.360328
     4  H    0.473879
     5  C   -0.078706
     6  H    0.183638
     7  C    0.608201
     8  C   -0.312841
     9  H    0.175141
    10  H    0.191486
    11  O   -0.519881
    12  C   -0.365517
    13  H    0.196569
    14  H    0.177339
    15  C    0.616807
    16  O   -0.601195
    17  O   -0.516162
    18  N   -0.578352
    19  H    0.349332
    20  C   -0.100126
    21  H    0.187017
    22  C    0.629037
    23  C   -0.261714
    24  H    0.139294
    25  H    0.151280
    26  O   -0.532791
    27  C   -0.065962
    28  H    0.135183
    29  C   -0.446226
    30  H    0.145451
    31  H    0.156019
    32  H    0.147505
    33  C   -0.468382
    34  H    0.135223
    35  H    0.165013
    36  H    0.157186
    37  N   -0.621577
    38  H    0.355353
    39  C   -0.041852
    40  H    0.218370
    41  C    0.583389
    42  C   -0.276849
    43  H    0.188083
    44  H    0.175552
    45  O   -0.448896
    46  C   -0.273492
    47  H    0.154411
    48  H    0.157627
    49  C   -0.187989
    50  H    0.222847
    51  H    0.185603
    52  N   -0.602609
    53  H    0.356969
    54  N   -0.793736
    55  H    0.370211
    56  H    0.443776
    57  N   -0.766253
    58  H    0.377700
    59  H    0.373042
    60  C    0.812812
    61  O   -0.575480
    62  H    0.429827
 Sum of Mulliken charges =   1.00000

 Dipole moment (field-independent basis, Debye):
    X=              1.6691    Y=             17.6795    Z=             -6.5343  Tot=             18.9221
 Quadrupole moment (field-independent basis, Debye-Ang):
   XX=           -159.5458   YY=            -29.1213   ZZ=           -116.2845
   XY=             24.9506   XZ=             13.2230   YZ=            -12.9229

 Normal termination of Gaussian 16 at Fri May 27 01:16:31 2022.
