 Gaussian 16, Revision C.01,
 Gaussian 16:  ES64L-G16RevC.01  3-Jul-2019

 -------------------------------------------------------------------
 # B3LYP/6-31G* guess=read geom=check nosymm integral(ultrafinegrid)
 -------------------------------------------------------------------

 ------------------------------------------------------
 Candidate Structure: Conf:234 Charge calc in gas phase
 ------------------------------------------------------
 Structure from the checkpoint file:  "conf-234.chk"
 Charge =  1 Multiplicity = 1

                          Input orientation:
 ---------------------------------------------------------------------
 Center     Atomic      Atomic             Coordinates (Angstroms)
 Number     Number       Type             X           Y           Z
 ---------------------------------------------------------------------
      1          7           0       -3.848364   -0.352631   -3.155937
      2          1           0       -4.382726   -1.223166   -3.080588
      3          1           0       -4.072286    0.255905   -2.319869
      4          1           0       -4.096370    0.114371   -4.033328
      5          6           0       -2.345085   -0.547847   -3.014969
      6          1           0       -2.111037   -1.588437   -3.253878
      7          6           0       -2.109711   -0.206913   -1.520835
      8          6           0       -1.624381    0.433681   -3.956730
      9          1           0       -1.858839    1.459084   -3.645204
     10          1           0       -2.020872    0.321127   -4.973268
     11          8           0       -2.977619    0.465096   -0.943886
     12          6           0       -0.106023    0.251946   -4.028240
     13          1           0        0.378464    0.336047   -3.053427
     14          1           0        0.147519   -0.743818   -4.417820
     15          6           0        0.529891    1.308537   -4.967756
     16          8           0        1.799782    1.423323   -4.847145
     17          8           0       -0.207746    1.925333   -5.747680
     18          7           0       -0.965857   -0.627033   -0.981352
     19          1           0       -0.269664   -1.096710   -1.557914
     20          6           0       -0.398145   -0.099189    0.268513
     21          1           0       -0.975595    0.786983    0.540899
     22          6           0        1.051186    0.263655   -0.117769
     23          6           0       -0.456895   -1.157946    1.391174
     24          1           0        0.121409   -2.029237    1.057958
     25          1           0       -1.502626   -1.481027    1.477495
     26          8           0        1.652595   -0.436329   -0.935211
     27          6           0        0.049297   -0.699915    2.774701
     28          1           0        1.082732   -0.340678    2.663981
     29          6           0       -0.796363    0.440701    3.363833
     30          1           0       -1.843907    0.133894    3.475692
     31          1           0       -0.425249    0.723720    4.354348
     32          1           0       -0.784023    1.347835    2.746637
     33          6           0        0.077350   -1.900430    3.733353
     34          1           0       -0.930645   -2.306812    3.884418
     35          1           0        0.710781   -2.707396    3.347789
     36          1           0        0.466928   -1.607030    4.713948
     37          7           0        1.588356    1.367242    0.441459
     38          1           0        1.108217    1.892552    1.164275
     39          6           0        2.949942    1.788661    0.132178
     40          1           0        3.575628    0.895777    0.031359
     41          6           0        3.424403    2.609631    1.325893
     42          6           0        3.007539    2.595865   -1.198088
     43          1           0        2.606825    3.603157   -1.021882
     44          1           0        2.325038    2.095250   -1.891934
     45          8           0        2.685894    3.047552    2.181535
     46          6           0        4.409867    2.669845   -1.823124
     47          1           0        5.142354    2.984270   -1.073465
     48          1           0        4.712605    1.671234   -2.162776
     49          6           0        4.518433    3.658305   -2.989011
     50          1           0        5.566299    3.691894   -3.320050
     51          1           0        4.248682    4.664483   -2.634625
     52          7           0        3.660686    3.285368   -4.110825
     53          1           0        3.040707    2.461105   -4.065422
     54          7           0        4.228398    5.144372   -5.410569
     55          1           0        4.339852    5.515955   -6.342913
     56          1           0        4.943369    5.406688   -4.749169
     57          7           0        2.794467    3.492561   -6.229665
     58          1           0        2.505728    4.090051   -6.990774
     59          1           0        2.219658    2.651334   -5.972677
     60          6           0        3.562553    3.972168   -5.253056
     61          8           0        4.753338    2.815520    1.311566
     62          1           0        4.968558    3.361302    2.093410
 ---------------------------------------------------------------------

 SCF Done:  E(RB3LYP) =  -1447.41281246     A.U. after    1 cycles

 Alpha  occ. eigenvalues --  -19.30177 -19.25947 -19.24552 -19.22249 -19.15790
 Alpha  occ. eigenvalues --  -19.14840 -14.59097 -14.48860 -14.47965 -14.46793
 Alpha  occ. eigenvalues --  -14.46080 -14.44388 -10.42764 -10.42753 -10.42594
 Alpha  occ. eigenvalues --  -10.39434 -10.39353 -10.34345 -10.34336 -10.33705
 Alpha  occ. eigenvalues --  -10.33365 -10.30799 -10.29304 -10.28968 -10.28148
 Alpha  occ. eigenvalues --  -10.27639 -10.26778 -10.25487 -10.24827  -1.21155
 Alpha  occ. eigenvalues --   -1.18318  -1.14455  -1.12868  -1.12222  -1.11574
 Alpha  occ. eigenvalues --   -1.08566  -1.05474  -1.03199  -1.01270  -0.99911
 Alpha  occ. eigenvalues --   -0.99039  -0.92471  -0.90635  -0.89659  -0.86071
 Alpha  occ. eigenvalues --   -0.84487  -0.82159  -0.78595  -0.76308  -0.75626
 Alpha  occ. eigenvalues --   -0.74912  -0.73882  -0.73224  -0.72741  -0.71372
 Alpha  occ. eigenvalues --   -0.69852  -0.69530  -0.68553  -0.68190  -0.66012
 Alpha  occ. eigenvalues --   -0.65357  -0.64687  -0.62222  -0.61155  -0.60262
 Alpha  occ. eigenvalues --   -0.59428  -0.58933  -0.58476  -0.58343  -0.58096
 Alpha  occ. eigenvalues --   -0.57239  -0.56595  -0.56124  -0.55763  -0.55295
 Alpha  occ. eigenvalues --   -0.54769  -0.53652  -0.53178  -0.52563  -0.52174
 Alpha  occ. eigenvalues --   -0.51335  -0.51209  -0.50631  -0.50381  -0.50262
 Alpha  occ. eigenvalues --   -0.48695  -0.48546  -0.47855  -0.46924  -0.46755
 Alpha  occ. eigenvalues --   -0.46434  -0.45995  -0.45618  -0.45000  -0.44632
 Alpha  occ. eigenvalues --   -0.44226  -0.43831  -0.42350  -0.42042  -0.41877
 Alpha  occ. eigenvalues --   -0.41137  -0.40971  -0.40243  -0.38581  -0.38460
 Alpha  occ. eigenvalues --   -0.38060  -0.36139  -0.35845  -0.35305  -0.31135
 Alpha  occ. eigenvalues --   -0.30910  -0.29162
 Alpha virt. eigenvalues --   -0.11511  -0.09986  -0.09566  -0.08048  -0.07145
 Alpha virt. eigenvalues --   -0.05134  -0.03783  -0.03157  -0.02308  -0.01468
 Alpha virt. eigenvalues --   -0.01277  -0.00729  -0.00288   0.00286   0.01590

 Mulliken charges:
               1
     1  N   -0.751544
     2  H    0.413232
     3  H    0.429044
     4  H    0.416421
     5  C   -0.120621
     6  H    0.205684
     7  C    0.643809
     8  C   -0.280334
     9  H    0.180022
    10  H    0.185888
    11  O   -0.538140
    12  C   -0.399013
    13  H    0.167127
    14  H    0.165749
    15  C    0.620831
    16  O   -0.655689
    17  O   -0.557394
    18  N   -0.591539
    19  H    0.374784
    20  C   -0.082284
    21  H    0.190220
    22  C    0.635353
    23  C   -0.252055
    24  H    0.157447
    25  H    0.155806
    26  O   -0.536875
    27  C   -0.091867
    28  H    0.133058
    29  C   -0.452835
    30  H    0.155492
    31  H    0.167862
    32  H    0.131501
    33  C   -0.446670
    34  H    0.150269
    35  H    0.152175
    36  H    0.159951
    37  N   -0.623733
    38  H    0.367204
    39  C   -0.031904
    40  H    0.209222
    41  C    0.585832
    42  C   -0.287337
    43  H    0.153186
    44  H    0.194379
    45  O   -0.456757
    46  C   -0.315398
    47  H    0.183916
    48  H    0.179695
    49  C   -0.144726
    50  H    0.168510
    51  H    0.163838
    52  N   -0.636253
    53  H    0.425101
    54  N   -0.764184
    55  H    0.367037
    56  H    0.369966
    57  N   -0.781520
    58  H    0.349984
    59  H    0.430980
    60  C    0.784798
    61  O   -0.557328
    62  H    0.430626
 Sum of Mulliken charges =   1.00000

 Dipole moment (field-independent basis, Debye):
    X=              1.1318    Y=              7.5253    Z=            -11.0549  Tot=             13.4210
 Quadrupole moment (field-independent basis, Debye-Ang):
   XX=            -69.1167   YY=           -112.0446   ZZ=           -110.1533
   XY=             71.5951   XZ=              1.9026   YZ=            -36.8612

 Normal termination of Gaussian 16 at Fri May 27 00:59:09 2022.
