 Gaussian 16, Revision C.01,
 Gaussian 16:  ES64L-G16RevC.01  3-Jul-2019

 -------------------------------------------------------------------
 # B3LYP/6-31G* guess=read geom=check nosymm integral(ultrafinegrid)
 -------------------------------------------------------------------

 ------------------------------------------------------
 Candidate Structure: Conf:684 Charge calc in gas phase
 ------------------------------------------------------
 Structure from the checkpoint file:  "conf-684.chk"
 Charge =  1 Multiplicity = 1

                          Input orientation:
 ---------------------------------------------------------------------
 Center     Atomic      Atomic             Coordinates (Angstroms)
 Number     Number       Type             X           Y           Z
 ---------------------------------------------------------------------
      1          7           0       -2.293176   -1.036106   -3.675474
      2          1           0       -2.783921   -1.881952   -3.369010
      3          1           0       -2.637022   -0.222602   -3.091163
      4          1           0       -2.478111   -0.885851   -4.671455
      5          6           0       -0.808155   -1.042773   -3.347536
      6          1           0       -0.479223   -2.083460   -3.285561
      7          6           0       -0.791734   -0.356608   -1.954448
      8          6           0       -0.071088   -0.287411   -4.471865
      9          1           0       -0.625559    0.627989   -4.715147
     10          1           0       -0.072238   -0.941676   -5.352550
     11          8           0       -1.739272    0.392175   -1.684023
     12          6           0        1.353339    0.164220   -4.123272
     13          1           0        1.887828   -0.541371   -3.479696
     14          1           0        1.930958    0.218740   -5.053887
     15          6           0        1.398201    1.584727   -3.510287
     16          8           0        2.334766    1.807599   -2.683009
     17          8           0        0.545447    2.407739   -3.916621
     18          7           0        0.230437   -0.637857   -1.142057
     19          1           0        0.905470   -1.338443   -1.423753
     20          6           0        0.353918   -0.068955    0.221646
     21          1           0        0.013476    0.966171    0.140380
     22          6           0        1.854742   -0.085260    0.615497
     23          6           0       -0.506580   -0.841380    1.231679
     24          1           0       -0.070541   -1.839114    1.350957
     25          1           0       -1.510685   -0.957585    0.803275
     26          8           0        2.295236   -0.892590    1.425022
     27          6           0       -0.626344   -0.171907    2.618174
     28          1           0        0.389955    0.008966    2.989440
     29          6           0       -1.375425    1.168922    2.563087
     30          1           0       -2.391843    1.038158    2.169612
     31          1           0       -1.462282    1.600743    3.566273
     32          1           0       -0.867968    1.912085    1.936721
     33          6           0       -1.316612   -1.137223    3.593522
     34          1           0       -2.336123   -1.374162    3.261535
     35          1           0       -0.762536   -2.078430    3.682380
     36          1           0       -1.389590   -0.695974    4.593590
     37          7           0        2.609884    0.874826    0.024433
     38          1           0        2.283965    1.304545   -0.844206
     39          6           0        4.038501    0.976629    0.296454
     40          1           0        4.561498    0.068915   -0.026349
     41          6           0        4.365855    1.100997    1.786257
     42          6           0        4.623889    2.181198   -0.477273
     43          1           0        4.419303    2.004523   -1.538149
     44          1           0        5.711507    2.163839   -0.352752
     45          8           0        5.427827    0.759885    2.250176
     46          6           0        4.059872    3.546133   -0.023251
     47          1           0        3.026451    3.439677    0.323863
     48          1           0        4.632115    3.909897    0.837198
     49          6           0        4.092695    4.638976   -1.100117
     50          1           0        5.087198    4.692617   -1.565578
     51          1           0        3.894121    5.605697   -0.622026
     52          7           0        3.065737    4.404569   -2.121856
     53          1           0        2.766269    3.421990   -2.315012
     54          7           0        2.922093    6.622333   -2.846654
     55          1           0        2.312480    7.373565   -3.133600
     56          1           0        3.749160    6.877402   -2.330431
     57          7           0        1.389176    5.045035   -3.579515
     58          1           0        1.136045    5.661219   -4.338995
     59          1           0        1.030870    4.066343   -3.628833
     60          6           0        2.468160    5.345721   -2.843352
     61          8           0        3.400379    1.715448    2.507693
     62          1           0        3.730471    1.740544    3.426442
 ---------------------------------------------------------------------

 SCF Done:  E(RB3LYP) =  -1447.41627598     A.U. after    1 cycles

 Alpha  occ. eigenvalues --  -19.26543 -19.26488 -19.20432 -19.20136 -19.19828
 Alpha  occ. eigenvalues --  -19.19773 -14.60382 -14.50173 -14.48637 -14.46587
 Alpha  occ. eigenvalues --  -14.45927 -14.43658 -10.43784 -10.43449 -10.40835
 Alpha  occ. eigenvalues --  -10.38826 -10.37887 -10.37165 -10.33264 -10.33238
 Alpha  occ. eigenvalues --  -10.32867 -10.31730 -10.29789 -10.28202 -10.27826
 Alpha  occ. eigenvalues --  -10.26486 -10.25779 -10.24035 -10.23516  -1.19131
 Alpha  occ. eigenvalues --   -1.17306  -1.14067  -1.13158  -1.12135  -1.12001
 Alpha  occ. eigenvalues --   -1.08225  -1.06110  -1.04320  -1.01673  -1.00595
 Alpha  occ. eigenvalues --   -1.00128  -0.93646  -0.89478  -0.88660  -0.85654
 Alpha  occ. eigenvalues --   -0.84368  -0.82384  -0.77413  -0.77132  -0.74887
 Alpha  occ. eigenvalues --   -0.74569  -0.74448  -0.73776  -0.71846  -0.71312
 Alpha  occ. eigenvalues --   -0.70964  -0.69440  -0.68617  -0.66503  -0.65263
 Alpha  occ. eigenvalues --   -0.65181  -0.63518  -0.63167  -0.62042  -0.61376
 Alpha  occ. eigenvalues --   -0.60113  -0.58959  -0.58893  -0.58203  -0.57502
 Alpha  occ. eigenvalues --   -0.56940  -0.56429  -0.55506  -0.54584  -0.54011
 Alpha  occ. eigenvalues --   -0.53802  -0.53409  -0.53075  -0.52457  -0.51997
 Alpha  occ. eigenvalues --   -0.51852  -0.50940  -0.50143  -0.50104  -0.49383
 Alpha  occ. eigenvalues --   -0.49274  -0.48378  -0.47552  -0.47287  -0.46979
 Alpha  occ. eigenvalues --   -0.46644  -0.45551  -0.45235  -0.44660  -0.43485
 Alpha  occ. eigenvalues --   -0.43426  -0.43299  -0.42696  -0.41719  -0.40760
 Alpha  occ. eigenvalues --   -0.39575  -0.39129  -0.39035  -0.38360  -0.37851
 Alpha  occ. eigenvalues --   -0.36609  -0.35433  -0.35047  -0.34680  -0.34153
 Alpha  occ. eigenvalues --   -0.33753  -0.32801
 Alpha virt. eigenvalues --   -0.12703  -0.11062  -0.08039  -0.07818  -0.06319
 Alpha virt. eigenvalues --   -0.05861  -0.05424  -0.04586  -0.04329  -0.01918
 Alpha virt. eigenvalues --   -0.01152  -0.00944  -0.00136   0.00368   0.01504

 Mulliken charges:
               1
     1  N   -0.750081
     2  H    0.415722
     3  H    0.434025
     4  H    0.415918
     5  C   -0.117245
     6  H    0.205243
     7  C    0.669203
     8  C   -0.296057
     9  H    0.203928
    10  H    0.166767
    11  O   -0.534939
    12  C   -0.362141
    13  H    0.147660
    14  H    0.195350
    15  C    0.607535
    16  O   -0.601562
    17  O   -0.569094
    18  N   -0.610986
    19  H    0.357687
    20  C   -0.059943
    21  H    0.194654
    22  C    0.593724
    23  C   -0.248196
    24  H    0.158007
    25  H    0.131856
    26  O   -0.504448
    27  C   -0.084727
    28  H    0.158715
    29  C   -0.451056
    30  H    0.144051
    31  H    0.156860
    32  H    0.138785
    33  C   -0.448540
    34  H    0.137752
    35  H    0.154648
    36  H    0.154462
    37  N   -0.641179
    38  H    0.384486
    39  C   -0.014091
    40  H    0.187403
    41  C    0.611073
    42  C   -0.337446
    43  H    0.186483
    44  H    0.180144
    45  O   -0.460807
    46  C   -0.298176
    47  H    0.178971
    48  H    0.171813
    49  C   -0.155835
    50  H    0.175376
    51  H    0.158120
    52  N   -0.635993
    53  H    0.421959
    54  N   -0.768620
    55  H    0.368867
    56  H    0.374588
    57  N   -0.802617
    58  H    0.349721
    59  H    0.427750
    60  C    0.784668
    61  O   -0.568985
    62  H    0.418793
 Sum of Mulliken charges =   1.00000

 Dipole moment (field-independent basis, Debye):
    X=             -0.9999    Y=              8.5510    Z=            -16.7830  Tot=             18.8623
 Quadrupole moment (field-independent basis, Debye-Ang):
   XX=           -143.3873   YY=            -67.9093   ZZ=           -101.6294
   XY=             58.7476   XZ=              5.4154   YZ=             -8.1018

 Normal termination of Gaussian 16 at Fri May 27 00:59:15 2022.
