 Gaussian 16, Revision C.01,
 Gaussian 16:  ES64L-G16RevC.01  3-Jul-2019

 -------------------------------------------------------------------
 # B3LYP/6-31G* guess=read geom=check nosymm integral(ultrafinegrid)
 -------------------------------------------------------------------

 ------------------------------------------------------
 Candidate Structure: Conf:879 Charge calc in gas phase
 ------------------------------------------------------
 Structure from the checkpoint file:  "conf-879.chk"
 Charge =  1 Multiplicity = 1

                          Input orientation:
 ---------------------------------------------------------------------
 Center     Atomic      Atomic             Coordinates (Angstroms)
 Number     Number       Type             X           Y           Z
 ---------------------------------------------------------------------
      1          7           0       -1.253594   -0.481014   -4.438175
      2          1           0       -1.955953   -1.206499   -4.609887
      3          1           0       -1.721100    0.334509   -3.948834
      4          1           0       -0.847731   -0.195728   -5.333925
      5          6           0       -0.193860   -0.894292   -3.426706
      6          1           0       -0.182382   -1.985933   -3.377664
      7          6           0       -0.718561   -0.235599   -2.123148
      8          6           0        1.181745   -0.329569   -3.848782
      9          1           0        1.222937    0.743952   -3.633521
     10          1           0        1.280896   -0.452190   -4.937623
     11          8           0       -1.545309    0.681633   -2.244136
     12          6           0        2.384438   -1.011228   -3.182282
     13          1           0        2.264073   -1.050434   -2.093919
     14          1           0        2.519220   -2.028753   -3.560378
     15          6           0        3.682238   -0.195844   -3.421604
     16          8           0        3.604380    1.035353   -3.064312
     17          8           0        4.667239   -0.780934   -3.897707
     18          7           0       -0.215341   -0.677927   -0.969489
     19          1           0        0.554840   -1.342848   -0.990418
     20          6           0       -0.249233    0.100980    0.281485
     21          1           0       -0.820155    1.008640    0.077605
     22          6           0        1.235723    0.416109    0.557711
     23          6           0       -0.868205   -0.693072    1.446267
     24          1           0       -0.786883   -0.069876    2.347973
     25          1           0       -0.240331   -1.575654    1.624142
     26          8           0        2.083007   -0.449218    0.337316
     27          6           0       -2.335678   -1.124053    1.254343
     28          1           0       -2.386881   -1.739067    0.343574
     29          6           0       -2.771350   -2.001953    2.437666
     30          1           0       -2.745183   -1.436743    3.377750
     31          1           0       -3.795491   -2.364549    2.298221
     32          1           0       -2.118639   -2.874803    2.554189
     33          6           0       -3.285505    0.070983    1.078533
     34          1           0       -3.229766    0.747548    1.941387
     35          1           0       -3.065724    0.650048    0.174601
     36          1           0       -4.322912   -0.272394    1.000213
     37          7           0        1.527157    1.655779    1.011933
     38          1           0        0.791156    2.334478    1.154466
     39          6           0        2.912402    2.108800    1.115921
     40          1           0        3.520738    1.219032    1.295182
     41          6           0        3.119422    3.053944    2.289479
     42          6           0        3.380520    2.778957   -0.206609
     43          1           0        2.956666    3.791697   -0.266095
     44          1           0        2.965238    2.194922   -1.034757
     45          8           0        4.202542    3.341937    2.741740
     46          6           0        4.904439    2.808541   -0.378981
     47          1           0        5.393697    3.240174    0.501151
     48          1           0        5.256940    1.774768   -0.477049
     49          6           0        5.298416    3.592232   -1.642449
     50          1           0        5.193618    4.670013   -1.483164
     51          1           0        4.643509    3.329794   -2.476861
     52          7           0        6.685737    3.359018   -2.066414
     53          1           0        7.405040    3.799552   -1.507933
     54          7           0        6.187756    1.477413   -3.336308
     55          1           0        6.451008    0.622522   -3.817751
     56          1           0        5.131284    1.471444   -3.163126
     57          7           0        8.405924    2.040708   -2.900871
     58          1           0        8.703512    1.353285   -3.579358
     59          1           0        9.050515    2.807989   -2.768910
     60          6           0        7.068694    2.276383   -2.780428
     61          8           0        1.960241    3.599293    2.731750
     62          1           0        2.194218    4.215322    3.452733
 ---------------------------------------------------------------------

 SCF Done:  E(RB3LYP) =  -1447.40279143     A.U. after    3 cycles

 Alpha  occ. eigenvalues --  -19.29088 -19.26542 -19.22950 -19.21818 -19.16193
 Alpha  occ. eigenvalues --  -19.15048 -14.59490 -14.49290 -14.47709 -14.47651
 Alpha  occ. eigenvalues --  -14.46577 -14.44055 -10.43293 -10.43077 -10.41284
 Alpha  occ. eigenvalues --  -10.39867 -10.39101 -10.34309 -10.33882 -10.33223
 Alpha  occ. eigenvalues --  -10.32073 -10.31586 -10.28153 -10.27852 -10.27525
 Alpha  occ. eigenvalues --  -10.27347 -10.26855 -10.25160 -10.24793  -1.19765
 Alpha  occ. eigenvalues --   -1.18874  -1.14050  -1.13230  -1.11693  -1.10735
 Alpha  occ. eigenvalues --   -1.08827  -1.05806  -1.02888  -1.01578  -1.00016
 Alpha  occ. eigenvalues --   -0.98795  -0.92740  -0.90235  -0.89099  -0.85755
 Alpha  occ. eigenvalues --   -0.84091  -0.82349  -0.78297  -0.76184  -0.75709
 Alpha  occ. eigenvalues --   -0.74676  -0.73562  -0.73397  -0.71898  -0.71011
 Alpha  occ. eigenvalues --   -0.69999  -0.69078  -0.68880  -0.68440  -0.66176
 Alpha  occ. eigenvalues --   -0.65864  -0.64023  -0.62738  -0.62100  -0.60849
 Alpha  occ. eigenvalues --   -0.58757  -0.58345  -0.58004  -0.57494  -0.57192
 Alpha  occ. eigenvalues --   -0.56614  -0.56358  -0.55780  -0.55341  -0.54695
 Alpha  occ. eigenvalues --   -0.53631  -0.53236  -0.53014  -0.52651  -0.51969
 Alpha  occ. eigenvalues --   -0.51536  -0.50703  -0.50260  -0.49301  -0.49021
 Alpha  occ. eigenvalues --   -0.48527  -0.47973  -0.47730  -0.47438  -0.46662
 Alpha  occ. eigenvalues --   -0.46417  -0.46024  -0.45880  -0.44619  -0.44305
 Alpha  occ. eigenvalues --   -0.43755  -0.42649  -0.42328  -0.41397  -0.41170
 Alpha  occ. eigenvalues --   -0.40964  -0.40896  -0.40554  -0.39130  -0.38020
 Alpha  occ. eigenvalues --   -0.37311  -0.36377  -0.35574  -0.34349  -0.31477
 Alpha  occ. eigenvalues --   -0.31126  -0.29285
 Alpha virt. eigenvalues --   -0.12033  -0.10476  -0.08362  -0.07746  -0.07295
 Alpha virt. eigenvalues --   -0.06025  -0.04547  -0.03729  -0.02321  -0.01484
 Alpha virt. eigenvalues --   -0.01135  -0.00440   0.00214   0.00621   0.01423

 Mulliken charges:
               1
     1  N   -0.753251
     2  H    0.414351
     3  H    0.430541
     4  H    0.412528
     5  C   -0.112268
     6  H    0.210665
     7  C    0.645783
     8  C   -0.302129
     9  H    0.203143
    10  H    0.161470
    11  O   -0.538992
    12  C   -0.371537
    13  H    0.178907
    14  H    0.161342
    15  C    0.595833
    16  O   -0.637053
    17  O   -0.564852
    18  N   -0.574900
    19  H    0.370510
    20  C   -0.102029
    21  H    0.187294
    22  C    0.647026
    23  C   -0.261885
    24  H    0.155148
    25  H    0.162048
    26  O   -0.529490
    27  C   -0.070909
    28  H    0.121236
    29  C   -0.446373
    30  H    0.152339
    31  H    0.156701
    32  H    0.150440
    33  C   -0.465775
    34  H    0.147271
    35  H    0.154407
    36  H    0.159015
    37  N   -0.612548
    38  H    0.353192
    39  C   -0.057963
    40  H    0.220140
    41  C    0.595657
    42  C   -0.298353
    43  H    0.140889
    44  H    0.205954
    45  O   -0.445037
    46  C   -0.274323
    47  H    0.174095
    48  H    0.167912
    49  C   -0.179820
    50  H    0.172681
    51  H    0.207253
    52  N   -0.600490
    53  H    0.347441
    54  N   -0.798464
    55  H    0.366898
    56  H    0.452752
    57  N   -0.760450
    58  H    0.368526
    59  H    0.360315
    60  C    0.797371
    61  O   -0.578254
    62  H    0.428071
 Sum of Mulliken charges =   1.00000

 Dipole moment (field-independent basis, Debye):
    X=              7.2863    Y=              5.9532    Z=            -12.4737  Tot=             15.6244
 Quadrupole moment (field-independent basis, Debye-Ang):
   XX=            -50.2398   YY=           -135.8673   ZZ=           -100.4269
   XY=             60.7464   XZ=            -16.0903   YZ=              3.7433

 Normal termination of Gaussian 16 at Fri May 27 00:59:33 2022.
