 Gaussian 16, Revision C.01,
 Gaussian 16:  ES64L-G16RevC.01  3-Jul-2019

 -------------------------------------------------------------------
 # B3LYP/6-31G* guess=read geom=check nosymm integral(ultrafinegrid)
 -------------------------------------------------------------------

 ------------------------------------------------------
 Candidate Structure: Conf:102 Charge calc in gas phase
 ------------------------------------------------------
 Structure from the checkpoint file:  "conf-102.chk"
 Charge =  1 Multiplicity = 1

                          Input orientation:
 ---------------------------------------------------------------------
 Center     Atomic      Atomic             Coordinates (Angstroms)
 Number     Number       Type             X           Y           Z
 ---------------------------------------------------------------------
      1          7           0       -3.355660   -1.635592   -3.357176
      2          1           0       -3.359828   -2.575487   -2.949528
      3          1           0       -3.763445   -0.965110   -2.652910
      4          1           0       -3.901920   -1.650568   -4.222956
      5          6           0       -1.945958   -1.082742   -3.552575
      6          1           0       -1.249837   -1.903954   -3.711322
      7          6           0       -1.704713   -0.368075   -2.195000
      8          6           0       -1.986593   -0.153074   -4.778532
      9          1           0       -2.822775    0.548931   -4.652153
     10          1           0       -2.211015   -0.776918   -5.654916
     11          8           0       -2.711226    0.047792   -1.594309
     12          6           0       -0.707491    0.651583   -5.050280
     13          1           0       -0.836028    1.205156   -5.983394
     14          1           0       -0.574216    1.397106   -4.254283
     15          6           0        0.596807   -0.166573   -5.130582
     16          8           0        0.790535   -1.026591   -4.199170
     17          8           0        1.390053    0.115074   -6.049105
     18          7           0       -0.444209   -0.301933   -1.772328
     19          1           0        0.277519   -0.628285   -2.436182
     20          6           0       -0.049852    0.288188   -0.485863
     21          1           0       -0.688762    1.155827   -0.296260
     22          6           0        1.424407    0.695794   -0.593097
     23          6           0       -0.128414   -0.715781    0.698619
     24          1           0        0.393333   -0.253193    1.549392
     25          1           0        0.464863   -1.592064    0.411010
     26          8           0        2.239095   -0.072545   -1.110882
     27          6           0       -1.525832   -1.154757    1.180255
     28          1           0       -2.072483   -1.578061    0.327191
     29          6           0       -1.363798   -2.263616    2.233041
     30          1           0       -0.821127   -1.895369    3.112710
     31          1           0       -2.341047   -2.621177    2.575390
     32          1           0       -0.810621   -3.122720    1.835438
     33          6           0       -2.348097    0.014539    1.739877
     34          1           0       -1.823900    0.499235    2.573855
     35          1           0       -2.562482    0.767712    0.975706
     36          1           0       -3.311045   -0.341685    2.122252
     37          7           0        1.778522    1.873789   -0.030565
     38          1           0        1.096443    2.394293    0.513811
     39          6           0        3.170341    2.200662    0.274014
     40          1           0        3.735860    1.264431    0.316539
     41          6           0        3.174915    2.832992    1.666042
     42          6           0        3.828026    3.168282   -0.744003
     43          1           0        4.816499    3.440689   -0.355719
     44          1           0        3.233629    4.089661   -0.763233
     45          8           0        2.174688    3.186064    2.252028
     46          6           0        3.953707    2.636813   -2.181009
     47          1           0        2.990844    2.236572   -2.516929
     48          1           0        4.179700    3.487590   -2.836133
     49          6           0        5.048898    1.572644   -2.386471
     50          1           0        4.897472    0.703757   -1.739787
     51          1           0        6.032451    1.977844   -2.130150
     52          7           0        5.130113    1.113439   -3.778944
     53          1           0        5.656389    1.702530   -4.409983
     54          7           0        3.413783   -0.453498   -3.610635
     55          1           0        2.572009   -0.898497   -4.019795
     56          1           0        3.331979   -0.303647   -2.610238
     57          7           0        4.127984    0.204684   -5.696029
     58          1           0        3.186815   -0.062078   -6.040675
     59          1           0        4.612008    0.893870   -6.255262
     60          6           0        4.205917    0.304289   -4.355954
     61          8           0        4.420960    2.971228    2.143873
     62          1           0        4.355302    3.400857    3.019086
 ---------------------------------------------------------------------

 SCF Done:  E(RB3LYP) =  -1447.43579668     A.U. after    2 cycles

 Alpha  occ. eigenvalues --  -19.30427 -19.25154 -19.25016 -19.23810 -19.18705
 Alpha  occ. eigenvalues --  -19.18042 -14.58968 -14.48103 -14.47802 -14.47796
 Alpha  occ. eigenvalues --  -14.45072 -14.44381 -10.43039 -10.42642 -10.41883
 Alpha  occ. eigenvalues --  -10.40844 -10.38388 -10.36444 -10.35152 -10.34802
 Alpha  occ. eigenvalues --  -10.33799 -10.32229 -10.30211 -10.29704 -10.28511
 Alpha  occ. eigenvalues --  -10.28370 -10.27696 -10.25172 -10.24949  -1.21519
 Alpha  occ. eigenvalues --   -1.17535  -1.15707  -1.12703  -1.12570  -1.11787
 Alpha  occ. eigenvalues --   -1.11094  -1.04615  -1.04263  -1.02604  -1.01409
 Alpha  occ. eigenvalues --   -0.98422  -0.92492  -0.91320  -0.89915  -0.86576
 Alpha  occ. eigenvalues --   -0.84948  -0.82671  -0.79551  -0.76550  -0.75985
 Alpha  occ. eigenvalues --   -0.75267  -0.73772  -0.72832  -0.72378  -0.71374
 Alpha  occ. eigenvalues --   -0.70211  -0.69471  -0.68961  -0.68762  -0.66594
 Alpha  occ. eigenvalues --   -0.64752  -0.63998  -0.62031  -0.61665  -0.60853
 Alpha  occ. eigenvalues --   -0.60016  -0.59239  -0.59007  -0.58305  -0.58217
 Alpha  occ. eigenvalues --   -0.57486  -0.57093  -0.56407  -0.56245  -0.55639
 Alpha  occ. eigenvalues --   -0.55187  -0.53960  -0.53463  -0.53102  -0.52380
 Alpha  occ. eigenvalues --   -0.52223  -0.51353  -0.51101  -0.50785  -0.50150
 Alpha  occ. eigenvalues --   -0.49671  -0.49608  -0.48860  -0.48581  -0.47965
 Alpha  occ. eigenvalues --   -0.47493  -0.47136  -0.46299  -0.46037  -0.45779
 Alpha  occ. eigenvalues --   -0.45051  -0.44732  -0.44261  -0.42498  -0.41739
 Alpha  occ. eigenvalues --   -0.41254  -0.40958  -0.39557  -0.38983  -0.38193
 Alpha  occ. eigenvalues --   -0.37661  -0.36957  -0.36754  -0.36505  -0.33920
 Alpha  occ. eigenvalues --   -0.33464  -0.32206
 Alpha virt. eigenvalues --   -0.11455  -0.10125  -0.09811  -0.09344  -0.07535
 Alpha virt. eigenvalues --   -0.04991  -0.04242  -0.03849  -0.02427  -0.01465
 Alpha virt. eigenvalues --   -0.01103  -0.00593  -0.00220   0.00662   0.01447

 Mulliken charges:
               1
     1  N   -0.753164
     2  H    0.413751
     3  H    0.424975
     4  H    0.409690
     5  C   -0.103909
     6  H    0.240234
     7  C    0.629649
     8  C   -0.297632
     9  H    0.165705
    10  H    0.174437
    11  O   -0.554410
    12  C   -0.355256
    13  H    0.185524
    14  H    0.159804
    15  C    0.606715
    16  O   -0.627274
    17  O   -0.560231
    18  N   -0.623823
    19  H    0.406893
    20  C   -0.038986
    21  H    0.180304
    22  C    0.608116
    23  C   -0.262648
    24  H    0.149877
    25  H    0.164375
    26  O   -0.552617
    27  C   -0.067661
    28  H    0.112172
    29  C   -0.447914
    30  H    0.153030
    31  H    0.155688
    32  H    0.145669
    33  C   -0.458714
    34  H    0.145887
    35  H    0.161583
    36  H    0.155886
    37  N   -0.595926
    38  H    0.364537
    39  C   -0.059261
    40  H    0.203566
    41  C    0.590052
    42  C   -0.278208
    43  H    0.178736
    44  H    0.166533
    45  O   -0.455244
    46  C   -0.267185
    47  H    0.161528
    48  H    0.156620
    49  C   -0.178576
    50  H    0.188941
    51  H    0.180706
    52  N   -0.591408
    53  H    0.345099
    54  N   -0.797267
    55  H    0.407578
    56  H    0.409617
    57  N   -0.759662
    58  H    0.407243
    59  H    0.341845
    60  C    0.754982
    61  O   -0.554950
    62  H    0.434378
 Sum of Mulliken charges =   1.00000

 Dipole moment (field-independent basis, Debye):
    X=              1.7160    Y=              1.9404    Z=            -10.9408  Tot=             11.2432
 Quadrupole moment (field-independent basis, Debye-Ang):
   XX=            -77.6645   YY=           -144.0408   ZZ=           -117.5603
   XY=             55.4178   XZ=             14.2590   YZ=              1.6176

 Normal termination of Gaussian 16 at Fri May 27 00:59:21 2022.
