 Gaussian 16, Revision C.01,
 Gaussian 16:  ES64L-G16RevC.01  3-Jul-2019

 -------------------------------------------------------------------
 # B3LYP/6-31G* guess=read geom=check nosymm integral(ultrafinegrid)
 -------------------------------------------------------------------

 ------------------------------------------------------
 Candidate Structure: Conf:315 Charge calc in gas phase
 ------------------------------------------------------
 Structure from the checkpoint file:  "conf-315.chk"
 Charge =  1 Multiplicity = 1

                          Input orientation:
 ---------------------------------------------------------------------
 Center     Atomic      Atomic             Coordinates (Angstroms)
 Number     Number       Type             X           Y           Z
 ---------------------------------------------------------------------
      1          7           0       -2.017576    1.228327   -4.279685
      2          1           0       -2.528152    1.018281   -5.135478
      3          1           0       -2.655592    1.675776   -3.617769
      4          1           0       -0.646265    2.131607   -4.251259
      5          6           0       -1.507948    0.000755   -3.633265
      6          1           0       -2.298228   -0.761872   -3.556702
      7          6           0       -1.240879    0.407758   -2.158503
      8          6           0       -0.353416   -0.621875   -4.459163
      9          1           0       -0.790428   -1.338036   -5.164081
     10          1           0        0.295924   -1.225321   -3.817018
     11          8           0       -1.938590    1.289944   -1.662838
     12          6           0        0.516200    0.336361   -5.312160
     13          1           0        1.321699   -0.241689   -5.770166
     14          1           0       -0.094092    0.742410   -6.128242
     15          6           0        1.146214    1.524956   -4.600102
     16          8           0        2.369228    1.671111   -4.531187
     17          8           0        0.334127    2.421477   -4.092655
     18          7           0       -0.325682   -0.305637   -1.455592
     19          1           0        0.381939   -0.833213   -1.951247
     20          6           0        0.090493    0.100299   -0.114041
     21          1           0       -0.593111    0.892830    0.196167
     22          6           0        1.521089    0.643738   -0.246392
     23          6           0        0.052180   -1.072162    0.888092
     24          1           0        0.419596   -0.699383    1.854929
     25          1           0        0.773549   -1.831310    0.556430
     26          8           0        2.311232    0.142944   -1.048514
     27          6           0       -1.331331   -1.722519    1.085189
     28          1           0       -1.662751   -2.100101    0.107471
     29          6           0       -1.206108   -2.922327    2.036512
     30          1           0       -0.886722   -2.601557    3.036310
     31          1           0       -2.167498   -3.435944    2.145733
     32          1           0       -0.475072   -3.653097    1.670768
     33          6           0       -2.385113   -0.725834    1.592232
     34          1           0       -2.071928   -0.270802    2.541521
     35          1           0       -2.577305    0.078549    0.873765
     36          1           0       -3.338086   -1.235092    1.773435
     37          7           0        1.854063    1.679435    0.564241
     38          1           0        1.166762    2.093830    1.179101
     39          6           0        3.169074    2.302350    0.476456
     40          1           0        3.915956    1.503737    0.411599
     41          6           0        3.500998    3.119009    1.717443
     42          6           0        3.275173    3.167069   -0.807265
     43          1           0        2.574572    4.008951   -0.732253
     44          1           0        2.918128    2.519712   -1.613779
     45          8           0        4.592759    3.592744    1.930626
     46          6           0        4.682922    3.677535   -1.139919
     47          1           0        4.985196    4.466358   -0.444229
     48          1           0        5.415631    2.868060   -1.023956
     49          6           0        4.760564    4.227927   -2.572794
     50          1           0        5.709551    4.747056   -2.746211
     51          1           0        3.980502    4.975563   -2.744322
     52          7           0        4.570175    3.197744   -3.604280
     53          1           0        3.610332    2.938567   -3.857660
     54          7           0        6.812612    2.559407   -3.803318
     55          1           0        7.488672    1.828003   -3.964385
     56          1           0        7.132860    3.380871   -3.315369
     57          7           0        5.131002    1.251747   -4.712712
     58          1           0        5.798645    0.745857   -5.275472
     59          1           0        4.133391    1.076616   -4.846373
     60          6           0        5.501945    2.344184   -4.029900
     61          8           0        2.439777    3.295995    2.537006
     62          1           0        2.743256    3.842174    3.287884
 ---------------------------------------------------------------------

 SCF Done:  E(RB3LYP) =  -1447.44538190     A.U. after    1 cycles

 Alpha  occ. eigenvalues --  -19.29885 -19.27655 -19.24959 -19.23688 -19.21460
 Alpha  occ. eigenvalues --  -19.21226 -14.51062 -14.49565 -14.49401 -14.46050
 Alpha  occ. eigenvalues --  -14.45661 -14.44877 -10.46673 -10.42881 -10.42136
 Alpha  occ. eigenvalues --  -10.38852 -10.38241 -10.35024 -10.34185 -10.34104
 Alpha  occ. eigenvalues --  -10.32142 -10.31271 -10.31058 -10.29566 -10.29253
 Alpha  occ. eigenvalues --  -10.26927 -10.26199 -10.23848 -10.23846  -1.20591
 Alpha  occ. eigenvalues --   -1.19862  -1.15119  -1.13824  -1.12948  -1.11537
 Alpha  occ. eigenvalues --   -1.11421  -1.04393  -1.03235  -1.02588  -1.02090
 Alpha  occ. eigenvalues --   -1.01059  -0.90938  -0.90052  -0.88707  -0.86306
 Alpha  occ. eigenvalues --   -0.83634  -0.81063  -0.79913  -0.77320  -0.74960
 Alpha  occ. eigenvalues --   -0.74566  -0.73350  -0.72792  -0.72336  -0.70281
 Alpha  occ. eigenvalues --   -0.69868  -0.68624  -0.68143  -0.67648  -0.64820
 Alpha  occ. eigenvalues --   -0.64079  -0.63453  -0.63089  -0.62652  -0.61911
 Alpha  occ. eigenvalues --   -0.60899  -0.60026  -0.58333  -0.57660  -0.57469
 Alpha  occ. eigenvalues --   -0.57303  -0.56708  -0.56360  -0.55874  -0.55384
 Alpha  occ. eigenvalues --   -0.54453  -0.53750  -0.53231  -0.52866  -0.52668
 Alpha  occ. eigenvalues --   -0.52056  -0.51498  -0.50825  -0.50040  -0.49606
 Alpha  occ. eigenvalues --   -0.48826  -0.48476  -0.48064  -0.47672  -0.47139
 Alpha  occ. eigenvalues --   -0.46407  -0.46175  -0.45869  -0.45403  -0.45310
 Alpha  occ. eigenvalues --   -0.44833  -0.44515  -0.43269  -0.41796  -0.41670
 Alpha  occ. eigenvalues --   -0.41227  -0.40046  -0.39630  -0.39556  -0.39209
 Alpha  occ. eigenvalues --   -0.38932  -0.37927  -0.37632  -0.36088  -0.35602
 Alpha  occ. eigenvalues --   -0.35091  -0.33780
 Alpha virt. eigenvalues --   -0.10750  -0.09947  -0.09169  -0.08135  -0.06987
 Alpha virt. eigenvalues --   -0.06814  -0.03669  -0.03282  -0.02266  -0.01112
 Alpha virt. eigenvalues --   -0.00492   0.00410   0.00666   0.01749   0.02056

 Mulliken charges:
               1
     1  N   -0.792433
     2  H    0.337523
     3  H    0.370392
     4  H    0.471691
     5  C   -0.082063
     6  H    0.193557
     7  C    0.628015
     8  C   -0.305833
     9  H    0.178515
    10  H    0.168329
    11  O   -0.521898
    12  C   -0.373591
    13  H    0.179531
    14  H    0.186161
    15  C    0.620854
    16  O   -0.525030
    17  O   -0.569483
    18  N   -0.598619
    19  H    0.348010
    20  C   -0.094371
    21  H    0.191159
    22  C    0.643682
    23  C   -0.260573
    24  H    0.144243
    25  H    0.148378
    26  O   -0.551978
    27  C   -0.067118
    28  H    0.129464
    29  C   -0.445626
    30  H    0.147307
    31  H    0.155744
    32  H    0.144662
    33  C   -0.467044
    34  H    0.140269
    35  H    0.164094
    36  H    0.157239
    37  N   -0.622444
    38  H    0.361627
    39  C   -0.040039
    40  H    0.204895
    41  C    0.594520
    42  C   -0.287884
    43  H    0.157750
    44  H    0.183842
    45  O   -0.449323
    46  C   -0.264381
    47  H    0.189350
    48  H    0.150949
    49  C   -0.188819
    50  H    0.164481
    51  H    0.196297
    52  N   -0.608080
    53  H    0.405174
    54  N   -0.762568
    55  H    0.377674
    56  H    0.382895
    57  N   -0.781831
    58  H    0.364618
    59  H    0.412709
    60  C    0.809116
    61  O   -0.575522
    62  H    0.431835
 Sum of Mulliken charges =   1.00000

 Dipole moment (field-independent basis, Debye):
    X=             14.4998    Y=              6.9110    Z=            -15.5586  Tot=             22.3624
 Quadrupole moment (field-independent basis, Debye-Ang):
   XX=            -58.3135   YY=           -139.0467   ZZ=            -75.9720
   XY=             44.2206   XZ=            -53.0230   YZ=            -11.3368

 Normal termination of Gaussian 16 at Fri May 27 00:59:09 2022.
