 Gaussian 16, Revision C.01,
 Gaussian 16:  ES64L-G16RevC.01  3-Jul-2019

 -------------------------------------------------------------------
 # B3LYP/6-31G* guess=read geom=check nosymm integral(ultrafinegrid)
 -------------------------------------------------------------------

 ------------------------------------------------------
 Candidate Structure: Conf:746 Charge calc in gas phase
 ------------------------------------------------------
 Structure from the checkpoint file:  "conf-746.chk"
 Charge =  1 Multiplicity = 1

                          Input orientation:
 ---------------------------------------------------------------------
 Center     Atomic      Atomic             Coordinates (Angstroms)
 Number     Number       Type             X           Y           Z
 ---------------------------------------------------------------------
      1          7           0       -1.971555   -0.089065   -3.533212
      2          1           0       -1.791983   -1.028377   -3.178692
      3          1           0       -2.962509    0.093967   -3.369993
      4          1           0       -1.101104    0.192452   -5.163436
      5          6           0       -1.140242    0.914264   -2.830616
      6          1           0       -0.109105    0.708591   -3.148691
      7          6           0       -1.127040    0.851302   -1.288338
      8          6           0       -1.524526    2.329667   -3.285240
      9          1           0       -0.799873    3.033119   -2.863061
     10          1           0       -2.492760    2.598155   -2.851595
     11          8           0       -1.712523    1.679922   -0.597132
     12          6           0       -1.577148    2.506035   -4.822345
     13          1           0       -2.467524    2.021445   -5.234591
     14          1           0       -1.623575    3.569308   -5.066185
     15          6           0       -0.337459    1.920754   -5.467171
     16          8           0        0.642011    2.602399   -5.753238
     17          8           0       -0.323067    0.601192   -5.648538
     18          7           0       -0.359649   -0.149208   -0.761884
     19          1           0        0.222128   -0.687282   -1.394154
     20          6           0        0.122565   -0.091495    0.632021
     21          1           0       -0.668915    0.400043    1.200602
     22          6           0        1.387887    0.802076    0.587232
     23          6           0        0.407438   -1.492195    1.174420
     24          1           0        1.228523   -1.926268    0.589890
     25          1           0       -0.484977   -2.107846    0.999945
     26          8           0        2.521490    0.334715    0.526342
     27          6           0        0.784180   -1.545564    2.670247
     28          1           0        1.652039   -0.889314    2.818992
     29          6           0       -0.354945   -1.065435    3.583197
     30          1           0       -1.254555   -1.679563    3.446949
     31          1           0       -0.061027   -1.140293    4.635810
     32          1           0       -0.632145   -0.020551    3.400686
     33          6           0        1.210470   -2.973384    3.043232
     34          1           0        0.383703   -3.681769    2.903010
     35          1           0        2.052888   -3.312809    2.429483
     36          1           0        1.518003   -3.027718    4.093156
     37          7           0        1.126465    2.137530    0.486164
     38          1           0        0.164586    2.452340    0.546996
     39          6           0        2.180751    3.119193    0.295589
     40          1           0        3.095170    2.671049    0.704854
     41          6           0        1.936670    4.401469    1.096368
     42          6           0        2.434638    3.482960   -1.188032
     43          1           0        3.095197    4.356032   -1.203333
     44          1           0        1.483627    3.796231   -1.641095
     45          8           0        2.568715    5.418386    0.927544
     46          6           0        3.058449    2.337192   -1.995944
     47          1           0        4.016994    2.062668   -1.533436
     48          1           0        2.431787    1.440268   -1.949652
     49          6           0        3.289340    2.718496   -3.463105
     50          1           0        3.840551    3.664724   -3.537273
     51          1           0        2.339920    2.844606   -3.988575
     52          7           0        4.072681    1.654984   -4.126333
     53          1           0        4.734938    1.170401   -3.532820
     54          7           0        3.249772    1.810678   -6.309306
     55          1           0        3.441127    1.729712   -7.298370
     56          1           0        2.279109    2.064832   -6.050731
     57          7           0        5.238238    0.704993   -5.879251
     58          1           0        5.247086    0.292516   -6.800780
     59          1           0        6.085984    0.638510   -5.335033
     60          6           0        4.170094    1.404994   -5.439249
     61          8           0        0.955727    4.274174    2.012679
     62          1           0        0.893505    5.131860    2.476461
 ---------------------------------------------------------------------

 SCF Done:  E(RB3LYP) =  -1447.42567906     A.U. after    1 cycles

 Alpha  occ. eigenvalues --  -19.29523 -19.28795 -19.25638 -19.22797 -19.22645
 Alpha  occ. eigenvalues --  -19.20953 -14.52224 -14.52072 -14.50356 -14.47095
 Alpha  occ. eigenvalues --  -14.46425 -14.45314 -10.48187 -10.43593 -10.41238
 Alpha  occ. eigenvalues --  -10.39611 -10.37975 -10.35584 -10.34862 -10.33720
 Alpha  occ. eigenvalues --  -10.32458 -10.30909 -10.30797 -10.30779 -10.29689
 Alpha  occ. eigenvalues --  -10.26505 -10.25927 -10.23917 -10.23582  -1.21016
 Alpha  occ. eigenvalues --   -1.19669  -1.16430  -1.14556  -1.12731  -1.12712
 Alpha  occ. eigenvalues --   -1.10612  -1.05931  -1.04213  -1.03465  -1.02234
 Alpha  occ. eigenvalues --   -1.01691  -0.91650  -0.90496  -0.88886  -0.86586
 Alpha  occ. eigenvalues --   -0.84017  -0.81516  -0.80504  -0.77722  -0.74914
 Alpha  occ. eigenvalues --   -0.74590  -0.74134  -0.72965  -0.72168  -0.71294
 Alpha  occ. eigenvalues --   -0.70519  -0.69466  -0.68986  -0.67667  -0.65899
 Alpha  occ. eigenvalues --   -0.64491  -0.63928  -0.63621  -0.63179  -0.61723
 Alpha  occ. eigenvalues --   -0.61351  -0.60649  -0.60045  -0.58497  -0.57548
 Alpha  occ. eigenvalues --   -0.57518  -0.56948  -0.56803  -0.56204  -0.55471
 Alpha  occ. eigenvalues --   -0.55348  -0.54307  -0.53933  -0.52848  -0.52015
 Alpha  occ. eigenvalues --   -0.51966  -0.51296  -0.50413  -0.49907  -0.49549
 Alpha  occ. eigenvalues --   -0.49164  -0.48816  -0.48194  -0.47336  -0.47162
 Alpha  occ. eigenvalues --   -0.46948  -0.46200  -0.45983  -0.45830  -0.45286
 Alpha  occ. eigenvalues --   -0.44807  -0.44474  -0.43268  -0.42916  -0.42671
 Alpha  occ. eigenvalues --   -0.41044  -0.40656  -0.40522  -0.40221  -0.39518
 Alpha  occ. eigenvalues --   -0.39279  -0.39175  -0.37635  -0.37327  -0.35142
 Alpha  occ. eigenvalues --   -0.34338  -0.33621
 Alpha virt. eigenvalues --   -0.12449  -0.11019  -0.10815  -0.08414  -0.08139
 Alpha virt. eigenvalues --   -0.06680  -0.05889  -0.04429  -0.03412  -0.02893
 Alpha virt. eigenvalues --   -0.02340  -0.00944   0.00023   0.00721   0.01094

 Mulliken charges:
               1
     1  N   -0.763579
     2  H    0.336340
     3  H    0.343612
     4  H    0.458635
     5  C   -0.107009
     6  H    0.153213
     7  C    0.632148
     8  C   -0.283627
     9  H    0.173444
    10  H    0.197601
    11  O   -0.516249
    12  C   -0.367377
    13  H    0.181528
    14  H    0.200612
    15  C    0.604993
    16  O   -0.497106
    17  O   -0.577351
    18  N   -0.608694
    19  H    0.328074
    20  C   -0.076217
    21  H    0.194205
    22  C    0.624646
    23  C   -0.260828
    24  H    0.144380
    25  H    0.143675
    26  O   -0.534558
    27  C   -0.084294
    28  H    0.149416
    29  C   -0.453893
    30  H    0.147333
    31  H    0.159814
    32  H    0.141465
    33  C   -0.447029
    34  H    0.144194
    35  H    0.146884
    36  H    0.155843
    37  N   -0.614799
    38  H    0.365232
    39  C   -0.056029
    40  H    0.216729
    41  C    0.591875
    42  C   -0.278335
    43  H    0.190923
    44  H    0.150270
    45  O   -0.449491
    46  C   -0.300941
    47  H    0.162624
    48  H    0.160974
    49  C   -0.144069
    50  H    0.190037
    51  H    0.195806
    52  N   -0.618335
    53  H    0.357902
    54  N   -0.775317
    55  H    0.368469
    56  H    0.433634
    57  N   -0.763774
    58  H    0.379637
    59  H    0.378475
    60  C    0.807351
    61  O   -0.561730
    62  H    0.428639
 Sum of Mulliken charges =   1.00000

 Dipole moment (field-independent basis, Debye):
    X=             10.3975    Y=              4.0821    Z=            -19.6305  Tot=             22.5860
 Quadrupole moment (field-independent basis, Debye-Ang):
   XX=            -93.9544   YY=           -159.4721   ZZ=            -49.8030
   XY=              9.7079   XZ=            -67.1167   YZ=            -14.9010

 Normal termination of Gaussian 16 at Fri May 27 00:59:15 2022.
