 Gaussian 16, Revision C.01,
 Gaussian 16:  ES64L-G16RevC.01  3-Jul-2019

 -------------------------------------------------------------------
 # B3LYP/6-31G* guess=read geom=check nosymm integral(ultrafinegrid)
 -------------------------------------------------------------------

 ------------------------------------------------------
 Candidate Structure: Conf:123 Charge calc in gas phase
 ------------------------------------------------------
 Structure from the checkpoint file:  "conf-123.chk"
 Charge =  1 Multiplicity = 1

                          Input orientation:
 ---------------------------------------------------------------------
 Center     Atomic      Atomic             Coordinates (Angstroms)
 Number     Number       Type             X           Y           Z
 ---------------------------------------------------------------------
      1          7           0       -3.434363   -0.574544   -3.395645
      2          1           0       -4.025745   -1.402617   -3.507653
      3          1           0       -3.785276   -0.010827   -2.571791
      4          1           0       -3.464799   -0.030077   -4.264025
      5          6           0       -2.012632   -0.899649   -2.985779
      6          1           0       -1.825247   -1.954824   -3.198909
      7          6           0       -1.991385   -0.553140   -1.474960
      8          6           0       -1.012453    0.038317   -3.679094
      9          1           0       -0.020788   -0.235010   -3.302515
     10          1           0       -1.183974    1.062910   -3.331550
     11          8           0       -2.934485    0.105339   -1.018278
     12          6           0       -0.961445    0.070727   -5.208298
     13          1           0       -0.693108   -0.895035   -5.646106
     14          1           0       -1.922952    0.381134   -5.649786
     15          6           0        0.100123    1.134982   -5.615767
     16          8           0        0.139571    2.159926   -4.872448
     17          8           0        0.820056    0.871939   -6.604181
     18          7           0       -0.881472   -0.899956   -0.817552
     19          1           0       -0.122506   -1.347787   -1.329117
     20          6           0       -0.377695   -0.189199    0.368309
     21          1           0       -1.060039    0.641033    0.564697
     22          6           0        1.018813    0.308502   -0.073909
     23          6           0       -0.299580   -1.137032    1.584686
     24          1           0        0.389932   -1.951730    1.328551
     25          1           0       -1.293720   -1.587075    1.704259
     26          8           0        1.690039   -0.388885   -0.836343
     27          6           0        0.131964   -0.495931    2.919800
     28          1           0        1.111039   -0.017104    2.779133
     29          6           0       -0.859511    0.573983    3.405262
     30          1           0       -1.860857    0.147577    3.544285
     31          1           0       -0.539454    0.988375    4.367075
     32          1           0       -0.956955    1.417181    2.709247
     33          6           0        0.300626   -1.593929    3.981659
     34          1           0       -0.648896   -2.111360    4.167662
     35          1           0        1.036287   -2.343933    3.669735
     36          1           0        0.638110   -1.168542    4.932850
     37          7           0        1.427773    1.512656    0.391767
     38          1           0        0.861548    1.989594    1.081579
     39          6           0        2.793471    1.994730    0.187057
     40          1           0        3.380081    1.125899   -0.130479
     41          6           0        3.426241    2.496022    1.487057
     42          6           0        2.930264    3.092514   -0.894670
     43          1           0        3.970350    3.434892   -0.847481
     44          1           0        2.302371    3.951208   -0.620036
     45          8           0        4.549932    2.930479    1.552564
     46          6           0        2.594520    2.624830   -2.317414
     47          1           0        3.106359    1.680492   -2.537178
     48          1           0        1.520819    2.431674   -2.421007
     49          6           0        3.016756    3.675038   -3.359820
     50          1           0        4.107220    3.777293   -3.349934
     51          1           0        2.590421    4.654271   -3.099836
     52          7           0        2.580410    3.286575   -4.698299
     53          1           0        1.607973    2.892255   -4.796976
     54          7           0        4.511361    3.957433   -5.834860
     55          1           0        5.068500    3.921429   -6.676028
     56          1           0        4.644465    4.771570   -5.253649
     57          7           0        2.903728    2.630082   -6.879299
     58          1           0        3.318005    2.814764   -7.781039
     59          1           0        2.082801    1.972173   -6.821716
     60          6           0        3.318032    3.301269   -5.804115
     61          8           0        2.592166    2.422288    2.552934
     62          1           0        3.086957    2.771899    3.319542
 ---------------------------------------------------------------------

 SCF Done:  E(RB3LYP) =  -1447.41853297     A.U. after    3 cycles

 Alpha  occ. eigenvalues --  -19.29846 -19.26555 -19.23483 -19.22876 -19.17397
 Alpha  occ. eigenvalues --  -19.17283 -14.59430 -14.49047 -14.47447 -14.47324
 Alpha  occ. eigenvalues --  -14.44867 -14.44467 -10.43205 -10.42331 -10.41915
 Alpha  occ. eigenvalues --  -10.40016 -10.39723 -10.35687 -10.34810 -10.34190
 Alpha  occ. eigenvalues --  -10.32302 -10.31308 -10.28878 -10.28674 -10.28427
 Alpha  occ. eigenvalues --  -10.28036 -10.27884 -10.25984 -10.25102  -1.20443
 Alpha  occ. eigenvalues --   -1.18836  -1.14909  -1.13321  -1.11408  -1.11107
 Alpha  occ. eigenvalues --   -1.10315  -1.05919  -1.03663  -1.02086  -1.00239
 Alpha  occ. eigenvalues --   -0.98640  -0.93067  -0.90714  -0.89560  -0.86165
 Alpha  occ. eigenvalues --   -0.84772  -0.82928  -0.78345  -0.76643  -0.75471
 Alpha  occ. eigenvalues --   -0.74581  -0.73415  -0.72940  -0.72123  -0.71788
 Alpha  occ. eigenvalues --   -0.71266  -0.69792  -0.69403  -0.67592  -0.65593
 Alpha  occ. eigenvalues --   -0.65084  -0.64986  -0.62567  -0.62056  -0.60705
 Alpha  occ. eigenvalues --   -0.60201  -0.58875  -0.58319  -0.58031  -0.57706
 Alpha  occ. eigenvalues --   -0.57319  -0.56945  -0.56270  -0.55898  -0.55176
 Alpha  occ. eigenvalues --   -0.54795  -0.53983  -0.53192  -0.53020  -0.52014
 Alpha  occ. eigenvalues --   -0.51682  -0.50929  -0.50894  -0.50122  -0.49896
 Alpha  occ. eigenvalues --   -0.49302  -0.48443  -0.48255  -0.47640  -0.47515
 Alpha  occ. eigenvalues --   -0.46766  -0.46336  -0.45765  -0.45491  -0.45007
 Alpha  occ. eigenvalues --   -0.44767  -0.43823  -0.43234  -0.42572  -0.41701
 Alpha  occ. eigenvalues --   -0.41466  -0.41043  -0.40780  -0.38748  -0.38466
 Alpha  occ. eigenvalues --   -0.37988  -0.36640  -0.35613  -0.34676  -0.32892
 Alpha  occ. eigenvalues --   -0.32393  -0.31609
 Alpha virt. eigenvalues --   -0.11863  -0.10548  -0.08886  -0.08660  -0.06792
 Alpha virt. eigenvalues --   -0.05834  -0.03807  -0.03485  -0.03094  -0.01926
 Alpha virt. eigenvalues --   -0.01275  -0.00852  -0.00247  -0.00147   0.01204

 Mulliken charges:
               1
     1  N   -0.750837
     2  H    0.415023
     3  H    0.429060
     4  H    0.414901
     5  C   -0.121625
     6  H    0.210085
     7  C    0.638342
     8  C   -0.312297
     9  H    0.198198
    10  H    0.201527
    11  O   -0.530448
    12  C   -0.370112
    13  H    0.173850
    14  H    0.136894
    15  C    0.616527
    16  O   -0.601058
    17  O   -0.567981
    18  N   -0.580503
    19  H    0.368478
    20  C   -0.096648
    21  H    0.188503
    22  C    0.633574
    23  C   -0.251086
    24  H    0.158049
    25  H    0.159677
    26  O   -0.537769
    27  C   -0.098522
    28  H    0.139510
    29  C   -0.451152
    30  H    0.158155
    31  H    0.163518
    32  H    0.125076
    33  C   -0.446754
    34  H    0.151760
    35  H    0.153446
    36  H    0.157697
    37  N   -0.603167
    38  H    0.358674
    39  C   -0.070838
    40  H    0.223010
    41  C    0.597683
    42  C   -0.275417
    43  H    0.183230
    44  H    0.150236
    45  O   -0.437993
    46  C   -0.286032
    47  H    0.170837
    48  H    0.168609
    49  C   -0.146156
    50  H    0.161798
    51  H    0.166202
    52  N   -0.633739
    53  H    0.428518
    54  N   -0.760241
    55  H    0.361557
    56  H    0.365532
    57  N   -0.794623
    58  H    0.345456
    59  H    0.432800
    60  C    0.766828
    61  O   -0.578467
    62  H    0.430647
 Sum of Mulliken charges =   1.00000

 Dipole moment (field-independent basis, Debye):
    X=             -1.0647    Y=              5.2253    Z=            -12.1328  Tot=             13.2530
 Quadrupole moment (field-independent basis, Debye-Ang):
   XX=           -107.1305   YY=           -128.4531   ZZ=            -82.2658
   XY=             49.7730   XZ=             -9.2341   YZ=            -26.4831

 Normal termination of Gaussian 16 at Fri May 27 00:59:29 2022.
