 Gaussian 16, Revision C.01,
 Gaussian 16:  ES64L-G16RevC.01  3-Jul-2019

 -------------------------------------------------------------------
 # B3LYP/6-31G* guess=read geom=check nosymm integral(ultrafinegrid)
 -------------------------------------------------------------------

 -----------------------------------------------------
 Candidate Structure: Conf:34 Charge calc in gas phase
 -----------------------------------------------------
 Structure from the checkpoint file:  "conf-34.chk"
 Charge =  1 Multiplicity = 1

                          Input orientation:
 ---------------------------------------------------------------------
 Center     Atomic      Atomic             Coordinates (Angstroms)
 Number     Number       Type             X           Y           Z
 ---------------------------------------------------------------------
      1          7           0       -3.325359   -0.102722   -3.760658
      2          1           0       -3.903929   -0.946851   -3.720898
      3          1           0       -3.571103    0.517214   -2.934988
      4          1           0       -3.497745    0.374529   -4.649888
      5          6           0       -1.846950   -0.372363   -3.522106
      6          1           0       -1.661365   -1.430658   -3.721470
      7          6           0       -1.693866   -0.004352   -2.020355
      8          6           0       -0.995743    0.543709   -4.427675
      9          1           0       -0.968158    1.554438   -4.005794
     10          1           0       -1.481958    0.606975   -5.411960
     11          8           0       -2.586706    0.695812   -1.516748
     12          6           0        0.451274    0.075628   -4.635273
     13          1           0        0.881692   -0.312704   -3.703816
     14          1           0        0.516075   -0.714578   -5.387939
     15          6           0        1.371680    1.259840   -5.024706
     16          8           0        1.196302    2.323009   -4.358771
     17          8           0        2.226472    1.040071   -5.914683
     18          7           0       -0.602335   -0.431802   -1.390071
     19          1           0        0.136482   -0.913351   -1.899968
     20          6           0       -0.139797    0.095289   -0.100333
     21          1           0       -0.691646    1.017412    0.097972
     22          6           0        1.361414    0.379157   -0.310038
     23          6           0       -0.324296   -0.914658    1.054241
     24          1           0        0.175037   -0.501169    1.941762
     25          1           0        0.225964   -1.826364    0.787597
     26          8           0        2.004420   -0.290374   -1.118036
     27          6           0       -1.781184   -1.268236    1.413351
     28          1           0       -2.280796   -1.615938    0.496985
     29          6           0       -1.792247   -2.427555    2.422085
     30          1           0       -1.300339   -2.138344    3.359271
     31          1           0       -2.818528   -2.722838    2.665676
     32          1           0       -1.272222   -3.309357    2.030142
     33          6           0       -2.562410   -0.062150    1.956216
     34          1           0       -2.076161    0.349770    2.850191
     35          1           0       -2.659872    0.736895    1.214056
     36          1           0       -3.576094   -0.360905    2.245094
     37          7           0        1.889085    1.365405    0.451227
     38          1           0        1.304889    1.823052    1.138632
     39          6           0        3.321045    1.649237    0.491466
     40          1           0        3.825511    0.765730    0.085798
     41          6           0        3.829062    1.829353    1.921763
     42          6           0        3.726987    2.877426   -0.357857
     43          1           0        4.791154    3.057808   -0.168739
     44          1           0        3.182824    3.759744    0.007413
     45          8           0        4.984904    2.044876    2.192462
     46          6           0        3.469087    2.673122   -1.853447
     47          1           0        3.996626    1.778140   -2.204682
     48          1           0        2.405040    2.496090   -2.042192
     49          6           0        3.917848    3.875001   -2.699429
     50          1           0        5.002279    4.007430   -2.623073
     51          1           0        3.444880    4.796313   -2.333434
     52          7           0        3.551600    3.656475   -4.098979
     53          1           0        2.613761    3.209654   -4.266654
     54          7           0        5.559947    4.359588   -5.064845
     55          1           0        6.193308    4.333851   -5.850496
     56          1           0        5.626940    5.170832   -4.468031
     57          7           0        4.056373    3.018067   -6.246855
     58          1           0        4.556934    3.182901   -7.107697
     59          1           0        3.315210    2.266290   -6.202275
     60          6           0        4.381086    3.682342   -5.139288
     61          8           0        2.846001    1.749173    2.851870
     62          1           0        3.271429    1.894108    3.719321
 ---------------------------------------------------------------------

 SCF Done:  E(RB3LYP) =  -1447.42031617     A.U. after    1 cycles

 Alpha  occ. eigenvalues --  -19.29320 -19.26544 -19.22988 -19.22497 -19.16824
 Alpha  occ. eigenvalues --  -19.16729 -14.59492 -14.49349 -14.47032 -14.46951
 Alpha  occ. eigenvalues --  -14.44421 -14.44110 -10.43336 -10.41928 -10.41427
 Alpha  occ. eigenvalues --  -10.39983 -10.39649 -10.35012 -10.34649 -10.33706
 Alpha  occ. eigenvalues --  -10.31693 -10.31593 -10.28580 -10.28334 -10.27837
 Alpha  occ. eigenvalues --  -10.27648 -10.27150 -10.25263 -10.25137  -1.19937
 Alpha  occ. eigenvalues --   -1.18928  -1.14545  -1.13279  -1.10914  -1.10639
 Alpha  occ. eigenvalues --   -1.09754  -1.05901  -1.03375  -1.01428  -0.99848
 Alpha  occ. eigenvalues --   -0.98277  -0.92932  -0.90544  -0.89169  -0.85938
 Alpha  occ. eigenvalues --   -0.84167  -0.82654  -0.77900  -0.76440  -0.76017
 Alpha  occ. eigenvalues --   -0.75185  -0.73420  -0.72536  -0.71941  -0.70841
 Alpha  occ. eigenvalues --   -0.70213  -0.69350  -0.69240  -0.67148  -0.66184
 Alpha  occ. eigenvalues --   -0.64743  -0.64232  -0.62800  -0.62131  -0.60188
 Alpha  occ. eigenvalues --   -0.59773  -0.59235  -0.58138  -0.57797  -0.57362
 Alpha  occ. eigenvalues --   -0.56972  -0.56457  -0.56096  -0.55423  -0.54559
 Alpha  occ. eigenvalues --   -0.53817  -0.53499  -0.53067  -0.52471  -0.52050
 Alpha  occ. eigenvalues --   -0.51525  -0.50575  -0.50380  -0.49543  -0.49318
 Alpha  occ. eigenvalues --   -0.49085  -0.48217  -0.47893  -0.47547  -0.47189
 Alpha  occ. eigenvalues --   -0.46732  -0.46291  -0.45421  -0.45162  -0.44792
 Alpha  occ. eigenvalues --   -0.43921  -0.43040  -0.42516  -0.41841  -0.41323
 Alpha  occ. eigenvalues --   -0.41139  -0.40933  -0.40826  -0.39056  -0.38008
 Alpha  occ. eigenvalues --   -0.37702  -0.36270  -0.35168  -0.34266  -0.32314
 Alpha  occ. eigenvalues --   -0.31834  -0.31054
 Alpha virt. eigenvalues --   -0.11847  -0.10530  -0.08409  -0.08090  -0.06589
 Alpha virt. eigenvalues --   -0.06179  -0.04200  -0.03138  -0.02663  -0.02031
 Alpha virt. eigenvalues --   -0.01243   0.00080   0.00348   0.00438   0.01454

 Mulliken charges:
               1
     1  N   -0.753994
     2  H    0.413813
     3  H    0.431695
     4  H    0.412408
     5  C   -0.114201
     6  H    0.210375
     7  C    0.652573
     8  C   -0.301907
     9  H    0.215084
    10  H    0.159091
    11  O   -0.541425
    12  C   -0.365921
    13  H    0.168232
    14  H    0.170067
    15  C    0.606001
    16  O   -0.603052
    17  O   -0.573073
    18  N   -0.587401
    19  H    0.377489
    20  C   -0.095381
    21  H    0.188968
    22  C    0.641862
    23  C   -0.257634
    24  H    0.154208
    25  H    0.158500
    26  O   -0.534339
    27  C   -0.069895
    28  H    0.118544
    29  C   -0.446843
    30  H    0.152426
    31  H    0.157078
    32  H    0.148963
    33  C   -0.463702
    34  H    0.144534
    35  H    0.160081
    36  H    0.158604
    37  N   -0.603110
    38  H    0.353036
    39  C   -0.069734
    40  H    0.221354
    41  C    0.596540
    42  C   -0.271909
    43  H    0.182140
    44  H    0.145501
    45  O   -0.438795
    46  C   -0.287459
    47  H    0.168891
    48  H    0.177470
    49  C   -0.150354
    50  H    0.160617
    51  H    0.163822
    52  N   -0.625441
    53  H    0.423453
    54  N   -0.755998
    55  H    0.360649
    56  H    0.365236
    57  N   -0.789103
    58  H    0.343534
    59  H    0.431661
    60  C    0.758709
    61  O   -0.582051
    62  H    0.429512
 Sum of Mulliken charges =   1.00000

 Dipole moment (field-independent basis, Debye):
    X=             -0.9301    Y=              6.4968    Z=            -13.3627  Tot=             14.8875
 Quadrupole moment (field-independent basis, Debye-Ang):
   XX=            -88.8110   YY=           -127.3397   ZZ=            -82.4772
   XY=             57.4602   XZ=             -4.1841   YZ=            -28.6069

 Normal termination of Gaussian 16 at Fri May 27 00:59:11 2022.
