 Gaussian 16, Revision C.01,
 Gaussian 16:  ES64L-G16RevC.01  3-Jul-2019

 -------------------------------------------------------------------
 # B3LYP/6-31G* guess=read geom=check nosymm integral(ultrafinegrid)
 -------------------------------------------------------------------

 ------------------------------------------------------
 Candidate Structure: Conf:705 Charge calc in gas phase
 ------------------------------------------------------
 Structure from the checkpoint file:  "conf-705.chk"
 Charge =  1 Multiplicity = 1

                          Input orientation:
 ---------------------------------------------------------------------
 Center     Atomic      Atomic             Coordinates (Angstroms)
 Number     Number       Type             X           Y           Z
 ---------------------------------------------------------------------
      1          7           0       -2.143175   -0.760532   -4.558418
      2          1           0       -2.812021   -1.536147   -4.558773
      3          1           0       -2.538926    0.030015   -3.971979
      4          1           0       -1.982966   -0.462548   -5.524817
      5          6           0       -0.848043   -1.080801   -3.826741
      6          1           0       -0.760565   -2.168064   -3.759379
      7          6           0       -1.083756   -0.409295   -2.446081
      8          6           0        0.349585   -0.455697   -4.576861
      9          1           0        0.394428    0.621079   -4.379968
     10          1           0        0.185651   -0.585669   -5.656522
     11          8           0       -1.987006    0.438367   -2.374945
     12          6           0        1.710296   -1.067030   -4.221505
     13          1           0        1.821629   -1.194582   -3.138136
     14          1           0        1.846688   -2.045754   -4.689617
     15          6           0        2.885347   -0.137064   -4.611756
     16          8           0        3.920696   -0.706326   -5.027765
     17          8           0        2.702303    1.101472   -4.415172
     18          7           0       -0.275908   -0.763387   -1.445605
     19          1           0        0.515705   -1.372170   -1.638290
     20          6           0       -0.078677    0.051965   -0.235725
     21          1           0       -0.750969    0.908284   -0.314349
     22          6           0        1.400313    0.488707   -0.306841
     23          6           0       -0.348940   -0.745621    1.054311
     24          1           0       -0.105500   -0.090458    1.902415
     25          1           0        0.366301   -1.577535    1.092741
     26          8           0        2.245998   -0.298499   -0.731098
     27          6           0       -1.784791   -1.281557    1.219467
     28          1           0       -2.004092   -1.923118    0.353009
     29          6           0       -1.864153   -2.155047    2.481054
     30          1           0       -1.658197   -1.564300    3.382422
     31          1           0       -2.863209   -2.590128    2.592041
     32          1           0       -1.140820   -2.977967    2.448201
     33          6           0       -2.833775   -0.159544    1.262051
     34          1           0       -2.626192    0.541315    2.081207
     35          1           0       -2.875568    0.409448    0.326577
     36          1           0       -3.832660   -0.575239    1.434261
     37          7           0        1.678273    1.742848    0.111445
     38          1           0        0.932294    2.360010    0.404416
     39          6           0        3.016439    2.320421   -0.020223
     40          1           0        3.743279    1.530013    0.182693
     41          6           0        3.241945    3.417010    1.010451
     42          6           0        3.239259    2.853098   -1.461050
     43          1           0        2.483422    3.623592   -1.666845
     44          1           0        3.030985    2.017213   -2.137783
     45          8           0        4.330245    3.792006    1.374222
     46          6           0        4.639030    3.421455   -1.738064
     47          1           0        4.791178    4.350325   -1.177240
     48          1           0        5.412588    2.723069   -1.395135
     49          6           0        4.849951    3.713616   -3.236146
     50          1           0        5.705311    4.384354   -3.375862
     51          1           0        3.986100    4.252409   -3.640301
     52          7           0        5.015551    2.515320   -4.054999
     53          1           0        4.140823    1.985778   -4.301316
     54          7           0        7.360055    2.449425   -3.928560
     55          1           0        8.206340    2.112128   -4.364756
     56          1           0        7.396082    3.408893   -3.619994
     57          7           0        6.174361    0.775682   -5.024288
     58          1           0        7.040873    0.263250   -5.109964
     59          1           0        5.279631    0.218274   -5.111985
     60          6           0        6.173359    1.918256   -4.334127
     61          8           0        2.080647    3.980341    1.430254
     62          1           0        2.318069    4.688533    2.059519
 ---------------------------------------------------------------------

 SCF Done:  E(RB3LYP) =  -1447.42005082     A.U. after    2 cycles

 Alpha  occ. eigenvalues --  -19.29412 -19.26796 -19.23223 -19.22013 -19.17179
 Alpha  occ. eigenvalues --  -19.16870 -14.59665 -14.49546 -14.47150 -14.46703
 Alpha  occ. eigenvalues --  -14.44879 -14.43857 -10.43557 -10.42140 -10.41527
 Alpha  occ. eigenvalues --  -10.40165 -10.39263 -10.35259 -10.34486 -10.33527
 Alpha  occ. eigenvalues --  -10.32323 -10.31793 -10.28378 -10.27984 -10.27766
 Alpha  occ. eigenvalues --  -10.27718 -10.27717 -10.25319 -10.24967  -1.20041
 Alpha  occ. eigenvalues --   -1.19139  -1.14179  -1.13423  -1.11052  -1.10844
 Alpha  occ. eigenvalues --   -1.09997  -1.06065  -1.03069  -1.01675  -1.00168
 Alpha  occ. eigenvalues --   -0.98378  -0.93044  -0.90444  -0.89132  -0.85936
 Alpha  occ. eigenvalues --   -0.84229  -0.82704  -0.78051  -0.76448  -0.76032
 Alpha  occ. eigenvalues --   -0.74937  -0.73628  -0.73454  -0.72095  -0.71116
 Alpha  occ. eigenvalues --   -0.70377  -0.69050  -0.68774  -0.67614  -0.66432
 Alpha  occ. eigenvalues --   -0.64609  -0.64236  -0.63058  -0.62200  -0.60128
 Alpha  occ. eigenvalues --   -0.59089  -0.59013  -0.58252  -0.57827  -0.57268
 Alpha  occ. eigenvalues --   -0.56872  -0.56586  -0.56045  -0.55686  -0.54335
 Alpha  occ. eigenvalues --   -0.53855  -0.53543  -0.53360  -0.52413  -0.52016
 Alpha  occ. eigenvalues --   -0.51315  -0.51087  -0.50749  -0.50138  -0.49510
 Alpha  occ. eigenvalues --   -0.48580  -0.48568  -0.48334  -0.47697  -0.47504
 Alpha  occ. eigenvalues --   -0.47125  -0.46163  -0.45620  -0.45051  -0.44708
 Alpha  occ. eigenvalues --   -0.43900  -0.43417  -0.42887  -0.41607  -0.41380
 Alpha  occ. eigenvalues --   -0.41155  -0.41092  -0.40768  -0.39337  -0.37728
 Alpha  occ. eigenvalues --   -0.37507  -0.36065  -0.35000  -0.34437  -0.32428
 Alpha  occ. eigenvalues --   -0.32124  -0.31251
 Alpha virt. eigenvalues --   -0.12178  -0.10676  -0.08808  -0.07763  -0.06365
 Alpha virt. eigenvalues --   -0.06280  -0.04350  -0.03842  -0.02526  -0.02092
 Alpha virt. eigenvalues --   -0.01326  -0.00514   0.00054   0.00257   0.01334

 Mulliken charges:
               1
     1  N   -0.754434
     2  H    0.414622
     3  H    0.431747
     4  H    0.413069
     5  C   -0.113159
     6  H    0.211245
     7  C    0.647040
     8  C   -0.299692
     9  H    0.210584
    10  H    0.160993
    11  O   -0.538470
    12  C   -0.376530
    13  H    0.178722
    14  H    0.169542
    15  C    0.614359
    16  O   -0.574566
    17  O   -0.600466
    18  N   -0.575683
    19  H    0.370649
    20  C   -0.104174
    21  H    0.188484
    22  C    0.649670
    23  C   -0.260947
    24  H    0.155015
    25  H    0.160901
    26  O   -0.534747
    27  C   -0.070779
    28  H    0.120539
    29  C   -0.446434
    30  H    0.152695
    31  H    0.157160
    32  H    0.150242
    33  C   -0.465882
    34  H    0.147416
    35  H    0.154840
    36  H    0.159434
    37  N   -0.618540
    38  H    0.358575
    39  C   -0.047747
    40  H    0.213358
    41  C    0.593978
    42  C   -0.295600
    43  H    0.143676
    44  H    0.205667
    45  O   -0.443998
    46  C   -0.263832
    47  H    0.167742
    48  H    0.162627
    49  C   -0.176385
    50  H    0.148910
    51  H    0.181689
    52  N   -0.623268
    53  H    0.424489
    54  N   -0.759526
    55  H    0.361598
    56  H    0.364862
    57  N   -0.791035
    58  H    0.343941
    59  H    0.431144
    60  C    0.768988
    61  O   -0.583783
    62  H    0.429464
 Sum of Mulliken charges =   1.00000

 Dipole moment (field-independent basis, Debye):
    X=              3.5116    Y=              3.5390    Z=            -15.0258  Tot=             15.8313
 Quadrupole moment (field-independent basis, Debye-Ang):
   XX=            -69.7780   YY=           -134.2504   ZZ=            -92.6153
   XY=             48.1376   XZ=            -14.5660   YZ=              0.8836

 Normal termination of Gaussian 16 at Fri May 27 00:59:26 2022.
