 Gaussian 16, Revision C.01,
 Gaussian 16:  ES64L-G16RevC.01  3-Jul-2019

 -------------------------------------------------------------------
 # B3LYP/6-31G* guess=read geom=check nosymm integral(ultrafinegrid)
 -------------------------------------------------------------------

 ------------------------------------------------------
 Candidate Structure: Conf:472 Charge calc in gas phase
 ------------------------------------------------------
 Structure from the checkpoint file:  "conf-472.chk"
 Charge =  1 Multiplicity = 1

                          Input orientation:
 ---------------------------------------------------------------------
 Center     Atomic      Atomic             Coordinates (Angstroms)
 Number     Number       Type             X           Y           Z
 ---------------------------------------------------------------------
      1          7           0       -3.507340   -0.266680   -3.694281
      2          1           0       -4.021408   -1.109120   -3.421989
      3          1           0       -3.702911    0.496771   -2.984493
      4          1           0       -3.801999    0.007891   -4.634853
      5          6           0       -1.996089   -0.431528   -3.563583
      6          1           0       -1.733723   -1.486750   -3.577761
      7          6           0       -1.726394    0.203199   -2.175083
      8          6           0       -1.323565    0.294795   -4.748250
      9          1           0       -1.803401    1.277390   -4.868498
     10          1           0       -1.543348   -0.289963   -5.651123
     11          8           0       -2.588476    0.981344   -1.722108
     12          6           0        0.195976    0.508084   -4.638456
     13          1           0        0.547662    0.932377   -5.584965
     14          1           0        0.407009    1.257769   -3.864926
     15          6           0        1.037259   -0.746726   -4.281496
     16          8           0        0.459233   -1.654740   -3.627968
     17          8           0        2.250848   -0.737213   -4.617241
     18          7           0       -0.590833   -0.158146   -1.589676
     19          1           0        0.016883   -0.795052   -2.138184
     20          6           0       -0.115058    0.390114   -0.329507
     21          1           0       -0.840247    1.142575   -0.006814
     22          6           0        1.257599    1.060669   -0.568742
     23          6           0        0.024206   -0.715786    0.747079
     24          1           0        0.438695   -0.258012    1.655224
     25          1           0        0.771205   -1.439077    0.393758
     26          8           0        1.933207    0.800451   -1.565795
     27          6           0       -1.277125   -1.457911    1.109971
     28          1           0       -1.671080   -1.912088    0.189314
     29          6           0       -0.959394   -2.596428    2.091906
     30          1           0       -0.563670   -2.203123    3.036911
     31          1           0       -1.861338   -3.172243    2.326153
     32          1           0       -0.216764   -3.288783    1.679124
     33          6           0       -2.351652   -0.521416    1.684102
     34          1           0       -1.983567   -0.002611    2.579096
     35          1           0       -2.677689    0.234140    0.960832
     36          1           0       -3.238160   -1.092578    1.981769
     37          7           0        1.632056    1.908025    0.421454
     38          1           0        0.963178    2.128806    1.152372
     39          6           0        2.956683    2.477576    0.665819
     40          1           0        3.560055    1.756831    1.241327
     41          6           0        2.735349    3.659006    1.616101
     42          6           0        3.775153    2.824570   -0.591661
     43          1           0        4.035597    1.881483   -1.073893
     44          1           0        4.708736    3.283657   -0.250476
     45          8           0        1.687164    3.886152    2.179672
     46          6           0        3.070134    3.754156   -1.588343
     47          1           0        2.023714    3.461836   -1.720688
     48          1           0        3.066102    4.782586   -1.208476
     49          6           0        3.755948    3.769066   -2.955781
     50          1           0        4.825094    3.988973   -2.813989
     51          1           0        3.331769    4.565956   -3.579060
     52          7           0        3.601918    2.484228   -3.652033
     53          1           0        3.091445    1.734515   -3.185161
     54          7           0        4.803605    3.231275   -5.492079
     55          1           0        5.191531    3.053986   -6.407158
     56          1           0        5.305924    3.898281   -4.925738
     57          7           0        3.715164    1.174778   -5.566427
     58          1           0        4.187951    0.972466   -6.436842
     59          1           0        3.047894    0.415321   -5.173928
     60          6           0        4.048245    2.268241   -4.900452
     61          8           0        3.853495    4.382368    1.792987
     62          1           0        3.649439    5.071878    2.454442
 ---------------------------------------------------------------------

 SCF Done:  E(RB3LYP) =  -1447.41689924     A.U. after    3 cycles

 Alpha  occ. eigenvalues --  -19.30239 -19.24699 -19.24266 -19.22332 -19.16888
 Alpha  occ. eigenvalues --  -19.16264 -14.57672 -14.49012 -14.48197 -14.46562
 Alpha  occ. eigenvalues --  -14.46213 -14.45491 -10.44218 -10.42727 -10.40761
 Alpha  occ. eigenvalues --  -10.39510 -10.37111 -10.35110 -10.34995 -10.34412
 Alpha  occ. eigenvalues --  -10.33300 -10.31381 -10.29799 -10.29293 -10.27742
 Alpha  occ. eigenvalues --  -10.27633 -10.27010 -10.24675 -10.24375  -1.21293
 Alpha  occ. eigenvalues --   -1.16471  -1.14011  -1.12781  -1.12384  -1.11317
 Alpha  occ. eigenvalues --   -1.09962  -1.03675  -1.03157  -1.02518  -1.01497
 Alpha  occ. eigenvalues --   -1.00009  -0.91670  -0.90828  -0.89159  -0.86636
 Alpha  occ. eigenvalues --   -0.84193  -0.81647  -0.79109  -0.75729  -0.75382
 Alpha  occ. eigenvalues --   -0.75186  -0.74292  -0.72785  -0.72142  -0.71298
 Alpha  occ. eigenvalues --   -0.69724  -0.69129  -0.68019  -0.67041  -0.66311
 Alpha  occ. eigenvalues --   -0.65585  -0.63386  -0.61878  -0.61274  -0.60867
 Alpha  occ. eigenvalues --   -0.60450  -0.59610  -0.59207  -0.58466  -0.57937
 Alpha  occ. eigenvalues --   -0.57419  -0.57099  -0.56375  -0.55929  -0.54861
 Alpha  occ. eigenvalues --   -0.54378  -0.53740  -0.52716  -0.52576  -0.51996
 Alpha  occ. eigenvalues --   -0.51539  -0.51440  -0.50620  -0.49974  -0.49354
 Alpha  occ. eigenvalues --   -0.49142  -0.48589  -0.47654  -0.47295  -0.47027
 Alpha  occ. eigenvalues --   -0.46722  -0.46094  -0.45593  -0.45506  -0.45146
 Alpha  occ. eigenvalues --   -0.44924  -0.44088  -0.42973  -0.42310  -0.40968
 Alpha  occ. eigenvalues --   -0.40388  -0.40367  -0.39609  -0.38720  -0.38369
 Alpha  occ. eigenvalues --   -0.37081  -0.36764  -0.35955  -0.35206  -0.32607
 Alpha  occ. eigenvalues --   -0.31468  -0.30615
 Alpha virt. eigenvalues --   -0.09858  -0.09681  -0.08852  -0.08337  -0.08207
 Alpha virt. eigenvalues --   -0.05029  -0.04027  -0.02985  -0.02537  -0.02192
 Alpha virt. eigenvalues --   -0.00844  -0.00511   0.00638   0.01022   0.01273

 Mulliken charges:
               1
     1  N   -0.759595
     2  H    0.411610
     3  H    0.423726
     4  H    0.405456
     5  C   -0.103856
     6  H    0.250602
     7  C    0.613400
     8  C   -0.284967
     9  H    0.149135
    10  H    0.174173
    11  O   -0.562674
    12  C   -0.398221
    13  H    0.159440
    14  H    0.162922
    15  C    0.643638
    16  O   -0.585584
    17  O   -0.590738
    18  N   -0.587928
    19  H    0.413433
    20  C   -0.106043
    21  H    0.193759
    22  C    0.640846
    23  C   -0.265146
    24  H    0.143388
    25  H    0.165691
    26  O   -0.540983
    27  C   -0.068161
    28  H    0.122753
    29  C   -0.447084
    30  H    0.148763
    31  H    0.155296
    32  H    0.153486
    33  C   -0.468217
    34  H    0.145880
    35  H    0.158839
    36  H    0.155859
    37  N   -0.627316
    38  H    0.364082
    39  C   -0.029055
    40  H    0.204877
    41  C    0.592661
    42  C   -0.286933
    43  H    0.186282
    44  H    0.177269
    45  O   -0.456713
    46  C   -0.304771
    47  H    0.171992
    48  H    0.169134
    49  C   -0.143575
    50  H    0.160127
    51  H    0.181467
    52  N   -0.638115
    53  H    0.411317
    54  N   -0.760909
    55  H    0.366279
    56  H    0.370069
    57  N   -0.797682
    58  H    0.347222
    59  H    0.454099
    60  C    0.793654
    61  O   -0.561217
    62  H    0.432859
 Sum of Mulliken charges =   1.00000

 Dipole moment (field-independent basis, Debye):
    X=              3.1319    Y=             10.8722    Z=            -15.4240  Tot=             19.1289
 Quadrupole moment (field-independent basis, Debye-Ang):
   XX=            -71.5348   YY=           -135.5980   ZZ=            -68.9024
   XY=             64.0658   XZ=             -4.2725   YZ=            -36.0294

 Normal termination of Gaussian 16 at Fri May 27 00:59:28 2022.
