 Gaussian 16, Revision C.01,
 Gaussian 16:  ES64L-G16RevC.01  3-Jul-2019

 -------------------------------------------------------------------
 # B3LYP/6-31G* guess=read geom=check nosymm integral(ultrafinegrid)
 -------------------------------------------------------------------

 ------------------------------------------------------
 Candidate Structure: Conf:535 Charge calc in gas phase
 ------------------------------------------------------
 Structure from the checkpoint file:  "conf-535.chk"
 Charge =  1 Multiplicity = 1

                          Input orientation:
 ---------------------------------------------------------------------
 Center     Atomic      Atomic             Coordinates (Angstroms)
 Number     Number       Type             X           Y           Z
 ---------------------------------------------------------------------
      1          7           0       -2.532822   -2.413132    3.232558
      2          1           0       -3.202152   -1.684218    2.992299
      3          1           0       -2.746911   -3.217352    2.642670
      4          6           0       -1.164575   -1.975999    2.970917
      5          1           0       -1.023221   -1.015995    3.485438
      6          6           0       -0.847687   -1.831655    1.461262
      7          6           0       -0.202243   -3.026370    3.582999
      8          1           0       -0.290865   -2.984392    4.673485
      9          1           0       -0.551916   -4.014917    3.272681
     10          8           0       -0.749147   -2.829019    0.759810
     11          6           0        1.222748   -2.858777    3.130642
     12          6           0        1.917028   -1.709456    3.077997
     13          1           0        1.675634   -0.697627    3.363509
     14          6           0        2.056037   -3.923579    2.547099
     15          6           0        3.251542   -3.357476    2.098101
     16          6           0        1.859755   -5.294974    2.386441
     17          1           0        0.942828   -5.773162    2.714865
     18          7           0        3.177146   -1.905476    2.329767
     19          1           0        3.037641   -1.399617    1.413649
     20          6           0        4.065935   -5.445712    1.355129
     21          1           0        4.838826   -6.053582    0.896098
     22          6           0        4.271993   -4.067225    1.496558
     23          1           0        5.185461   -3.594657    1.148806
     24          6           0        2.878177   -6.044752    1.791509
     25          1           0        2.745442   -7.114408    1.663140
     26          7           0       -0.742524   -0.537109    1.010040
     27          1           0       -0.841692    0.180612    1.715890
     28          6           0       -0.204105   -0.060512   -0.274125
     29          1           0       -0.618055    0.947226   -0.404309
     30          6           0        1.327203    0.048703   -0.119466
     31          6           0       -0.594521   -0.901715   -1.516171
     32          1           0       -0.172907   -1.898198   -1.365760
     33          8           0        2.024220   -0.949837    0.095548
     34          6           0        0.037077   -0.323639   -2.806504
     35          1           0        1.131758   -0.330882   -2.713933
     36          1           0       -0.188700   -1.032537   -3.612261
     37          6           0       -2.119657   -1.039191   -1.626672
     38          1           0       -2.626098   -0.066669   -1.637569
     39          1           0       -2.378422   -1.557866   -2.556135
     40          1           0       -2.522577   -1.627622   -0.799374
     41          6           0       -0.430040    1.072263   -3.242066
     42          1           0        0.051731    1.355698   -4.183616
     43          1           0       -0.181170    1.852311   -2.509953
     44          1           0       -1.511951    1.109298   -3.404577
     45          7           0        1.857822    1.296872   -0.190679
     46          1           0        1.254044    2.083655   -0.392833
     47          6           0        3.299535    1.551782   -0.078546
     48          1           0        3.798638    0.621881   -0.361469
     49          6           0        3.610521    1.761148    1.411437
     50          6           0        3.742243    2.689973   -1.005094
     51          1           0        3.409168    2.422345   -2.015134
     52          1           0        3.233585    3.620944   -0.722361
     53          8           0        3.850358    0.856972    2.191302
     54          6           0        5.263021    2.897454   -1.005769
     55          1           0        5.757125    1.934740   -1.185533
     56          1           0        5.594291    3.256695   -0.023224
     57          6           0        5.742334    3.905079   -2.073638
     58          1           0        5.273689    4.881279   -1.905221
     59          1           0        6.821167    4.059396   -1.959306
     60          7           0        5.478205    3.526693   -3.450872
     61          1           0        4.532250    3.680567   -3.775723
     62          7           0        5.514179    2.091761   -5.269545
     63          1           0        6.077705    1.393631   -5.743979
     64          1           0        5.338468    2.884678   -5.880069
     65          7           0        7.121438    1.767005   -3.625810
     66          1           0        7.415286    2.061508   -2.695211
     67          6           0        6.116551    2.440772   -4.053475
     68          8           0        3.524253    3.044589    1.788995
     69          1           0        3.993640   -1.486123    2.787703
     70          1           0        3.707818    3.088692    2.748145
 ---------------------------------------------------------------------

 SCF Done:  E(RB3LYP) =  -1582.09452239     A.U. after    1 cycles

 Alpha  occ. eigenvalues --  -19.32900 -19.27551 -19.25302 -19.21612 -14.57055
 Alpha  occ. eigenvalues --  -14.50234 -14.47489 -14.42557 -14.41692 -14.40266
 Alpha  occ. eigenvalues --  -14.35011 -10.45486 -10.42126 -10.38784 -10.36522
 Alpha  occ. eigenvalues --  -10.35698 -10.35482 -10.35148 -10.34659 -10.33807
 Alpha  occ. eigenvalues --  -10.33407 -10.32215 -10.31882 -10.30922 -10.30839
 Alpha  occ. eigenvalues --  -10.30695 -10.30507 -10.30454 -10.30353 -10.28631
 Alpha  occ. eigenvalues --  -10.28455 -10.27196 -10.26469 -10.25596  -1.23937
 Alpha  occ. eigenvalues --   -1.17069  -1.14789  -1.13773  -1.13509  -1.06088
 Alpha  occ. eigenvalues --   -1.04397  -1.03347  -0.99219  -0.97607  -0.95888
 Alpha  occ. eigenvalues --   -0.93761  -0.92023  -0.90538  -0.90217  -0.86659
 Alpha  occ. eigenvalues --   -0.86364  -0.85259  -0.83873  -0.82893  -0.80213
 Alpha  occ. eigenvalues --   -0.78160  -0.76342  -0.74756  -0.74234  -0.73045
 Alpha  occ. eigenvalues --   -0.72983  -0.71919  -0.70733  -0.69619  -0.69438
 Alpha  occ. eigenvalues --   -0.68188  -0.66271  -0.65217  -0.64620  -0.63275
 Alpha  occ. eigenvalues --   -0.62679  -0.62258  -0.61979  -0.61501  -0.61012
 Alpha  occ. eigenvalues --   -0.60934  -0.59956  -0.59790  -0.58757  -0.57626
 Alpha  occ. eigenvalues --   -0.56906  -0.56426  -0.55654  -0.55278  -0.54897
 Alpha  occ. eigenvalues --   -0.54594  -0.54076  -0.53585  -0.53429  -0.52963
 Alpha  occ. eigenvalues --   -0.52388  -0.51969  -0.51589  -0.51144  -0.50712
 Alpha  occ. eigenvalues --   -0.50352  -0.49964  -0.49559  -0.48733  -0.48447
 Alpha  occ. eigenvalues --   -0.48029  -0.47771  -0.47522  -0.46934  -0.46586
 Alpha  occ. eigenvalues --   -0.46132  -0.45453  -0.45351  -0.45082  -0.44791
 Alpha  occ. eigenvalues --   -0.44190  -0.43543  -0.42189  -0.41956  -0.41792
 Alpha  occ. eigenvalues --   -0.41457  -0.41269  -0.39736  -0.38617  -0.37143
 Alpha  occ. eigenvalues --   -0.36798  -0.35914  -0.34713  -0.32690  -0.32679
 Alpha  occ. eigenvalues --   -0.32596  -0.29469
 Alpha virt. eigenvalues --   -0.15435  -0.13593  -0.12359  -0.11096  -0.07714
 Alpha virt. eigenvalues --   -0.07253  -0.06104  -0.04918  -0.04196  -0.04116
 Alpha virt. eigenvalues --   -0.01874  -0.01302  -0.00745  -0.00247   0.00050

 Mulliken charges:
               1
     1  N   -0.696645
     2  H    0.314565
     3  H    0.322781
     4  C   -0.072332
     5  H    0.128880
     6  C    0.633857
     7  C   -0.338989
     8  H    0.200746
     9  H    0.183740
    10  O   -0.517422
    11  C    0.168038
    12  C   -0.101770
    13  H    0.183162
    14  C    0.153881
    15  C    0.192685
    16  C   -0.190188
    17  H    0.172184
    18  N   -0.742153
    19  H    0.455879
    20  C   -0.139371
    21  H    0.174653
    22  C   -0.151482
    23  H    0.170911
    24  C   -0.117533
    25  H    0.173162
    26  N   -0.625759
    27  H    0.327748
    28  C   -0.039201
    29  H    0.144967
    30  C    0.645953
    31  C   -0.086276
    32  H    0.194409
    33  O   -0.557886
    34  C   -0.285580
    35  H    0.142689
    36  H    0.164015
    37  C   -0.462597
    38  H    0.141608
    39  H    0.165056
    40  H    0.167041
    41  C   -0.453515
    42  H    0.167142
    43  H    0.109054
    44  H    0.169280
    45  N   -0.612770
    46  H    0.353030
    47  C   -0.031347
    48  H    0.200758
    49  C    0.604999
    50  C   -0.293684
    51  H    0.167741
    52  H    0.160401
    53  O   -0.500996
    54  C   -0.280779
    55  H    0.159249
    56  H    0.151723
    57  C   -0.162921
    58  H    0.158841
    59  H    0.175916
    60  N   -0.583031
    61  H    0.320168
    62  N   -0.756349
    63  H    0.343281
    64  H    0.324347
    65  N   -0.637777
    66  H    0.273632
    67  C    0.573823
    68  O   -0.542197
    69  H    0.414180
    70  H    0.430371
 Sum of Mulliken charges =   1.00000

 Dipole moment (field-independent basis, Debye):
    X=              9.2504    Y=              0.6002    Z=              6.2040  Tot=             11.1543
 Quadrupole moment (field-independent basis, Debye-Ang):
   XX=           -161.2747   YY=           -137.0551   ZZ=           -162.0559
   XY=              0.1381   XZ=             20.3019   YZ=            -21.5448

 Normal termination of Gaussian 16 at Thu May 26 00:32:17 2022.
