 Gaussian 16, Revision C.01,
 Gaussian 16:  ES64L-G16RevC.01  3-Jul-2019

 -------------------------------------------------------------------
 # B3LYP/6-31G* guess=read geom=check nosymm integral(ultrafinegrid)
 -------------------------------------------------------------------

 ------------------------------------------------------
 Candidate Structure: Conf:549 Charge calc in gas phase
 ------------------------------------------------------
 Structure from the checkpoint file:  "conf-549.chk"
 Charge =  1 Multiplicity = 1

                          Input orientation:
 ---------------------------------------------------------------------
 Center     Atomic      Atomic             Coordinates (Angstroms)
 Number     Number       Type             X           Y           Z
 ---------------------------------------------------------------------
      1          7           0       -2.680157   -2.888246    3.311289
      2          1           0       -2.821984   -3.089620    4.299458
      3          1           0       -3.358988   -2.175046    3.052928
      4          6           0       -1.316845   -2.427710    3.076576
      5          1           0       -1.026045   -1.546588    3.681309
      6          6           0       -1.137735   -2.091125    1.573843
      7          6           0       -0.349180   -3.597701    3.416070
      8          1           0       -0.422067   -3.826645    4.485438
      9          1           0       -0.707385   -4.465001    2.857263
     10          8           0       -1.139608   -2.973733    0.728666
     11          6           0        1.064241   -3.277181    3.029798
     12          6           0        1.580381   -3.496174    1.809903
     13          1           0        1.138458   -3.918701    0.920519
     14          6           0        2.054639   -2.533943    3.827758
     15          6           0        3.164787   -2.267350    3.019759
     16          6           0        2.071691   -2.097222    5.153024
     17          1           0        1.232985   -2.286770    5.815563
     18          7           0        2.879708   -2.798334    1.672062
     19          1           0        3.628003   -3.393408    1.298170
     20          6           0        4.300952   -1.176153    4.781502
     21          1           0        5.169699   -0.655211    5.170621
     22          6           0        4.296791   -1.600208    3.445291
     23          1           0        5.145055   -1.414253    2.793184
     24          6           0        3.204610   -1.420742    5.616612
     25          1           0        3.237727   -1.083133    6.647824
     26          7           0       -0.951382   -0.757649    1.319377
     27          1           0       -0.976155   -0.146002    2.124878
     28          6           0       -0.532306   -0.106779    0.066143
     29          1           0       -0.978779    0.896231    0.096770
     30          6           0        1.005459    0.059695    0.115672
     31          6           0       -1.029878   -0.776050   -1.242655
     32          1           0       -0.640053   -1.796534   -1.263648
     33          8           0        1.774991   -0.915476    0.135309
     34          6           0       -0.472910   -0.014961   -2.465004
     35          1           0       -0.787933    1.039347   -2.420433
     36          1           0        0.623580   -0.014509   -2.420689
     37          6           0       -2.563934   -0.834462   -1.248037
     38          1           0       -2.999762    0.173583   -1.239217
     39          1           0       -2.920280   -1.341497   -2.148233
     40          1           0       -2.951365   -1.389607   -0.390860
     41          6           0       -0.878822   -0.609380   -3.819341
     42          1           0       -0.299766   -0.133187   -4.616180
     43          1           0       -1.943186   -0.466155   -4.030489
     44          1           0       -0.671187   -1.686215   -3.851285
     45          7           0        1.444601    1.333962    0.155173
     46          1           0        0.765961    2.082247    0.242769
     47          6           0        2.828199    1.740761    0.370077
     48          1           0        3.384679    0.866626    0.718553
     49          6           0        2.814196    2.802069    1.469408
     50          6           0        3.505783    2.311839   -0.900315
     51          1           0        2.904376    3.158951   -1.257731
     52          1           0        4.479161    2.720431   -0.603744
     53          8           0        1.822762    3.403921    1.818592
     54          6           0        3.682871    1.283704   -2.021640
     55          1           0        2.718320    0.832413   -2.275352
     56          1           0        4.331764    0.465823   -1.678717
     57          6           0        4.286342    1.909545   -3.295295
     58          1           0        3.691873    2.777047   -3.606484
     59          1           0        5.293650    2.289575   -3.090071
     60          7           0        4.378991    0.999595   -4.424168
     61          1           0        5.083020    0.276909   -4.329416
     62          7           0        3.506804   -0.499455   -5.958835
     63          1           0        2.705941   -0.691547   -6.550906
     64          1           0        4.352696   -0.390868   -6.509766
     65          7           0        2.043554    1.044206   -5.030833
     66          1           0        1.958550    1.756753   -4.307454
     67          6           0        3.238143    0.575356   -5.108102
     68          8           0        4.043315    3.014065    1.971548
     69          1           0        2.688759   -2.003655    0.995332
     70          1           0        3.972235    3.745135    2.616132
 ---------------------------------------------------------------------

 SCF Done:  E(RB3LYP) =  -1582.09084421     A.U. after    2 cycles

 Alpha  occ. eigenvalues --  -19.31224 -19.25696 -19.25070 -19.21478 -14.58708
 Alpha  occ. eigenvalues --  -14.48934 -14.47329 -14.42458 -14.41669 -14.40380
 Alpha  occ. eigenvalues --  -14.35312 -10.43710 -10.41796 -10.39007 -10.37508
 Alpha  occ. eigenvalues --  -10.36093 -10.35875 -10.34835 -10.34564 -10.34349
 Alpha  occ. eigenvalues --  -10.33967 -10.33784 -10.33736 -10.32641 -10.32469
 Alpha  occ. eigenvalues --  -10.32194 -10.30840 -10.30762 -10.30101 -10.28209
 Alpha  occ. eigenvalues --  -10.27616 -10.25767 -10.24674 -10.23071  -1.22225
 Alpha  occ. eigenvalues --   -1.16530  -1.15115  -1.13523  -1.13379  -1.05327
 Alpha  occ. eigenvalues --   -1.04480  -1.03121  -0.99583  -0.99016  -0.95856
 Alpha  occ. eigenvalues --   -0.94892  -0.91470  -0.90684  -0.89429  -0.88375
 Alpha  occ. eigenvalues --   -0.87507  -0.85105  -0.84622  -0.82287  -0.78701
 Alpha  occ. eigenvalues --   -0.77053  -0.76640  -0.75727  -0.73900  -0.73612
 Alpha  occ. eigenvalues --   -0.72442  -0.71415  -0.70490  -0.70284  -0.69455
 Alpha  occ. eigenvalues --   -0.67889  -0.67374  -0.65024  -0.64436  -0.62825
 Alpha  occ. eigenvalues --   -0.62768  -0.61978  -0.61509  -0.61062  -0.60625
 Alpha  occ. eigenvalues --   -0.60036  -0.59683  -0.59136  -0.58603  -0.57955
 Alpha  occ. eigenvalues --   -0.57373  -0.57136  -0.56882  -0.56522  -0.55571
 Alpha  occ. eigenvalues --   -0.54321  -0.54073  -0.53622  -0.52992  -0.52201
 Alpha  occ. eigenvalues --   -0.52048  -0.51293  -0.51106  -0.51019  -0.50505
 Alpha  occ. eigenvalues --   -0.50295  -0.49976  -0.49561  -0.49046  -0.48310
 Alpha  occ. eigenvalues --   -0.48218  -0.48023  -0.47187  -0.46932  -0.46565
 Alpha  occ. eigenvalues --   -0.45501  -0.45060  -0.44321  -0.44028  -0.43495
 Alpha  occ. eigenvalues --   -0.43101  -0.43004  -0.42729  -0.41005  -0.40415
 Alpha  occ. eigenvalues --   -0.40051  -0.39574  -0.39088  -0.38976  -0.38471
 Alpha  occ. eigenvalues --   -0.36202  -0.35852  -0.34745  -0.33438  -0.33016
 Alpha  occ. eigenvalues --   -0.32563  -0.29590
 Alpha virt. eigenvalues --   -0.16651  -0.14261  -0.11534  -0.10566  -0.08997
 Alpha virt. eigenvalues --   -0.07837  -0.07147  -0.04610  -0.03306  -0.03080
 Alpha virt. eigenvalues --   -0.02199  -0.01887  -0.01040  -0.00519   0.00003

 Mulliken charges:
               1
     1  N   -0.700002
     2  H    0.315604
     3  H    0.318231
     4  C   -0.053546
     5  H    0.109875
     6  C    0.635075
     7  C   -0.349186
     8  H    0.164502
     9  H    0.217808
    10  O   -0.508636
    11  C    0.127026
    12  C   -0.071764
    13  H    0.242423
    14  C    0.148920
    15  C    0.172771
    16  C   -0.206053
    17  H    0.170048
    18  N   -0.745418
    19  H    0.408911
    20  C   -0.142437
    21  H    0.176651
    22  C   -0.159809
    23  H    0.171998
    24  C   -0.117244
    25  H    0.176462
    26  N   -0.622209
    27  H    0.335621
    28  C   -0.040655
    29  H    0.150520
    30  C    0.639923
    31  C   -0.079234
    32  H    0.176509
    33  O   -0.593106
    34  C   -0.288440
    35  H    0.122878
    36  H    0.154862
    37  C   -0.461111
    38  H    0.138255
    39  H    0.175160
    40  H    0.162230
    41  C   -0.468151
    42  H    0.198123
    43  H    0.151226
    44  H    0.142953
    45  N   -0.570608
    46  H    0.361436
    47  C   -0.054701
    48  H    0.173143
    49  C    0.587605
    50  C   -0.271283
    51  H    0.158972
    52  H    0.175230
    53  O   -0.454864
    54  C   -0.281813
    55  H    0.178858
    56  H    0.131272
    57  C   -0.159212
    58  H    0.166082
    59  H    0.159552
    60  N   -0.582979
    61  H    0.322022
    62  N   -0.753258
    63  H    0.343628
    64  H    0.326930
    65  N   -0.643464
    66  H    0.272066
    67  C    0.584646
    68  O   -0.559425
    69  H    0.461169
    70  H    0.431431
 Sum of Mulliken charges =   1.00000

 Dipole moment (field-independent basis, Debye):
    X=             14.0334    Y=             -2.9165    Z=             10.7673  Tot=             17.9270
 Quadrupole moment (field-independent basis, Debye-Ang):
   XX=           -124.1419   YY=           -175.2994   ZZ=           -131.7337
   XY=             -9.6103   XZ=              4.4534   YZ=            -15.2414

 Normal termination of Gaussian 16 at Thu May 26 00:32:34 2022.
