 Gaussian 16, Revision C.01,
 Gaussian 16:  ES64L-G16RevC.01  3-Jul-2019

 -------------------------------------------------------------------
 # B3LYP/6-31G* guess=read geom=check nosymm integral(ultrafinegrid)
 -------------------------------------------------------------------

 ------------------------------------------------------
 Candidate Structure: Conf:883 Charge calc in gas phase
 ------------------------------------------------------
 Structure from the checkpoint file:  "conf-883.chk"
 Charge =  1 Multiplicity = 1

                          Input orientation:
 ---------------------------------------------------------------------
 Center     Atomic      Atomic             Coordinates (Angstroms)
 Number     Number       Type             X           Y           Z
 ---------------------------------------------------------------------
      1          7           0        0.332354   -2.011371    2.512733
      2          1           0        0.443246   -2.874034    1.985537
      3          1           0        1.215555   -1.499089    2.484153
      4          6           0       -0.759766   -1.178403    1.999044
      5          1           0       -1.615323   -1.841687    1.811195
      6          6           0       -0.462941   -0.453575    0.657132
      7          6           0       -1.182393   -0.141033    3.057330
      8          1           0       -0.310503    0.471302    3.326609
      9          1           0       -1.902091    0.550920    2.613511
     10          8           0       -0.833588    0.707984    0.445049
     11          6           0       -1.768094   -0.729126    4.309844
     12          6           0       -1.496309   -1.933562    4.840171
     13          1           0       -0.802707   -2.703965    4.540691
     14          6           0       -2.765116   -0.045131    5.160772
     15          6           0       -3.107777   -0.888658    6.220230
     16          6           0       -3.370848    1.210402    5.083279
     17          1           0       -3.127750    1.950453    4.318099
     18          7           0       -2.313318   -2.138793    6.079114
     19          1           0       -2.916829   -2.967580    5.993329
     20          6           0       -4.631793    0.670611    7.111999
     21          1           0       -5.361765    0.963996    7.859557
     22          6           0       -4.023248   -0.589430    7.208291
     23          1           0       -4.266057   -1.274444    8.015300
     24          6           0       -4.303437    1.546974    6.072450
     25          1           0       -4.778999    2.521681    6.023757
     26          7           0        0.182452   -1.195203   -0.273210
     27          1           0        0.633001   -2.044944    0.040310
     28          6           0        0.706590   -0.619899   -1.527983
     29          1           0       -0.012474    0.147337   -1.829756
     30          6           0        2.046110    0.026901   -1.107019
     31          6           0        0.859728   -1.671170   -2.645036
     32          1           0        1.777567   -2.235146   -2.431197
     33          8           0        3.109737   -0.577866   -1.118875
     34          6           0        1.016276   -1.000523   -4.030670
     35          1           0        1.113102   -1.808729   -4.766467
     36          1           0        0.075225   -0.485345   -4.274768
     37          6           0       -0.330966   -2.643462   -2.689073
     38          1           0       -1.275769   -2.109795   -2.850367
     39          1           0       -0.203712   -3.350288   -3.515512
     40          1           0       -0.434931   -3.229919   -1.770302
     41          6           0        2.190454   -0.031016   -4.213823
     42          1           0        2.255141    0.280977   -5.261787
     43          1           0        3.142504   -0.494482   -3.937087
     44          1           0        2.077412    0.879921   -3.614872
     45          7           0        1.911153    1.290511   -0.601610
     46          1           0        0.961198    1.591690   -0.409841
     47          6           0        2.974972    1.870647    0.197502
     48          1           0        3.876001    1.954152   -0.415748
     49          6           0        3.316338    0.963565    1.386766
     50          6           0        2.553346    3.275685    0.690091
     51          1           0        3.439105    3.795474    1.068946
     52          1           0        2.219621    3.829629   -0.196801
     53          8           0        2.547897    0.196490    1.937111
     54          6           0        1.445427    3.249852    1.762001
     55          1           0        1.893900    3.110983    2.754296
     56          1           0        0.791015    2.384222    1.610382
     57          6           0        0.568959    4.513996    1.781761
     58          1           0        1.187234    5.405234    1.942051
     59          1           0        0.065824    4.644001    0.817872
     60          7           0       -0.449184    4.478133    2.820931
     61          1           0       -0.181414    4.790661    3.742592
     62          7           0       -2.034992    3.385374    1.486780
     63          1           0       -3.005149    3.094258    1.469569
     64          1           0       -1.420898    2.666351    1.116390
     65          7           0       -2.623907    3.984706    3.645353
     66          1           0       -2.328551    4.581180    4.421486
     67          6           0       -1.718579    3.948986    2.717973
     68          8           0        4.574777    1.167574    1.805777
     69          1           0       -1.710141   -2.299004    6.897092
     70          1           0        4.728733    0.585166    2.573920
 ---------------------------------------------------------------------

 SCF Done:  E(RB3LYP) =  -1582.09463247     A.U. after    1 cycles

 Alpha  occ. eigenvalues --  -19.28879 -19.23627 -19.22676 -19.19878 -14.61822
 Alpha  occ. eigenvalues --  -14.46485 -14.43901 -14.43340 -14.42853 -14.40647
 Alpha  occ. eigenvalues --  -14.35487 -10.41388 -10.39374 -10.37757 -10.36816
 Alpha  occ. eigenvalues --  -10.36685 -10.35597 -10.35479 -10.34289 -10.33695
 Alpha  occ. eigenvalues --  -10.33593 -10.32492 -10.32005 -10.31715 -10.31192
 Alpha  occ. eigenvalues --  -10.31173 -10.30939 -10.30288 -10.28387 -10.27270
 Alpha  occ. eigenvalues --  -10.26778 -10.24909 -10.24884 -10.23180  -1.19924
 Alpha  occ. eigenvalues --   -1.17092  -1.14214  -1.11869  -1.10715  -1.04758
 Alpha  occ. eigenvalues --   -1.03023  -1.01033  -1.00222  -0.99213  -0.95928
 Alpha  occ. eigenvalues --   -0.95198  -0.91115  -0.89000  -0.88042  -0.87988
 Alpha  occ. eigenvalues --   -0.87391  -0.85455  -0.82996  -0.80842  -0.78779
 Alpha  occ. eigenvalues --   -0.76988  -0.75813  -0.75685  -0.74103  -0.73552
 Alpha  occ. eigenvalues --   -0.71414  -0.70415  -0.69571  -0.68673  -0.68026
 Alpha  occ. eigenvalues --   -0.67699  -0.67351  -0.66101  -0.64802  -0.62712
 Alpha  occ. eigenvalues --   -0.62543  -0.61847  -0.61331  -0.60667  -0.60122
 Alpha  occ. eigenvalues --   -0.58853  -0.57864  -0.57803  -0.57686  -0.56888
 Alpha  occ. eigenvalues --   -0.56133  -0.55470  -0.55211  -0.54568  -0.54319
 Alpha  occ. eigenvalues --   -0.54208  -0.53812  -0.52642  -0.52205  -0.51580
 Alpha  occ. eigenvalues --   -0.51257  -0.50857  -0.50466  -0.50154  -0.49432
 Alpha  occ. eigenvalues --   -0.49185  -0.48967  -0.48496  -0.47955  -0.47888
 Alpha  occ. eigenvalues --   -0.47471  -0.47033  -0.46884  -0.46539  -0.45765
 Alpha  occ. eigenvalues --   -0.45210  -0.44079  -0.43754  -0.43094  -0.42712
 Alpha  occ. eigenvalues --   -0.42385  -0.41941  -0.41039  -0.40014  -0.39643
 Alpha  occ. eigenvalues --   -0.39423  -0.38819  -0.38471  -0.37454  -0.36808
 Alpha  occ. eigenvalues --   -0.36406  -0.34490  -0.33966  -0.33696  -0.32923
 Alpha  occ. eigenvalues --   -0.32520  -0.29212
 Alpha virt. eigenvalues --   -0.16994  -0.13898  -0.10769  -0.09425  -0.08749
 Alpha virt. eigenvalues --   -0.08409  -0.05874  -0.04464  -0.04088  -0.03238
 Alpha virt. eigenvalues --   -0.02008  -0.01117  -0.00930  -0.00031   0.00760

 Mulliken charges:
               1
     1  N   -0.763123
     2  H    0.315135
     3  H    0.362128
     4  C   -0.092758
     5  H    0.176832
     6  C    0.653204
     7  C   -0.350802
     8  H    0.203953
     9  H    0.197854
    10  O   -0.557379
    11  C    0.168925
    12  C   -0.103853
    13  H    0.232197
    14  C    0.134435
    15  C    0.159515
    16  C   -0.210037
    17  H    0.241205
    18  N   -0.731456
    19  H    0.421657
    20  C   -0.137282
    21  H    0.179978
    22  C   -0.157556
    23  H    0.172728
    24  C   -0.136751
    25  H    0.186657
    26  N   -0.601007
    27  H    0.326981
    28  C   -0.056967
    29  H    0.176591
    30  C    0.636945
    31  C   -0.112089
    32  H    0.158311
    33  O   -0.525096
    34  C   -0.257090
    35  H    0.149996
    36  H    0.135507
    37  C   -0.445816
    38  H    0.150794
    39  H    0.164065
    40  H    0.124597
    41  C   -0.463151
    42  H    0.156395
    43  H    0.170944
    44  H    0.141618
    45  N   -0.610965
    46  H    0.361451
    47  C   -0.035686
    48  H    0.204844
    49  C    0.626928
    50  C   -0.307226
    51  H    0.178014
    52  H    0.173376
    53  O   -0.510950
    54  C   -0.297900
    55  H    0.142826
    56  H    0.156129
    57  C   -0.147381
    58  H    0.162192
    59  H    0.182966
    60  N   -0.598829
    61  H    0.320561
    62  N   -0.776161
    63  H    0.335583
    64  H    0.368172
    65  N   -0.687996
    66  H    0.264763
    67  C    0.606975
    68  O   -0.550063
    69  H    0.422567
    70  H    0.418877
 Sum of Mulliken charges =   1.00000

 Dipole moment (field-independent basis, Debye):
    X=             -5.6931    Y=             -5.1955    Z=             22.6648  Tot=             23.9395
 Quadrupole moment (field-independent basis, Debye-Ang):
   XX=           -168.5969   YY=           -158.3790   ZZ=            -41.2064
   XY=             28.4026   XZ=            -48.8247   YZ=            -30.3196

 Normal termination of Gaussian 16 at Thu May 26 00:32:23 2022.
