 Gaussian 16, Revision C.01,
 Gaussian 16:  ES64L-G16RevC.01  3-Jul-2019

 -------------------------------------------------------------------
 # B3LYP/6-31G* guess=read geom=check nosymm integral(ultrafinegrid)
 -------------------------------------------------------------------

 ------------------------------------------------------
 Candidate Structure: Conf:617 Charge calc in gas phase
 ------------------------------------------------------
 Structure from the checkpoint file:  "conf-617.chk"
 Charge =  1 Multiplicity = 1

                          Input orientation:
 ---------------------------------------------------------------------
 Center     Atomic      Atomic             Coordinates (Angstroms)
 Number     Number       Type             X           Y           Z
 ---------------------------------------------------------------------
      1          7           0       -0.961830   -3.593129    1.982469
      2          1           0       -1.652153   -4.218104    1.565638
      3          1           0       -0.057210   -3.984451    1.706443
      4          6           0       -1.064409   -2.279238    1.345098
      5          1           0       -2.120922   -1.982358    1.338555
      6          6           0       -0.502219   -2.322419   -0.100130
      7          6           0       -0.261866   -1.221364    2.139341
      8          1           0        0.806982   -1.464889    2.064455
      9          1           0       -0.372556   -0.247064    1.649185
     10          8           0        0.420895   -3.077805   -0.368401
     11          6           0       -0.623318   -1.070595    3.590858
     12          6           0       -1.132535   -2.007618    4.408051
     13          1           0       -1.381371   -3.043096    4.231686
     14          6           0       -0.430786    0.178929    4.354705
     15          6           0       -0.848244   -0.025463    5.671634
     16          6           0        0.061754    1.435750    4.004689
     17          1           0        0.408476    1.667061    3.002734
     18          7           0       -1.318643   -1.432283    5.780577
     19          1           0       -2.303028   -1.485972    6.075355
     20          6           0       -0.319668    2.187340    6.293720
     21          1           0       -0.271506    2.977312    7.036335
     22          6           0       -0.817091    0.929838    6.667440
     23          1           0       -1.152273    0.733919    7.681797
     24          6           0        0.111974    2.433124    4.985364
     25          1           0        0.498763    3.404686    4.687747
     26          7           0       -1.044232   -1.440991   -0.994535
     27          1           0       -1.941387   -1.040224   -0.751377
     28          6           0       -0.731492   -1.498578   -2.438371
     29          1           0       -1.264449   -0.639292   -2.867820
     30          6           0        0.778853   -1.224243   -2.671213
     31          6           0       -1.214884   -2.780505   -3.170536
     32          1           0       -0.447232   -3.547803   -3.025157
     33          8           0        1.426237   -1.806144   -3.525153
     34          6           0       -1.334269   -2.491006   -4.685975
     35          1           0       -2.212998   -1.849025   -4.854446
     36          1           0       -0.456612   -1.924453   -5.008068
     37          6           0       -2.547242   -3.293118   -2.603533
     38          1           0       -3.332978   -2.526699   -2.660039
     39          1           0       -2.896807   -4.156800   -3.175839
     40          1           0       -2.460551   -3.617816   -1.560862
     41          6           0       -1.438795   -3.749119   -5.554974
     42          1           0       -1.494970   -3.478836   -6.614878
     43          1           0       -2.327090   -4.347801   -5.324562
     44          1           0       -0.557443   -4.386881   -5.421882
     45          7           0        1.289510   -0.195935   -1.918356
     46          1           0        0.754621    0.090079   -1.110959
     47          6           0        2.698670    0.145801   -1.964652
     48          1           0        3.088196   -0.293281   -2.886661
     49          6           0        3.535904   -0.466741   -0.838619
     50          6           0        2.935627    1.673968   -1.995815
     51          1           0        4.020293    1.832833   -1.994939
     52          1           0        2.550751    2.061068   -2.946247
     53          8           0        4.743304   -0.494237   -0.844659
     54          6           0        2.286906    2.418727   -0.819923
     55          1           0        2.502873    1.901722    0.123730
     56          1           0        1.194646    2.426632   -0.943386
     57          6           0        2.772416    3.869460   -0.679955
     58          1           0        3.853280    3.882686   -0.502211
     59          1           0        2.611741    4.425059   -1.609987
     60          7           0        2.092694    4.623105    0.381986
     61          1           0        1.194794    4.998240    0.102131
     62          7           0        3.299765    3.622492    2.115763
     63          1           0        3.344996    3.549239    3.125402
     64          1           0        4.139723    4.041658    1.732388
     65          7           0        1.145819    4.345932    2.563269
     66          1           0        0.302512    4.701033    2.109098
     67          6           0        2.109121    4.219687    1.711083
     68          8           0        2.802502   -0.937826    0.206254
     69          1           0       -0.776262   -1.963207    6.475524
     70          1           0        3.458727   -1.313857    0.824305
 ---------------------------------------------------------------------

 SCF Done:  E(RB3LYP) =  -1582.07839590     A.U. after    1 cycles

 Alpha  occ. eigenvalues --  -19.27969 -19.21896 -19.21543 -19.19009 -14.62288
 Alpha  occ. eigenvalues --  -14.46473 -14.43566 -14.43479 -14.42882 -14.42557
 Alpha  occ. eigenvalues --  -14.37217 -10.39652 -10.38576 -10.38328 -10.37368
 Alpha  occ. eigenvalues --  -10.36756 -10.36472 -10.36173 -10.34476 -10.34385
 Alpha  occ. eigenvalues --  -10.34170 -10.32635 -10.32419 -10.32287 -10.31921
 Alpha  occ. eigenvalues --  -10.31477 -10.31223 -10.30817 -10.27325 -10.27226
 Alpha  occ. eigenvalues --  -10.25927 -10.24875 -10.23722 -10.22495  -1.18449
 Alpha  occ. eigenvalues --   -1.17573  -1.13865  -1.11066  -1.09302  -1.06018
 Alpha  occ. eigenvalues --   -1.02529  -1.00736  -1.00092  -0.99768  -0.96987
 Alpha  occ. eigenvalues --   -0.95752  -0.92714  -0.88699  -0.88518  -0.87917
 Alpha  occ. eigenvalues --   -0.87469  -0.86083  -0.82735  -0.80490  -0.78104
 Alpha  occ. eigenvalues --   -0.77068  -0.76168  -0.75048  -0.74541  -0.74009
 Alpha  occ. eigenvalues --   -0.70852  -0.70742  -0.69755  -0.68980  -0.68442
 Alpha  occ. eigenvalues --   -0.68336  -0.66277  -0.65707  -0.63717  -0.63234
 Alpha  occ. eigenvalues --   -0.62970  -0.62617  -0.61473  -0.60681  -0.60354
 Alpha  occ. eigenvalues --   -0.58384  -0.57415  -0.57239  -0.56710  -0.56380
 Alpha  occ. eigenvalues --   -0.56031  -0.55848  -0.55296  -0.54716  -0.54501
 Alpha  occ. eigenvalues --   -0.53648  -0.53248  -0.52661  -0.52295  -0.51939
 Alpha  occ. eigenvalues --   -0.51654  -0.50873  -0.50724  -0.50211  -0.49816
 Alpha  occ. eigenvalues --   -0.49093  -0.48627  -0.48593  -0.48018  -0.47867
 Alpha  occ. eigenvalues --   -0.47459  -0.46838  -0.46493  -0.45966  -0.45362
 Alpha  occ. eigenvalues --   -0.44359  -0.43766  -0.43544  -0.43391  -0.43068
 Alpha  occ. eigenvalues --   -0.42241  -0.41791  -0.40676  -0.39370  -0.39098
 Alpha  occ. eigenvalues --   -0.38781  -0.38351  -0.37111  -0.37035  -0.36692
 Alpha  occ. eigenvalues --   -0.36071  -0.35480  -0.34533  -0.34153  -0.32418
 Alpha  occ. eigenvalues --   -0.32110  -0.30862
 Alpha virt. eigenvalues --   -0.17602  -0.14536  -0.11150  -0.09511  -0.08473
 Alpha virt. eigenvalues --   -0.06917  -0.06258  -0.04870  -0.04400  -0.03763
 Alpha virt. eigenvalues --   -0.03280  -0.02472  -0.01858  -0.00958  -0.00164

 Mulliken charges:
               1
     1  N   -0.723974
     2  H    0.323653
     3  H    0.334462
     4  C   -0.087723
     5  H    0.144370
     6  C    0.609350
     7  C   -0.349427
     8  H    0.208718
     9  H    0.169291
    10  O   -0.494169
    11  C    0.169753
    12  C   -0.099485
    13  H    0.244426
    14  C    0.151926
    15  C    0.159589
    16  C   -0.225195
    17  H    0.179677
    18  N   -0.732866
    19  H    0.422983
    20  C   -0.142517
    21  H    0.182130
    22  C   -0.152650
    23  H    0.175357
    24  C   -0.122165
    25  H    0.221570
    26  N   -0.639036
    27  H    0.332012
    28  C   -0.060867
    29  H    0.165816
    30  C    0.639952
    31  C   -0.061702
    32  H    0.173201
    33  O   -0.498029
    34  C   -0.269305
    35  H    0.119957
    36  H    0.169996
    37  C   -0.466607
    38  H    0.130324
    39  H    0.172768
    40  H    0.123112
    41  C   -0.454116
    42  H    0.155144
    43  H    0.143510
    44  H    0.160713
    45  N   -0.607539
    46  H    0.332207
    47  C   -0.064424
    48  H    0.225435
    49  C    0.602842
    50  C   -0.277867
    51  H    0.177095
    52  H    0.162478
    53  O   -0.447159
    54  C   -0.287208
    55  H    0.164453
    56  H    0.124850
    57  C   -0.150508
    58  H    0.162289
    59  H    0.167231
    60  N   -0.581722
    61  H    0.320013
    62  N   -0.735218
    63  H    0.338335
    64  H    0.339222
    65  N   -0.670558
    66  H    0.270151
    67  C    0.576097
    68  O   -0.582580
    69  H    0.424764
    70  H    0.413395
 Sum of Mulliken charges =   1.00000

 Dipole moment (field-independent basis, Debye):
    X=             -6.4872    Y=              0.4913    Z=             20.1438  Tot=             21.1683
 Quadrupole moment (field-independent basis, Debye-Ang):
   XX=           -184.0827   YY=           -169.5017   ZZ=            -70.8899
   XY=             27.9409   XZ=            -13.4123   YZ=            -30.1065

 Normal termination of Gaussian 16 at Thu May 26 00:32:15 2022.
