 Gaussian 16, Revision C.01,
 Gaussian 16:  ES64L-G16RevC.01  3-Jul-2019

 -------------------------------------------------------------------
 # B3LYP/6-31G* guess=read geom=check nosymm integral(ultrafinegrid)
 -------------------------------------------------------------------

 ------------------------------------------------------
 Candidate Structure: Conf:197 Charge calc in gas phase
 ------------------------------------------------------
 Structure from the checkpoint file:  "conf-197.chk"
 Charge =  1 Multiplicity = 1

                          Input orientation:
 ---------------------------------------------------------------------
 Center     Atomic      Atomic             Coordinates (Angstroms)
 Number     Number       Type             X           Y           Z
 ---------------------------------------------------------------------
      1          7           0       -2.868427   -3.444047    2.437309
      2          1           0       -3.807460   -3.074023    2.300250
      3          1           0       -2.666387   -4.004075    1.606765
      4          6           0       -1.905546   -2.347829    2.467026
      5          1           0       -2.358994   -1.497253    2.989100
      6          6           0       -1.442747   -1.936175    1.048532
      7          6           0       -0.648375   -2.752313    3.300750
      8          1           0        0.038053   -1.900809    3.352763
      9          1           0       -0.988651   -2.974527    4.316934
     10          8           0       -1.344010   -2.796272    0.177760
     11          6           0        0.085879   -3.936581    2.741815
     12          6           0        1.140732   -3.853887    1.917677
     13          1           0        1.620039   -3.006072    1.442711
     14          6           0       -0.239852   -5.356420    2.970209
     15          6           0        0.656302   -6.144052    2.245243
     16          6           0       -1.217864   -5.993944    3.734573
     17          1           0       -1.958145   -5.414418    4.273653
     18          7           0        1.562523   -5.227128    1.504177
     19          1           0        1.452216   -5.332398    0.485675
     20          6           0       -0.316400   -8.148349    3.015974
     21          1           0       -0.359852   -9.232110    3.046572
     22          6           0        0.664123   -7.524511    2.232300
     23          1           0        1.377087   -8.104434    1.653831
     24          6           0       -1.239569   -7.392358    3.748033
     25          1           0       -1.993738   -7.905023    4.336896
     26          7           0       -1.158460   -0.612614    0.891893
     27          1           0       -1.263840   -0.039742    1.719266
     28          6           0       -0.405955    0.021004   -0.198196
     29          1           0       -0.642346    1.089063   -0.122400
     30          6           0        1.106968   -0.160554    0.066455
     31          6           0       -0.826477   -0.452658   -1.624230
     32          1           0       -0.578158   -1.515422   -1.686286
     33          8           0        1.585744   -1.205751    0.509531
     34          6           0       -0.040828    0.269559   -2.747108
     35          1           0        1.032936    0.086454   -2.620245
     36          1           0       -0.310202   -0.227638   -3.687456
     37          6           0       -2.344371   -0.309213   -1.814380
     38          1           0       -2.687013    0.715684   -1.629488
     39          1           0       -2.615446   -0.568013   -2.843896
     40          1           0       -2.895027   -0.979306   -1.150164
     41          6           0       -0.285106    1.777020   -2.916224
     42          1           0        0.400147    2.191840   -3.663377
     43          1           0       -0.125999    2.345328   -1.988668
     44          1           0       -1.309432    1.986919   -3.240876
     45          7           0        1.880857    0.908112   -0.232981
     46          1           0        1.449282    1.753468   -0.581945
     47          6           0        3.337100    0.856748   -0.198990
     48          1           0        3.660205   -0.102571   -0.613771
     49          6           0        3.907762    0.901629    1.217278
     50          6           0        3.884641    2.015694   -1.058621
     51          1           0        3.329174    1.986911   -2.001909
     52          1           0        3.638347    2.971205   -0.577791
     53          8           0        4.946604    0.372064    1.538898
     54          6           0        5.386368    1.950293   -1.361100
     55          1           0        5.629870    0.971916   -1.799922
     56          1           0        5.973408    2.023416   -0.437392
     57          6           0        5.842246    3.061818   -2.327451
     58          1           0        5.632261    4.042127   -1.892406
     59          1           0        6.927705    2.999275   -2.461244
     60          7           0        5.226962    3.007278   -3.658857
     61          1           0        5.439127    2.154177   -4.163797
     62          7           0        3.613122    4.654346   -3.259578
     63          1           0        2.731991    5.017298   -3.607599
     64          1           0        4.344867    5.356612   -3.302284
     65          7           0        3.049177    2.905562   -4.669504
     66          1           0        3.364814    1.986901   -4.987219
     67          6           0        3.932286    3.463971   -3.917037
     68          8           0        3.163959    1.654434    2.059794
     69          1           0        2.554048   -5.399843    1.716235
     70          1           0        3.647601    1.669695    2.907996
 ---------------------------------------------------------------------

 SCF Done:  E(RB3LYP) =  -1582.08312991     A.U. after    1 cycles

 Alpha  occ. eigenvalues --  -19.28124 -19.22217 -19.21777 -19.21326 -14.60970
 Alpha  occ. eigenvalues --  -14.46334 -14.46047 -14.41609 -14.41290 -14.40403
 Alpha  occ. eigenvalues --  -14.35049 -10.40321 -10.38610 -10.38329 -10.37382
 Alpha  occ. eigenvalues --  -10.35632 -10.34505 -10.34315 -10.33454 -10.33370
 Alpha  occ. eigenvalues --  -10.33288 -10.33233 -10.32864 -10.31874 -10.31611
 Alpha  occ. eigenvalues --  -10.31423 -10.31106 -10.29407 -10.27722 -10.27518
 Alpha  occ. eigenvalues --  -10.26591 -10.25878 -10.24738 -10.24581  -1.18921
 Alpha  occ. eigenvalues --   -1.16349  -1.13731  -1.12821  -1.09871  -1.03895
 Alpha  occ. eigenvalues --   -1.02545  -1.02348  -0.99532  -0.98587  -0.95145
 Alpha  occ. eigenvalues --   -0.94656  -0.90634  -0.89806  -0.87958  -0.87904
 Alpha  occ. eigenvalues --   -0.87200  -0.84733  -0.82938  -0.81250  -0.78802
 Alpha  occ. eigenvalues --   -0.76374  -0.75413  -0.75001  -0.73473  -0.73246
 Alpha  occ. eigenvalues --   -0.71795  -0.71059  -0.69263  -0.68805  -0.67940
 Alpha  occ. eigenvalues --   -0.67146  -0.66841  -0.66484  -0.63390  -0.62752
 Alpha  occ. eigenvalues --   -0.61728  -0.61538  -0.60932  -0.60638  -0.59668
 Alpha  occ. eigenvalues --   -0.58953  -0.58168  -0.57536  -0.56357  -0.56026
 Alpha  occ. eigenvalues --   -0.55754  -0.54952  -0.54613  -0.54039  -0.53942
 Alpha  occ. eigenvalues --   -0.53540  -0.53195  -0.52976  -0.51740  -0.51274
 Alpha  occ. eigenvalues --   -0.50800  -0.50708  -0.50547  -0.50299  -0.49559
 Alpha  occ. eigenvalues --   -0.49268  -0.49142  -0.48419  -0.48239  -0.47840
 Alpha  occ. eigenvalues --   -0.47526  -0.46765  -0.46046  -0.45889  -0.45452
 Alpha  occ. eigenvalues --   -0.45041  -0.44701  -0.44138  -0.43506  -0.42651
 Alpha  occ. eigenvalues --   -0.42295  -0.42150  -0.40684  -0.40346  -0.39974
 Alpha  occ. eigenvalues --   -0.39942  -0.38520  -0.37511  -0.37304  -0.36069
 Alpha  occ. eigenvalues --   -0.35583  -0.34329  -0.34085  -0.33202  -0.33065
 Alpha  occ. eigenvalues --   -0.32058  -0.28949
 Alpha virt. eigenvalues --   -0.16450  -0.13751  -0.09803  -0.08870  -0.08464
 Alpha virt. eigenvalues --   -0.07493  -0.06507  -0.03828  -0.03369  -0.02803
 Alpha virt. eigenvalues --   -0.02054  -0.01222  -0.00904  -0.00082   0.00074

 Mulliken charges:
               1
     1  N   -0.716610
     2  H    0.321983
     3  H    0.323996
     4  C   -0.090702
     5  H    0.152781
     6  C    0.632484
     7  C   -0.338901
     8  H    0.175569
     9  H    0.185062
    10  O   -0.537694
    11  C    0.149286
    12  C   -0.096636
    13  H    0.271577
    14  C    0.148084
    15  C    0.160205
    16  C   -0.183805
    17  H    0.192143
    18  N   -0.732739
    19  H    0.430570
    20  C   -0.138490
    21  H    0.179838
    22  C   -0.154076
    23  H    0.174440
    24  C   -0.118779
    25  H    0.178470
    26  N   -0.605871
    27  H    0.337706
    28  C   -0.060104
    29  H    0.150974
    30  C    0.628992
    31  C   -0.081392
    32  H    0.171903
    33  O   -0.550531
    34  C   -0.282990
    35  H    0.136707
    36  H    0.155443
    37  C   -0.456288
    38  H    0.145894
    39  H    0.159910
    40  H    0.159123
    41  C   -0.475497
    42  H    0.198682
    43  H    0.113243
    44  H    0.162339
    45  N   -0.605272
    46  H    0.355543
    47  C   -0.004729
    48  H    0.183515
    49  C    0.595614
    50  C   -0.327779
    51  H    0.183105
    52  H    0.168328
    53  O   -0.458114
    54  C   -0.270264
    55  H    0.138103
    56  H    0.166439
    57  C   -0.154263
    58  H    0.165753
    59  H    0.165490
    60  N   -0.576606
    61  H    0.313555
    62  N   -0.737276
    63  H    0.341669
    64  H    0.331704
    65  N   -0.636081
    66  H    0.264853
    67  C    0.547303
    68  O   -0.567064
    69  H    0.421721
    70  H    0.418454
 Sum of Mulliken charges =   1.00000

 Dipole moment (field-independent basis, Debye):
    X=              5.5719    Y=            -14.1691    Z=              6.9567  Tot=             16.7394
 Quadrupole moment (field-independent basis, Debye-Ang):
   XX=           -158.6551   YY=            -55.8695   ZZ=           -171.7897
   XY=             -0.1024   XZ=            -17.3855   YZ=            -39.5210

 Normal termination of Gaussian 16 at Thu May 26 00:32:15 2022.
