 Gaussian 16, Revision C.01,
 Gaussian 16:  ES64L-G16RevC.01  3-Jul-2019

 -------------------------------------------------------------------
 # B3LYP/6-31G* guess=read geom=check nosymm integral(ultrafinegrid)
 -------------------------------------------------------------------

 ------------------------------------------------------
 Candidate Structure: Conf:828 Charge calc in gas phase
 ------------------------------------------------------
 Structure from the checkpoint file:  "conf-828.chk"
 Charge =  1 Multiplicity = 1

                          Input orientation:
 ---------------------------------------------------------------------
 Center     Atomic      Atomic             Coordinates (Angstroms)
 Number     Number       Type             X           Y           Z
 ---------------------------------------------------------------------
      1          7           0       -2.464608   -4.145140    2.660727
      2          1           0       -1.792765   -4.714765    2.152674
      3          1           0       -2.870954   -4.669195    3.429367
      4          6           0       -1.862200   -2.903542    3.085419
      5          1           0       -2.665017   -2.186822    3.305395
      6          6           0       -1.011845   -2.402962    1.894638
      7          6           0       -0.962521   -2.957812    4.398577
      8          1           0       -1.076902   -2.014303    4.943571
      9          1           0       -1.358856   -3.748629    5.044595
     10          8           0       -0.430745   -3.203474    1.176686
     11          6           0        0.488556   -3.160602    4.095542
     12          6           0        1.367073   -2.150695    3.992993
     13          1           0        1.280974   -1.089857    4.164046
     14          6           0        1.153355   -4.401154    3.663526
     15          6           0        2.444367   -4.078621    3.233624
     16          6           0        0.748733   -5.735217    3.629798
     17          1           0       -0.246787   -6.024746    3.950020
     18          7           0        2.605870   -2.617052    3.338757
     19          1           0        2.600045   -2.153559    2.385647
     20          6           0        2.939997   -6.336311    2.742978
     21          1           0        3.622706   -7.101678    2.388595
     22          6           0        3.359409   -4.999522    2.763855
     23          1           0        4.351059   -4.715473    2.425159
     24          6           0        1.655755   -6.693907    3.169008
     25          1           0        1.358466   -7.737506    3.139595
     26          7           0       -0.903977   -1.044522    1.768713
     27          1           0       -1.531339   -0.485390    2.330655
     28          6           0       -0.191205   -0.330594    0.694530
     29          1           0       -0.569766    0.697528    0.751782
     30          6           0        1.325955   -0.293869    0.985621
     31          6           0       -0.500761   -0.842230   -0.745170
     32          1           0       -0.125397   -1.866872   -0.810311
     33          8           0        2.027853   -1.312591    1.026717
     34          6           0        0.207788    0.027722   -1.820016
     35          1           0       -0.455235    0.094138   -2.690311
     36          1           0        0.310612    1.063787   -1.461665
     37          6           0       -2.019860   -0.858080   -0.976532
     38          1           0       -2.444333    0.153538   -0.923160
     39          1           0       -2.235746   -1.252259   -1.974597
     40          1           0       -2.546073   -1.490072   -0.256092
     41          6           0        1.565782   -0.501656   -2.300913
     42          1           0        1.994761    0.164731   -3.057445
     43          1           0        1.451044   -1.490790   -2.758121
     44          1           0        2.292727   -0.607401   -1.489642
     45          7           0        1.859629    0.941011    1.151621
     46          1           0        1.247142    1.744182    1.111869
     47          6           0        3.291311    1.210438    1.207855
     48          1           0        3.782246    0.588110    0.446490
     49          6           0        3.905275    0.761428    2.539684
     50          6           0        3.576875    2.694835    0.903612
     51          1           0        3.049388    3.319633    1.639174
     52          1           0        4.642538    2.878661    1.053337
     53          8           0        3.343498    0.135491    3.417985
     54          6           0        3.197945    3.122728   -0.521479
     55          1           0        2.116814    3.035926   -0.690661
     56          1           0        3.672649    2.445893   -1.246455
     57          6           0        3.608909    4.570361   -0.823895
     58          1           0        3.191467    4.870850   -1.798374
     59          1           0        3.168862    5.234572   -0.071100
     60          7           0        5.053355    4.731904   -0.762135
     61          1           0        5.554331    4.145421   -1.423621
     62          7           0        7.003877    5.973699   -0.807194
     63          1           0        7.410445    6.892547   -0.670610
     64          1           0        7.449102    5.270193   -0.227489
     65          7           0        5.018706    7.148736   -0.560805
     66          1           0        4.007387    7.070378   -0.662399
     67          6           0        5.613648    6.023493   -0.695335
     68          8           0        5.200254    1.106436    2.605861
     69          1           0        3.451459   -2.303682    3.827759
     70          1           0        5.550548    0.798044    3.463645
 ---------------------------------------------------------------------

 SCF Done:  E(RB3LYP) =  -1582.08879385     A.U. after    3 cycles

 Alpha  occ. eigenvalues --  -19.32456 -19.27327 -19.24893 -19.22107 -14.57294
 Alpha  occ. eigenvalues --  -14.49671 -14.47641 -14.42149 -14.40802 -14.39751
 Alpha  occ. eigenvalues --  -14.34672 -10.45293 -10.41986 -10.39357 -10.36751
 Alpha  occ. eigenvalues --  -10.36008 -10.35407 -10.35219 -10.34090 -10.33723
 Alpha  occ. eigenvalues --  -10.33618 -10.32603 -10.32230 -10.31354 -10.31237
 Alpha  occ. eigenvalues --  -10.31000 -10.30789 -10.30739 -10.30455 -10.29465
 Alpha  occ. eigenvalues --  -10.28715 -10.27463 -10.26058 -10.25887  -1.23685
 Alpha  occ. eigenvalues --   -1.16745  -1.14554  -1.14187  -1.13900  -1.05833
 Alpha  occ. eigenvalues --   -1.03884  -1.03509  -0.98894  -0.97805  -0.95660
 Alpha  occ. eigenvalues --   -0.93969  -0.92011  -0.90307  -0.89974  -0.87005
 Alpha  occ. eigenvalues --   -0.86669  -0.85605  -0.84182  -0.82878  -0.80599
 Alpha  occ. eigenvalues --   -0.77807  -0.76738  -0.74941  -0.73834  -0.72722
 Alpha  occ. eigenvalues --   -0.72050  -0.71743  -0.70423  -0.69962  -0.69644
 Alpha  occ. eigenvalues --   -0.68921  -0.66542  -0.65818  -0.64984  -0.63173
 Alpha  occ. eigenvalues --   -0.63021  -0.62311  -0.61539  -0.61241  -0.61127
 Alpha  occ. eigenvalues --   -0.60745  -0.59683  -0.59447  -0.57730  -0.57544
 Alpha  occ. eigenvalues --   -0.57227  -0.56742  -0.55909  -0.55403  -0.55030
 Alpha  occ. eigenvalues --   -0.54902  -0.54694  -0.53687  -0.53227  -0.52775
 Alpha  occ. eigenvalues --   -0.52543  -0.51985  -0.51887  -0.51329  -0.50892
 Alpha  occ. eigenvalues --   -0.50152  -0.49829  -0.49305  -0.49110  -0.48712
 Alpha  occ. eigenvalues --   -0.48204  -0.47874  -0.47627  -0.47277  -0.47038
 Alpha  occ. eigenvalues --   -0.45836  -0.45684  -0.45383  -0.44723  -0.44531
 Alpha  occ. eigenvalues --   -0.44451  -0.43059  -0.42475  -0.42076  -0.42038
 Alpha  occ. eigenvalues --   -0.41436  -0.41140  -0.39660  -0.38830  -0.37449
 Alpha  occ. eigenvalues --   -0.36359  -0.35373  -0.34868  -0.32661  -0.32487
 Alpha  occ. eigenvalues --   -0.31702  -0.29465
 Alpha virt. eigenvalues --   -0.15566  -0.12814  -0.12423  -0.11439  -0.08302
 Alpha virt. eigenvalues --   -0.07951  -0.06355  -0.05553  -0.03780  -0.03531
 Alpha virt. eigenvalues --   -0.02219  -0.01414  -0.01134  -0.00684   0.00184

 Mulliken charges:
               1
     1  N   -0.713653
     2  H    0.333492
     3  H    0.309566
     4  C   -0.059757
     5  H    0.157003
     6  C    0.646808
     7  C   -0.361778
     8  H    0.163358
     9  H    0.175840
    10  O   -0.512605
    11  C    0.140470
    12  C   -0.089348
    13  H    0.205575
    14  C    0.181115
    15  C    0.194592
    16  C   -0.201957
    17  H    0.155542
    18  N   -0.750113
    19  H    0.469152
    20  C   -0.139264
    21  H    0.174448
    22  C   -0.150966
    23  H    0.168110
    24  C   -0.116543
    25  H    0.172606
    26  N   -0.631281
    27  H    0.339663
    28  C   -0.050082
    29  H    0.138707
    30  C    0.673712
    31  C   -0.079330
    32  H    0.197646
    33  O   -0.575540
    34  C   -0.285502
    35  H    0.164503
    36  H    0.117528
    37  C   -0.470034
    38  H    0.141371
    39  H    0.172259
    40  H    0.163085
    41  C   -0.460108
    42  H    0.152957
    43  H    0.167051
    44  H    0.147477
    45  N   -0.591500
    46  H    0.350280
    47  C   -0.039649
    48  H    0.209699
    49  C    0.603268
    50  C   -0.309911
    51  H    0.154364
    52  H    0.209977
    53  O   -0.498485
    54  C   -0.291876
    55  H    0.140860
    56  H    0.152540
    57  C   -0.132977
    58  H    0.159309
    59  H    0.158826
    60  N   -0.607257
    61  H    0.323879
    62  N   -0.747378
    63  H    0.344984
    64  H    0.318487
    65  N   -0.629704
    66  H    0.279084
    67  C    0.574773
    68  O   -0.538842
    69  H    0.403121
    70  H    0.428355
 Sum of Mulliken charges =   1.00000

 Dipole moment (field-independent basis, Debye):
    X=              9.4832    Y=             -7.7366    Z=             13.1256  Tot=             17.9462
 Quadrupole moment (field-independent basis, Debye-Ang):
   XX=           -136.9949   YY=           -161.9766   ZZ=           -146.7554
   XY=            -19.4723   XZ=             22.5066   YZ=            -35.9707

 Normal termination of Gaussian 16 at Thu May 26 00:32:58 2022.
