 Gaussian 16, Revision C.01,
 Gaussian 16:  ES64L-G16RevC.01  3-Jul-2019

 -------------------------------------------------------------------
 # B3LYP/6-31G* guess=read geom=check nosymm integral(ultrafinegrid)
 -------------------------------------------------------------------

 ------------------------------------------------------
 Candidate Structure: Conf:302 Charge calc in gas phase
 ------------------------------------------------------
 Structure from the checkpoint file:  "conf-302.chk"
 Charge =  1 Multiplicity = 1

                          Input orientation:
 ---------------------------------------------------------------------
 Center     Atomic      Atomic             Coordinates (Angstroms)
 Number     Number       Type             X           Y           Z
 ---------------------------------------------------------------------
      1          7           0       -2.775237   -2.994235    2.781591
      2          1           0       -3.525461   -2.572771    2.236641
      3          1           0       -2.435098   -3.793384    2.246077
      4          6           0       -1.678795   -2.052005    2.967522
      5          1           0       -2.098591   -1.121581    3.371543
      6          6           0       -0.894882   -1.781008    1.659713
      7          6           0       -0.694896   -2.659075    4.007325
      8          1           0       -1.244716   -2.839747    4.934893
      9          1           0       -0.361781   -3.626207    3.618907
     10          8           0       -0.360207   -2.715243    1.072901
     11          6           0        0.485742   -1.761923    4.219365
     12          6           0        1.596665   -1.769600    3.466829
     13          1           0        1.883912   -2.376710    2.622756
     14          6           0        0.548835   -0.614103    5.139716
     15          6           0        1.719851    0.101854    4.876578
     16          6           0       -0.301264   -0.164007    6.150463
     17          1           0       -1.217621   -0.694901    6.389022
     18          7           0        2.426285   -0.578554    3.768659
     19          1           0        3.391711   -0.825037    4.018436
     20          6           0        1.242434    1.679042    6.567958
     21          1           0        1.496263    2.570425    7.132469
     22          6           0        2.103584    1.243141    5.551553
     23          1           0        3.005641    1.787299    5.296321
     24          6           0        0.062825    0.984677    6.860545
     25          1           0       -0.582482    1.345711    7.655386
     26          7           0       -0.880958   -0.478838    1.239031
     27          1           0       -1.354035    0.188125    1.833354
     28          6           0       -0.198819    0.091666    0.070169
     29          1           0       -0.738799    1.021899   -0.145949
     30          6           0        1.262363    0.449289    0.430628
     31          6           0       -0.266949   -0.801256   -1.207225
     32          1           0        0.312119   -1.701644   -0.988345
     33          8           0        2.027235   -0.349754    0.976571
     34          6           0        0.382377   -0.117716   -2.434757
     35          1           0        1.426019    0.139158   -2.211189
     36          1           0        0.434854   -0.876411   -3.225042
     37          6           0       -1.714162   -1.225651   -1.503635
     38          1           0       -2.395917   -0.368684   -1.558378
     39          1           0       -1.756148   -1.743929   -2.467896
     40          1           0       -2.090500   -1.916876   -0.747239
     41          6           0       -0.342727    1.112886   -2.997996
     42          1           0        0.197831    1.511926   -3.862853
     43          1           0       -0.433701    1.930053   -2.268993
     44          1           0       -1.355633    0.869314   -3.333105
     45          7           0        1.668661    1.702295    0.092630
     46          1           0        1.011345    2.320481   -0.363452
     47          6           0        3.064235    2.126744    0.110191
     48          1           0        3.674713    1.311121   -0.305370
     49          6           0        3.587675    2.305402    1.540195
     50          6           0        3.264742    3.391632   -0.748270
     51          1           0        2.601973    4.185804   -0.374864
     52          1           0        4.285145    3.750598   -0.602697
     53          8           0        3.032396    1.944338    2.562395
     54          6           0        3.033458    3.173074   -2.250046
     55          1           0        1.992409    2.898807   -2.459483
     56          1           0        3.646672    2.328243   -2.596428
     57          6           0        3.367999    4.421824   -3.077645
     58          1           0        3.051294    4.262523   -4.120995
     59          1           0        2.790120    5.271720   -2.696502
     60          7           0        4.777743    4.764819   -2.969876
     61          1           0        5.398672    4.028117   -3.292674
     62          7           0        6.619773    6.108050   -3.359159
     63          1           0        6.935781    7.047218   -3.574390
     64          1           0        7.044174    5.748434   -2.510774
     65          7           0        4.535950    7.041983   -3.768642
     66          1           0        3.553013    6.811163   -3.909352
     67          6           0        5.226317    6.033587   -3.387915
     68          8           0        4.801009    2.875369    1.543580
     69          1           0        2.480458    0.019543    2.909941
     70          1           0        5.102090    2.936458    2.470339
 ---------------------------------------------------------------------

 SCF Done:  E(RB3LYP) =  -1582.09415815     A.U. after    1 cycles

 Alpha  occ. eigenvalues --  -19.32624 -19.27496 -19.24151 -19.21454 -14.58394
 Alpha  occ. eigenvalues --  -14.48969 -14.47344 -14.42100 -14.41333 -14.39732
 Alpha  occ. eigenvalues --  -14.34639 -10.45431 -10.41163 -10.38653 -10.36675
 Alpha  occ. eigenvalues --  -10.36615 -10.35524 -10.34999 -10.34057 -10.33803
 Alpha  occ. eigenvalues --  -10.33276 -10.33232 -10.32778 -10.31880 -10.31655
 Alpha  occ. eigenvalues --  -10.31452 -10.30709 -10.30358 -10.30243 -10.29281
 Alpha  occ. eigenvalues --  -10.28842 -10.27668 -10.26975 -10.25980  -1.23876
 Alpha  occ. eigenvalues --   -1.16147  -1.14743  -1.14449  -1.13366  -1.05192
 Alpha  occ. eigenvalues --   -1.03844  -1.03170  -0.99159  -0.98463  -0.95604
 Alpha  occ. eigenvalues --   -0.94357  -0.91818  -0.90310  -0.89940  -0.87605
 Alpha  occ. eigenvalues --   -0.86903  -0.85453  -0.84444  -0.83239  -0.80465
 Alpha  occ. eigenvalues --   -0.77716  -0.76276  -0.75220  -0.73959  -0.73362
 Alpha  occ. eigenvalues --   -0.72711  -0.71420  -0.70910  -0.70237  -0.69588
 Alpha  occ. eigenvalues --   -0.68556  -0.66808  -0.64938  -0.64686  -0.63184
 Alpha  occ. eigenvalues --   -0.62959  -0.62174  -0.61727  -0.61514  -0.60841
 Alpha  occ. eigenvalues --   -0.60704  -0.60085  -0.59608  -0.57701  -0.57270
 Alpha  occ. eigenvalues --   -0.57229  -0.56818  -0.56310  -0.55691  -0.55409
 Alpha  occ. eigenvalues --   -0.55180  -0.54255  -0.53750  -0.53467  -0.53048
 Alpha  occ. eigenvalues --   -0.52518  -0.51844  -0.51389  -0.51090  -0.50697
 Alpha  occ. eigenvalues --   -0.50292  -0.49929  -0.49610  -0.49430  -0.48576
 Alpha  occ. eigenvalues --   -0.47941  -0.47715  -0.47473  -0.47235  -0.47077
 Alpha  occ. eigenvalues --   -0.46157  -0.45656  -0.45417  -0.45137  -0.44647
 Alpha  occ. eigenvalues --   -0.44395  -0.43062  -0.42429  -0.42159  -0.41859
 Alpha  occ. eigenvalues --   -0.41744  -0.41243  -0.38915  -0.38388  -0.38098
 Alpha  occ. eigenvalues --   -0.36551  -0.35581  -0.35230  -0.32682  -0.32620
 Alpha  occ. eigenvalues --   -0.31676  -0.29432
 Alpha virt. eigenvalues --   -0.16091  -0.13473  -0.12575  -0.10862  -0.08219
 Alpha virt. eigenvalues --   -0.07782  -0.06548  -0.05751  -0.04729  -0.03560
 Alpha virt. eigenvalues --   -0.02204  -0.01434  -0.01089  -0.00206   0.00335

 Mulliken charges:
               1
     1  N   -0.695576
     2  H    0.315747
     3  H    0.325179
     4  C   -0.068210
     5  H    0.133624
     6  C    0.629911
     7  C   -0.341365
     8  H    0.185864
     9  H    0.192967
    10  O   -0.529270
    11  C    0.122508
    12  C   -0.062378
    13  H    0.239909
    14  C    0.143016
    15  C    0.166287
    16  C   -0.209011
    17  H    0.174443
    18  N   -0.757033
    19  H    0.406642
    20  C   -0.145324
    21  H    0.174121
    22  C   -0.136333
    23  H    0.168426
    24  C   -0.117212
    25  H    0.175041
    26  N   -0.624962
    27  H    0.335912
    28  C   -0.041366
    29  H    0.143166
    30  C    0.635837
    31  C   -0.086373
    32  H    0.192386
    33  O   -0.562181
    34  C   -0.286930
    35  H    0.134760
    36  H    0.165207
    37  C   -0.464127
    38  H    0.142730
    39  H    0.166031
    40  H    0.164263
    41  C   -0.457021
    42  H    0.165405
    43  H    0.114935
    44  H    0.173212
    45  N   -0.595045
    46  H    0.351041
    47  C   -0.039604
    48  H    0.207273
    49  C    0.615638
    50  C   -0.310657
    51  H    0.154275
    52  H    0.209723
    53  O   -0.503785
    54  C   -0.298940
    55  H    0.149520
    56  H    0.149470
    57  C   -0.132815
    58  H    0.158269
    59  H    0.158734
    60  N   -0.607114
    61  H    0.323743
    62  N   -0.747399
    63  H    0.344734
    64  H    0.318202
    65  N   -0.630256
    66  H    0.279057
    67  C    0.574864
    68  O   -0.535835
    69  H    0.477581
    70  H    0.426471
 Sum of Mulliken charges =   1.00000

 Dipole moment (field-independent basis, Debye):
    X=              7.7767    Y=              3.5146    Z=             12.8757  Tot=             15.4471
 Quadrupole moment (field-independent basis, Debye-Ang):
   XX=           -142.3486   YY=           -204.1953   ZZ=           -124.7417
   XY=             11.0048   XZ=             27.3437   YZ=             16.3079

 Normal termination of Gaussian 16 at Thu May 26 00:32:17 2022.
