 Gaussian 16, Revision C.01,
 Gaussian 16:  ES64L-G16RevC.01  3-Jul-2019

 -------------------------------------------------------------------
 # B3LYP/6-31G* guess=read geom=check nosymm integral(ultrafinegrid)
 -------------------------------------------------------------------

 ------------------------------------------------------
 Candidate Structure: Conf:779 Charge calc in gas phase
 ------------------------------------------------------
 Structure from the checkpoint file:  "conf-779.chk"
 Charge =  1 Multiplicity = 1

                          Input orientation:
 ---------------------------------------------------------------------
 Center     Atomic      Atomic             Coordinates (Angstroms)
 Number     Number       Type             X           Y           Z
 ---------------------------------------------------------------------
      1          7           0       -1.440675   -3.508051    2.221289
      2          1           0       -2.329073   -3.545408    1.722954
      3          1           0       -0.772033   -4.012817    1.635513
      4          6           0       -0.976369   -2.121406    2.314490
      5          1           0       -1.824380   -1.491693    2.610244
      6          6           0       -0.349413   -1.650380    0.984732
      7          6           0        0.130628   -2.016890    3.398694
      8          1           0        0.995226   -2.586688    3.040777
      9          1           0        0.455516   -0.974161    3.487151
     10          8           0        0.544555   -2.322296    0.482574
     11          6           0       -0.303332   -2.540405    4.736249
     12          6           0       -0.838242   -1.806588    5.727364
     13          1           0       -1.070235   -0.755279    5.816109
     14          6           0       -0.196715   -3.939155    5.192381
     15          6           0       -0.688994   -4.032503    6.493863
     16          6           0        0.304102   -5.092868    4.589518
     17          1           0        0.693073   -5.069086    3.578435
     18          7           0       -1.142733   -2.674807    6.905177
     19          1           0       -0.650463   -2.349321    7.748461
     20          6           0       -0.223944   -6.337917    6.622914
     21          1           0       -0.227054   -7.278735    7.163339
     22          6           0       -0.730573   -5.189726    7.246107
     23          1           0       -1.124623   -5.223860    8.257376
     24          6           0        0.285294   -6.284545    5.319530
     25          1           0        0.672037   -7.191107    4.865132
     26          7           0       -0.808472   -0.484273    0.454280
     27          1           0       -1.664987   -0.098686    0.828886
     28          6           0       -0.355203    0.025519   -0.855398
     29          1           0       -0.750487    1.048814   -0.895246
     30          6           0        1.194432    0.161232   -0.845642
     31          6           0       -0.867795   -0.749414   -2.107695
     32          1           0       -0.040621   -1.379523   -2.448633
     33          8           0        1.895928   -0.184004   -1.782163
     34          6           0       -1.239299    0.229048   -3.248208
     35          1           0       -1.597446   -0.375084   -4.091598
     36          1           0       -2.103892    0.829956   -2.923617
     37          6           0       -2.075500   -1.649913   -1.806623
     38          1           0       -2.930791   -1.079238   -1.419888
     39          1           0       -2.405571   -2.138476   -2.729245
     40          1           0       -1.833648   -2.441956   -1.091378
     41          6           0       -0.132901    1.161506   -3.754688
     42          1           0       -0.500119    1.749229   -4.603305
     43          1           0        0.746759    0.598392   -4.077438
     44          1           0        0.199402    1.872539   -2.989058
     45          7           0        1.693393    0.763266    0.274509
     46          1           0        1.068924    1.008467    1.028896
     47          6           0        3.124328    0.929158    0.487018
     48          1           0        3.632851    0.210597   -0.159551
     49          6           0        3.500923    0.587760    1.919943
     50          6           0        3.598042    2.360091    0.122276
     51          1           0        3.289947    2.521441   -0.918048
     52          1           0        3.039590    3.081339    0.734855
     53          8           0        4.544884    0.101214    2.276792
     54          6           0        5.106162    2.595380    0.269827
     55          1           0        5.658499    1.838566   -0.303264
     56          1           0        5.416516    2.475892    1.313721
     57          6           0        5.518628    3.998293   -0.215086
     58          1           0        5.333913    4.092483   -1.291661
     59          1           0        4.900067    4.764362    0.268485
     60          7           0        6.911238    4.337332    0.027318
     61          1           0        7.576782    3.795375   -0.512327
     62          7           0        8.762219    4.713995    1.363555
     63          1           0        9.064801    5.069065    2.263909
     64          1           0        9.178581    5.236537    0.599316
     65          7           0        6.680460    4.857272    2.377277
     66          1           0        5.690888    4.657769    2.233347
     67          6           0        7.366518    4.644633    1.311815
     68          8           0        2.533872    0.960424    2.818736
     69          1           0       -2.147978   -2.663867    7.127145
     70          1           0        2.927526    0.799018    3.697363
 ---------------------------------------------------------------------

 SCF Done:  E(RB3LYP) =  -1582.06165475     A.U. after    1 cycles

 Alpha  occ. eigenvalues --  -19.28793 -19.22497 -19.21728 -19.18769 -14.63692
 Alpha  occ. eigenvalues --  -14.46725 -14.43554 -14.43083 -14.39447 -14.37645
 Alpha  occ. eigenvalues --  -14.32384 -10.40441 -10.39522 -10.39263 -10.38659
 Alpha  occ. eigenvalues --  -10.37507 -10.36320 -10.35538 -10.35241 -10.34801
 Alpha  occ. eigenvalues --  -10.33719 -10.33712 -10.33210 -10.32685 -10.31963
 Alpha  occ. eigenvalues --  -10.31898 -10.31461 -10.27653 -10.26365 -10.25931
 Alpha  occ. eigenvalues --  -10.24822 -10.24640 -10.24407 -10.22605  -1.19155
 Alpha  occ. eigenvalues --   -1.18965  -1.13835  -1.10842  -1.10148  -1.02632
 Alpha  occ. eigenvalues --   -1.01565  -1.01529  -1.00405  -0.99982  -0.97019
 Alpha  occ. eigenvalues --   -0.92923  -0.90013  -0.89220  -0.88199  -0.87831
 Alpha  occ. eigenvalues --   -0.86804  -0.86716  -0.82019  -0.80113  -0.78676
 Alpha  occ. eigenvalues --   -0.78119  -0.76954  -0.75866  -0.75348  -0.74000
 Alpha  occ. eigenvalues --   -0.71622  -0.69900  -0.69752  -0.69306  -0.68499
 Alpha  occ. eigenvalues --   -0.66561  -0.65956  -0.64725  -0.63847  -0.63147
 Alpha  occ. eigenvalues --   -0.62879  -0.62091  -0.61466  -0.60575  -0.59766
 Alpha  occ. eigenvalues --   -0.58924  -0.58352  -0.57656  -0.56699  -0.56348
 Alpha  occ. eigenvalues --   -0.56091  -0.55515  -0.54904  -0.54473  -0.53866
 Alpha  occ. eigenvalues --   -0.53745  -0.53283  -0.52581  -0.51421  -0.51292
 Alpha  occ. eigenvalues --   -0.50585  -0.50346  -0.49880  -0.49529  -0.49192
 Alpha  occ. eigenvalues --   -0.48860  -0.48302  -0.47906  -0.47849  -0.47600
 Alpha  occ. eigenvalues --   -0.47149  -0.46939  -0.46508  -0.46142  -0.44584
 Alpha  occ. eigenvalues --   -0.44086  -0.43397  -0.42866  -0.42003  -0.41873
 Alpha  occ. eigenvalues --   -0.41059  -0.40560  -0.40412  -0.39955  -0.39641
 Alpha  occ. eigenvalues --   -0.39281  -0.38471  -0.38286  -0.37234  -0.36455
 Alpha  occ. eigenvalues --   -0.35974  -0.34124  -0.32714  -0.32002  -0.30179
 Alpha  occ. eigenvalues --   -0.29643  -0.26774
 Alpha virt. eigenvalues --   -0.18940  -0.15662  -0.12298  -0.10878  -0.08120
 Alpha virt. eigenvalues --   -0.07854  -0.06181  -0.05902  -0.05076  -0.04336
 Alpha virt. eigenvalues --   -0.02762  -0.02400  -0.01505  -0.00722   0.00711

 Mulliken charges:
               1
     1  N   -0.724806
     2  H    0.323617
     3  H    0.328811
     4  C   -0.069566
     5  H    0.135171
     6  C    0.629478
     7  C   -0.378716
     8  H    0.204906
     9  H    0.178120
    10  O   -0.514412
    11  C    0.213999
    12  C   -0.124598
    13  H    0.214415
    14  C    0.180082
    15  C    0.149069
    16  C   -0.178804
    17  H    0.184908
    18  N   -0.725881
    19  H    0.426725
    20  C   -0.136459
    21  H    0.188499
    22  C   -0.150693
    23  H    0.180825
    24  C   -0.116844
    25  H    0.187361
    26  N   -0.636287
    27  H    0.332601
    28  C   -0.055437
    29  H    0.165418
    30  C    0.644119
    31  C   -0.074067
    32  H    0.184873
    33  O   -0.505889
    34  C   -0.265778
    35  H    0.147460
    36  H    0.121673
    37  C   -0.463677
    38  H    0.124052
    39  H    0.166506
    40  H    0.137624
    41  C   -0.449086
    42  H    0.149632
    43  H    0.178640
    44  H    0.131019
    45  N   -0.620762
    46  H    0.334829
    47  C   -0.032917
    48  H    0.215327
    49  C    0.587105
    50  C   -0.273298
    51  H    0.171654
    52  H    0.139827
    53  O   -0.439924
    54  C   -0.279926
    55  H    0.151034
    56  H    0.168766
    57  C   -0.156066
    58  H    0.155785
    59  H    0.154641
    60  N   -0.586961
    61  H    0.323396
    62  N   -0.750555
    63  H    0.337767
    64  H    0.321847
    65  N   -0.648449
    66  H    0.264849
    67  C    0.580908
    68  O   -0.596913
    69  H    0.427418
    70  H    0.412016
 Sum of Mulliken charges =   1.00000

 Dipole moment (field-independent basis, Debye):
    X=             -7.1936    Y=            -11.3131    Z=             26.2546  Tot=             29.4795
 Quadrupole moment (field-independent basis, Debye-Ang):
   XX=           -184.0740   YY=           -134.3264   ZZ=             -8.5396
   XY=             20.4772   XZ=            -45.0319   YZ=           -100.2498

 Normal termination of Gaussian 16 at Thu May 26 00:32:18 2022.
