 Gaussian 16, Revision C.01,
 Gaussian 16:  ES64L-G16RevC.01  3-Jul-2019

 -------------------------------------------------------------------
 # B3LYP/6-31G* guess=read geom=check nosymm integral(ultrafinegrid)
 -------------------------------------------------------------------

 ------------------------------------------------------
 Candidate Structure: Conf:746 Charge calc in gas phase
 ------------------------------------------------------
 Structure from the checkpoint file:  "conf-746.chk"
 Charge =  1 Multiplicity = 1

                          Input orientation:
 ---------------------------------------------------------------------
 Center     Atomic      Atomic             Coordinates (Angstroms)
 Number     Number       Type             X           Y           Z
 ---------------------------------------------------------------------
      1          7           0       -1.904731   -3.490042    2.983658
      2          1           0       -1.777736   -4.120801    2.196771
      3          1           0       -2.151409   -4.018490    3.816221
      4          6           0       -0.732878   -2.662227    3.170400
      5          1           0       -0.964887   -1.918705    3.942076
      6          6           0       -0.424024   -1.988740    1.823852
      7          6           0        0.577050   -3.385932    3.666902
      8          1           0        1.381145   -2.645335    3.740557
      9          1           0        0.377767   -3.749403    4.681401
     10          8           0       -0.159303   -2.706562    0.861611
     11          6           0        1.030198   -4.537299    2.819372
     12          6           0        0.538103   -5.788121    2.897832
     13          1           0       -0.215182   -6.241138    3.524538
     14          6           0        2.101698   -4.515979    1.804542
     15          6           0        2.251830   -5.798617    1.278612
     16          6           0        2.930713   -3.499159    1.329484
     17          1           0        2.819930   -2.472763    1.663712
     18          7           0        1.239650   -6.679002    1.925156
     19          1           0        1.675491   -7.481943    2.398003
     20          6           0        4.008607   -5.132495   -0.139424
     21          1           0        4.757816   -5.353839   -0.892599
     22          6           0        3.172415   -6.160536    0.315594
     23          1           0        3.256127   -7.171604   -0.071705
     24          6           0        3.881955   -3.830751    0.359439
     25          1           0        4.534201   -3.051801   -0.022566
     26          7           0       -0.486618   -0.631142    1.820716
     27          1           0       -0.695153   -0.206092    2.714604
     28          6           0        0.108426    0.292861    0.844906
     29          1           0       -0.440106    1.236667    0.965839
     30          6           0        1.574297    0.524461    1.278882
     31          6           0       -0.067882   -0.140207   -0.639356
     32          1           0        0.394254   -1.123867   -0.751212
     33          8           0        2.301462   -0.395143    1.655291
     34          6           0        0.620538    0.846885   -1.616973
     35          1           0        0.036805    0.862458   -2.544966
     36          1           0        0.566066    1.874292   -1.229241
     37          6           0       -1.565705   -0.271067   -0.958112
     38          1           0       -2.074453    0.698766   -0.880909
     39          1           0       -1.697391   -0.631991   -1.983592
     40          1           0       -2.067334   -0.975362   -0.289525
     41          6           0        2.070095    0.493090   -1.974682
     42          1           0        2.497143    1.242963   -2.649455
     43          1           0        2.112624   -0.476273   -2.485326
     44          1           0        2.718115    0.427153   -1.094770
     45          7           0        2.005611    1.808244    1.249024
     46          1           0        1.362708    2.552434    1.014932
     47          6           0        3.361010    2.171937    1.643885
     48          1           0        4.068885    1.537530    1.101912
     49          6           0        3.631294    1.910134    3.126148
     50          6           0        3.607842    3.655483    1.295836
     51          1           0        3.291140    3.798338    0.256265
     52          1           0        2.953662    4.284833    1.912867
     53          8           0        4.717938    1.627608    3.573882
     54          6           0        5.067003    4.105309    1.449524
     55          1           0        5.709293    3.487601    0.805383
     56          1           0        5.415289    3.935363    2.475430
     57          6           0        5.283055    5.590730    1.103589
     58          1           0        4.671750    6.216023    1.759170
     59          1           0        6.328682    5.853214    1.299830
     60          7           0        4.987750    5.954400   -0.285081
     61          1           0        5.570684    5.474037   -0.961021
     62          7           0        2.860706    6.837147    0.144602
     63          1           0        1.996152    7.097392   -0.318803
     64          1           0        3.299023    7.644162    0.578155
     65          7           0        3.217506    5.816827   -1.903297
     66          1           0        3.881949    5.232431   -2.415347
     67          6           0        3.691689    6.166313   -0.760839
     68          8           0        2.538402    2.107232    3.902774
     69          1           0        0.585037   -7.063229    1.229864
     70          1           0        2.840480    1.980900    4.822598
 ---------------------------------------------------------------------

 SCF Done:  E(RB3LYP) =  -1582.06943643     A.U. after    1 cycles

 Alpha  occ. eigenvalues --  -19.27567 -19.21598 -19.21162 -19.21076 -14.61899
 Alpha  occ. eigenvalues --  -14.46062 -14.45592 -14.42078 -14.40771 -14.39547
 Alpha  occ. eigenvalues --  -14.33954 -10.39732 -10.38454 -10.37968 -10.37522
 Alpha  occ. eigenvalues --  -10.37302 -10.35722 -10.33643 -10.33508 -10.33448
 Alpha  occ. eigenvalues --  -10.33324 -10.32921 -10.32285 -10.31796 -10.31542
 Alpha  occ. eigenvalues --  -10.31069 -10.30906 -10.28671 -10.27173 -10.27099
 Alpha  occ. eigenvalues --  -10.25863 -10.25690 -10.24473 -10.24392  -1.18342
 Alpha  occ. eigenvalues --   -1.17152  -1.13352  -1.12524  -1.09274  -1.02985
 Alpha  occ. eigenvalues --   -1.02245  -1.01882  -0.99849  -0.98973  -0.95205
 Alpha  occ. eigenvalues --   -0.94315  -0.89758  -0.89384  -0.87922  -0.87387
 Alpha  occ. eigenvalues --   -0.87129  -0.85365  -0.82622  -0.80973  -0.78892
 Alpha  occ. eigenvalues --   -0.76561  -0.75744  -0.74618  -0.74124  -0.73753
 Alpha  occ. eigenvalues --   -0.70838  -0.70527  -0.69517  -0.68251  -0.67870
 Alpha  occ. eigenvalues --   -0.67580  -0.66270  -0.65621  -0.63931  -0.62944
 Alpha  occ. eigenvalues --   -0.62664  -0.61328  -0.61053  -0.60015  -0.59292
 Alpha  occ. eigenvalues --   -0.58321  -0.58115  -0.57026  -0.56668  -0.56018
 Alpha  occ. eigenvalues --   -0.55369  -0.55270  -0.54829  -0.54300  -0.53728
 Alpha  occ. eigenvalues --   -0.53226  -0.52513  -0.52076  -0.51556  -0.51063
 Alpha  occ. eigenvalues --   -0.50206  -0.50039  -0.49842  -0.49759  -0.49451
 Alpha  occ. eigenvalues --   -0.49075  -0.48678  -0.48341  -0.48158  -0.47669
 Alpha  occ. eigenvalues --   -0.47432  -0.47071  -0.46616  -0.46023  -0.45063
 Alpha  occ. eigenvalues --   -0.44205  -0.43917  -0.43444  -0.43347  -0.42908
 Alpha  occ. eigenvalues --   -0.41648  -0.41400  -0.40606  -0.40167  -0.39649
 Alpha  occ. eigenvalues --   -0.39354  -0.38272  -0.36955  -0.36738  -0.35991
 Alpha  occ. eigenvalues --   -0.35045  -0.33852  -0.33796  -0.33156  -0.32033
 Alpha  occ. eigenvalues --   -0.31215  -0.28032
 Alpha virt. eigenvalues --   -0.17023  -0.13627  -0.10761  -0.09160  -0.08508
 Alpha virt. eigenvalues --   -0.06819  -0.05854  -0.04589  -0.03542  -0.03091
 Alpha virt. eigenvalues --   -0.02664  -0.00942  -0.00379  -0.00309   0.00089

 Mulliken charges:
               1
     1  N   -0.703029
     2  H    0.317860
     3  H    0.308337
     4  C   -0.059512
     5  H    0.153899
     6  C    0.661419
     7  C   -0.391563
     8  H    0.195018
     9  H    0.175656
    10  O   -0.539440
    11  C    0.215194
    12  C   -0.136176
    13  H    0.203655
    14  C    0.162959
    15  C    0.150410
    16  C   -0.187723
    17  H    0.240040
    18  N   -0.724368
    19  H    0.421502
    20  C   -0.136606
    21  H    0.178120
    22  C   -0.156178
    23  H    0.172090
    24  C   -0.134721
    25  H    0.177323
    26  N   -0.601972
    27  H    0.341934
    28  C   -0.070072
    29  H    0.149021
    30  C    0.646583
    31  C   -0.076510
    32  H    0.179157
    33  O   -0.547276
    34  C   -0.276102
    35  H    0.157788
    36  H    0.126679
    37  C   -0.460347
    38  H    0.144054
    39  H    0.158537
    40  H    0.164454
    41  C   -0.459677
    42  H    0.157586
    43  H    0.149845
    44  H    0.150590
    45  N   -0.613625
    46  H    0.348242
    47  C    0.003266
    48  H    0.188067
    49  C    0.598990
    50  C   -0.325516
    51  H    0.178466
    52  H    0.168231
    53  O   -0.456520
    54  C   -0.271928
    55  H    0.138997
    56  H    0.167370
    57  C   -0.152363
    58  H    0.163316
    59  H    0.162882
    60  N   -0.579746
    61  H    0.312745
    62  N   -0.741128
    63  H    0.339737
    64  H    0.328435
    65  N   -0.636220
    66  H    0.262693
    67  C    0.549429
    68  O   -0.573708
    69  H    0.425042
    70  H    0.416410
 Sum of Mulliken charges =   1.00000

 Dipole moment (field-independent basis, Debye):
    X=              7.6496    Y=            -18.0230    Z=             10.6846  Tot=             22.3049
 Quadrupole moment (field-independent basis, Debye-Ang):
   XX=           -170.7052   YY=             -8.8225   ZZ=           -162.4140
   XY=            -11.4598   XZ=             -3.1591   YZ=            -29.0969

 Normal termination of Gaussian 16 at Thu May 26 00:32:20 2022.
