 Gaussian 16, Revision C.01,
 Gaussian 16:  ES64L-G16RevC.01  3-Jul-2019

 -------------------------------------------------------------------
 # B3LYP/6-31G* guess=read geom=check nosymm integral(ultrafinegrid)
 -------------------------------------------------------------------

 ------------------------------------------------------
 Candidate Structure: Conf:950 Charge calc in gas phase
 ------------------------------------------------------
 Structure from the checkpoint file:  "conf-950.chk"
 Charge =  1 Multiplicity = 1

                          Input orientation:
 ---------------------------------------------------------------------
 Center     Atomic      Atomic             Coordinates (Angstroms)
 Number     Number       Type             X           Y           Z
 ---------------------------------------------------------------------
      1          7           0       -2.812902   -3.174387    2.916054
      2          1           0       -3.123890   -3.429941    3.851548
      3          1           0       -3.466101   -2.476293    2.566407
      4          6           0       -1.452531   -2.648596    2.957616
      5          1           0       -1.324737   -1.778933    3.631894
      6          6           0       -1.024545   -2.242338    1.523543
      7          6           0       -0.510775   -3.786387    3.438441
      8          1           0       -0.810943   -4.097313    4.445949
      9          1           0       -0.669321   -4.629093    2.762137
     10          8           0       -0.791235   -3.086516    0.672400
     11          6           0        0.927558   -3.360784    3.418435
     12          6           0        1.744280   -3.490138    2.361915
     13          1           0        1.567679   -3.893290    1.376708
     14          6           0        1.633145   -2.596318    4.461810
     15          6           0        2.885009   -2.218402    3.967798
     16          6           0        1.288992   -2.228498    5.763636
     17          1           0        0.328900   -2.504972    6.188060
     18          7           0        2.990417   -2.714414    2.578470
     19          1           0        3.848061   -3.253908    2.410552
     20          6           0        3.468019   -1.154097    5.994799
     21          1           0        4.174569   -0.605656    6.609834
     22          6           0        3.828062   -1.507824    4.685909
     23          1           0        4.783517   -1.222693    4.259312
     24          6           0        2.219175   -1.508580    6.519993
     25          1           0        1.971722   -1.224993    7.538313
     26          7           0       -0.940645   -0.886930    1.324972
     27          1           0       -1.106648   -0.306548    2.136321
     28          6           0       -0.344859   -0.193942    0.175490
     29          1           0       -0.740532    0.829881    0.213710
     30          6           0        1.179373   -0.118185    0.391215
     31          6           0       -0.754186   -0.777168   -1.212401
     32          1           0       -0.428482   -1.819472   -1.235129
     33          8           0        1.835237   -1.101436    0.763603
     34          6           0       -0.080471   -0.014190   -2.382223
     35          1           0       -0.771989   -0.026298   -3.232523
     36          1           0        0.038137    1.050478   -2.128877
     37          6           0       -2.284432   -0.745333   -1.345971
     38          1           0       -2.665694    0.284405   -1.337116
     39          1           0       -2.581532   -1.200296   -2.296164
     40          1           0       -2.777878   -1.302547   -0.545808
     41          6           0        1.256419   -0.602636   -2.853184
     42          1           0        1.677589   -0.007604   -3.670828
     43          1           0        1.114507   -1.623288   -3.225646
     44          1           0        2.005603   -0.651797   -2.055709
     45          7           0        1.781190    1.071456    0.177274
     46          1           0        1.235080    1.881824   -0.079987
     47          6           0        3.228093    1.206844    0.326526
     48          1           0        3.706700    0.425452   -0.270890
     49          6           0        3.658269    0.896464    1.763708
     50          6           0        3.736466    2.574206   -0.175159
     51          1           0        4.823793    2.589335   -0.042791
     52          1           0        3.554903    2.602925   -1.258154
     53          8           0        4.592420    0.174762    2.047175
     54          6           0        3.144917    3.830802    0.479281
     55          1           0        3.247506    3.775999    1.569644
     56          1           0        2.066966    3.914837    0.278527
     57          6           0        3.813359    5.115421   -0.035711
     58          1           0        3.741676    5.176702   -1.124238
     59          1           0        3.271757    5.986022    0.364425
     60          7           0        5.236492    5.161878    0.320183
     61          1           0        5.380517    5.361861    1.304737
     62          7           0        6.000489    5.668664   -1.840424
     63          1           0        6.742823    6.135492   -2.350807
     64          1           0        5.926286    4.691429   -2.105114
     65          7           0        7.093832    6.647356   -0.047493
     66          1           0        7.008356    6.835751    0.953322
     67          6           0        6.161509    5.877886   -0.468017
     68          8           0        2.894025    1.509357    2.690864
     69          1           0        2.955199   -1.924268    1.887336
     70          1           0        3.253472    1.263795    3.565466
 ---------------------------------------------------------------------

 SCF Done:  E(RB3LYP) =  -1582.08300447     A.U. after    1 cycles

 Alpha  occ. eigenvalues --  -19.31899 -19.26204 -19.25296 -19.21723 -14.58835
 Alpha  occ. eigenvalues --  -14.49439 -14.47441 -14.42192 -14.41889 -14.40208
 Alpha  occ. eigenvalues --  -14.34836 -10.44280 -10.41863 -10.39188 -10.37383
 Alpha  occ. eigenvalues --  -10.36113 -10.35952 -10.35344 -10.34274 -10.34271
 Alpha  occ. eigenvalues --  -10.33947 -10.33885 -10.33404 -10.32628 -10.32435
 Alpha  occ. eigenvalues --  -10.32226 -10.30879 -10.30387 -10.30331 -10.28970
 Alpha  occ. eigenvalues --  -10.28837 -10.27562 -10.26147 -10.25960  -1.22806
 Alpha  occ. eigenvalues --   -1.17018  -1.15130  -1.13720  -1.13664  -1.05591
 Alpha  occ. eigenvalues --   -1.03877  -1.03445  -0.99681  -0.99086  -0.95571
 Alpha  occ. eigenvalues --   -0.94846  -0.91798  -0.90661  -0.89794  -0.88297
 Alpha  occ. eigenvalues --   -0.87489  -0.85269  -0.84640  -0.83184  -0.80544
 Alpha  occ. eigenvalues --   -0.77507  -0.76711  -0.75658  -0.73822  -0.73323
 Alpha  occ. eigenvalues --   -0.72874  -0.72021  -0.71083  -0.69966  -0.69109
 Alpha  occ. eigenvalues --   -0.68991  -0.67355  -0.66724  -0.65840  -0.63811
 Alpha  occ. eigenvalues --   -0.62869  -0.62300  -0.61425  -0.60932  -0.60757
 Alpha  occ. eigenvalues --   -0.60618  -0.59799  -0.59098  -0.58040  -0.57754
 Alpha  occ. eigenvalues --   -0.57214  -0.56983  -0.56740  -0.56405  -0.55579
 Alpha  occ. eigenvalues --   -0.54410  -0.54122  -0.53609  -0.53334  -0.52589
 Alpha  occ. eigenvalues --   -0.52124  -0.51725  -0.51585  -0.51416  -0.50914
 Alpha  occ. eigenvalues --   -0.50680  -0.50518  -0.50324  -0.49544  -0.49027
 Alpha  occ. eigenvalues --   -0.48607  -0.48147  -0.47983  -0.47292  -0.46691
 Alpha  occ. eigenvalues --   -0.46435  -0.45814  -0.45552  -0.44704  -0.44381
 Alpha  occ. eigenvalues --   -0.43596  -0.42888  -0.42665  -0.42264  -0.42124
 Alpha  occ. eigenvalues --   -0.41447  -0.40944  -0.39802  -0.39018  -0.38088
 Alpha  occ. eigenvalues --   -0.36473  -0.36017  -0.34928  -0.33625  -0.33119
 Alpha  occ. eigenvalues --   -0.31817  -0.29350
 Alpha virt. eigenvalues --   -0.16634  -0.14297  -0.12215  -0.11059  -0.08917
 Alpha virt. eigenvalues --   -0.08227  -0.06821  -0.05571  -0.04201  -0.03773
 Alpha virt. eigenvalues --   -0.02727  -0.02021  -0.01303  -0.00653  -0.00154

 Mulliken charges:
               1
     1  N   -0.700251
     2  H    0.315499
     3  H    0.316563
     4  C   -0.057028
     5  H    0.108375
     6  C    0.642716
     7  C   -0.349313
     8  H    0.163638
     9  H    0.217225
    10  O   -0.506713
    11  C    0.129223
    12  C   -0.058549
    13  H    0.239172
    14  C    0.147658
    15  C    0.166757
    16  C   -0.207911
    17  H    0.168642
    18  N   -0.743069
    19  H    0.413996
    20  C   -0.156977
    21  H    0.177449
    22  C   -0.173074
    23  H    0.198378
    24  C   -0.115467
    25  H    0.176145
    26  N   -0.617379
    27  H    0.335593
    28  C   -0.059934
    29  H    0.147753
    30  C    0.665083
    31  C   -0.080639
    32  H    0.194442
    33  O   -0.584843
    34  C   -0.279029
    35  H    0.166083
    36  H    0.112602
    37  C   -0.460391
    38  H    0.141808
    39  H    0.170609
    40  H    0.161807
    41  C   -0.460782
    42  H    0.158119
    43  H    0.167049
    44  H    0.142049
    45  N   -0.597850
    46  H    0.353841
    47  C   -0.012770
    48  H    0.197323
    49  C    0.596342
    50  C   -0.322183
    51  H    0.195844
    52  H    0.165608
    53  O   -0.485538
    54  C   -0.279508
    55  H    0.156660
    56  H    0.129351
    57  C   -0.144576
    58  H    0.182864
    59  H    0.156004
    60  N   -0.596942
    61  H    0.310050
    62  N   -0.731839
    63  H    0.347426
    64  H    0.316404
    65  N   -0.611142
    66  H    0.268065
    67  C    0.545757
    68  O   -0.554763
    69  H    0.462307
    70  H    0.420180
 Sum of Mulliken charges =   1.00000

 Dipole moment (field-independent basis, Debye):
    X=              6.7907    Y=             -2.9384    Z=             13.7614  Tot=             15.6244
 Quadrupole moment (field-independent basis, Debye-Ang):
   XX=           -174.6357   YY=           -188.2339   ZZ=           -115.5027
   XY=            -23.1555   XZ=             20.2824   YZ=            -20.6762

 Normal termination of Gaussian 16 at Thu May 26 00:32:21 2022.
