 Gaussian 16, Revision C.01,
 Gaussian 16:  ES64L-G16RevC.01  3-Jul-2019

 -------------------------------------------------------------------
 # B3LYP/6-31G* guess=read geom=check nosymm integral(ultrafinegrid)
 -------------------------------------------------------------------

 ------------------------------------------------------
 Candidate Structure: Conf:102 Charge calc in gas phase
 ------------------------------------------------------
 Structure from the checkpoint file:  "conf-102.chk"
 Charge =  1 Multiplicity = 1

                          Input orientation:
 ---------------------------------------------------------------------
 Center     Atomic      Atomic             Coordinates (Angstroms)
 Number     Number       Type             X           Y           Z
 ---------------------------------------------------------------------
      1          7           0       -1.552210   -3.337438    2.838204
      2          1           0       -2.424121   -2.940335    3.182709
      3          1           0       -1.776439   -3.814017    1.963668
      4          6           0       -0.607104   -2.267780    2.516004
      5          1           0       -0.779763   -1.425837    3.194412
      6          6           0       -0.747989   -1.826851    1.042877
      7          6           0        0.857283   -2.741640    2.776046
      8          1           0        1.555197   -1.946325    2.494950
      9          1           0        0.950807   -2.891098    3.855973
     10          8           0       -0.897471   -2.685390    0.178187
     11          6           0        1.214479   -4.024476    2.079500
     12          6           0        0.714099   -5.232414    2.391947
     13          1           0       -0.024893   -5.542552    3.114231
     14          6           0        2.181566   -4.178264    0.977517
     15          6           0        2.250292   -5.526603    0.621912
     16          6           0        2.992431   -3.273159    0.295306
     17          1           0        2.958586   -2.209780    0.499561
     18          7           0        1.291165   -6.270984    1.483112
     19          1           0        1.751969   -7.021680    2.013807
     20          6           0        3.885087   -5.118260   -1.025212
     21          1           0        4.553778   -5.469071   -1.804860
     22          6           0        3.069085   -6.045260   -0.360058
     23          1           0        3.092191   -7.101905   -0.610530
     24          6           0        3.845659   -3.756923   -0.703188
     25          1           0        4.477799   -3.037988   -1.221318
     26          7           0       -0.723495   -0.478768    0.838381
     27          1           0       -0.454370    0.070549    1.647312
     28          6           0       -0.533837    0.237772   -0.443555
     29          1           0       -0.948945    1.240979   -0.273735
     30          6           0        0.995916    0.345633   -0.609723
     31          6           0       -1.246390   -0.358835   -1.672627
     32          1           0       -0.800468   -1.337229   -1.870138
     33          8           0        1.672835   -0.575037   -1.056728
     34          6           0       -0.982172    0.557721   -2.889299
     35          1           0       -1.452117    1.537625   -2.715397
     36          1           0        0.096742    0.740598   -2.975272
     37          6           0       -2.747252   -0.534526   -1.402660
     38          1           0       -3.225957    0.426615   -1.172629
     39          1           0       -3.249622   -0.952306   -2.279666
     40          1           0       -2.927090   -1.218748   -0.570378
     41          6           0       -1.474761   -0.014988   -4.223490
     42          1           0       -1.191466    0.643075   -5.051891
     43          1           0       -2.563677   -0.122957   -4.250831
     44          1           0       -1.033669   -1.000355   -4.414824
     45          7           0        1.542316    1.507712   -0.132479
     46          1           0        0.911761    2.160515    0.316239
     47          6           0        2.929874    1.571624    0.297863
     48          1           0        3.436908    0.712178   -0.155473
     49          6           0        2.976812    1.317981    1.808157
     50          6           0        3.653111    2.859186   -0.142805
     51          1           0        3.229819    3.724130    0.385000
     52          1           0        4.694856    2.776198    0.178350
     53          8           0        2.040759    0.908154    2.469198
     54          6           0        3.592805    3.118648   -1.656463
     55          1           0        4.204250    4.005029   -1.868405
     56          1           0        2.567727    3.371571   -1.954826
     57          6           0        4.057886    1.950579   -2.545211
     58          1           0        3.355603    1.117760   -2.459252
     59          1           0        4.021051    2.268689   -3.594775
     60          7           0        5.396997    1.469773   -2.227889
     61          1           0        6.152310    1.940487   -2.709907
     62          7           0        7.071541   -0.032112   -1.729934
     63          1           0        7.283884   -0.939274   -1.333432
     64          1           0        7.586976    0.716633   -1.280849
     65          7           0        4.893564   -0.809344   -1.596797
     66          1           0        3.927570   -0.613078   -1.854708
     67          6           0        5.697299    0.169091   -1.842870
     68          8           0        4.189778    1.562542    2.330971
     69          1           0        0.553282   -6.715353    0.919635
     70          1           0        4.140629    1.355801    3.284292
 ---------------------------------------------------------------------

 SCF Done:  E(RB3LYP) =  -1582.08990349     A.U. after    1 cycles

 Alpha  occ. eigenvalues --  -19.29646 -19.24263 -19.21271 -19.20884 -14.60666
 Alpha  occ. eigenvalues --  -14.45949 -14.45760 -14.42484 -14.41445 -14.40964
 Alpha  occ. eigenvalues --  -14.35389 -10.42108 -10.38209 -10.37921 -10.36361
 Alpha  occ. eigenvalues --  -10.35768 -10.35502 -10.34296 -10.32939 -10.32928
 Alpha  occ. eigenvalues --  -10.32551 -10.32398 -10.32237 -10.30578 -10.30460
 Alpha  occ. eigenvalues --  -10.30160 -10.29808 -10.29071 -10.27669 -10.26691
 Alpha  occ. eigenvalues --  -10.26368 -10.25210 -10.24003 -10.23692  -1.20668
 Alpha  occ. eigenvalues --   -1.15923  -1.13333  -1.12470  -1.11499  -1.04620
 Alpha  occ. eigenvalues --   -1.02537  -1.01657  -0.99076  -0.97886  -0.95823
 Alpha  occ. eigenvalues --   -0.93944  -0.90873  -0.89331  -0.87987  -0.86606
 Alpha  occ. eigenvalues --   -0.86203  -0.84428  -0.83186  -0.81210  -0.78146
 Alpha  occ. eigenvalues --   -0.76236  -0.75655  -0.74441  -0.72937  -0.72535
 Alpha  occ. eigenvalues --   -0.71675  -0.70605  -0.68856  -0.68152  -0.67959
 Alpha  occ. eigenvalues --   -0.66870  -0.66456  -0.64984  -0.63114  -0.62196
 Alpha  occ. eigenvalues --   -0.62014  -0.61552  -0.61095  -0.59722  -0.59135
 Alpha  occ. eigenvalues --   -0.58721  -0.58543  -0.58328  -0.57185  -0.56858
 Alpha  occ. eigenvalues --   -0.55692  -0.55033  -0.54476  -0.54098  -0.53730
 Alpha  occ. eigenvalues --   -0.53640  -0.53253  -0.52464  -0.52064  -0.51695
 Alpha  occ. eigenvalues --   -0.51216  -0.50640  -0.49851  -0.49634  -0.49226
 Alpha  occ. eigenvalues --   -0.48934  -0.48312  -0.47884  -0.47664  -0.47425
 Alpha  occ. eigenvalues --   -0.46975  -0.46457  -0.46222  -0.46000  -0.45217
 Alpha  occ. eigenvalues --   -0.44280  -0.44177  -0.43243  -0.42599  -0.42422
 Alpha  occ. eigenvalues --   -0.42154  -0.41936  -0.41513  -0.40239  -0.39630
 Alpha  occ. eigenvalues --   -0.39261  -0.37910  -0.37171  -0.36860  -0.35838
 Alpha  occ. eigenvalues --   -0.35567  -0.34812  -0.33555  -0.33165  -0.32941
 Alpha  occ. eigenvalues --   -0.32603  -0.29885
 Alpha virt. eigenvalues --   -0.15894  -0.12494  -0.09646  -0.09270  -0.08891
 Alpha virt. eigenvalues --   -0.07494  -0.05769  -0.03507  -0.03206  -0.02141
 Alpha virt. eigenvalues --   -0.01788  -0.01483  -0.00888  -0.00020   0.00610

 Mulliken charges:
               1
     1  N   -0.726652
     2  H    0.323899
     3  H    0.322538
     4  C   -0.077285
     5  H    0.155918
     6  C    0.621429
     7  C   -0.349115
     8  H    0.183885
     9  H    0.191225
    10  O   -0.526080
    11  C    0.181145
    12  C   -0.107365
    13  H    0.225452
    14  C    0.159747
    15  C    0.156441
    16  C   -0.200299
    17  H    0.180951
    18  N   -0.728026
    19  H    0.418994
    20  C   -0.145117
    21  H    0.173824
    22  C   -0.155270
    23  H    0.167554
    24  C   -0.125632
    25  H    0.223123
    26  N   -0.616296
    27  H    0.345146
    28  C   -0.050884
    29  H    0.143785
    30  C    0.626666
    31  C   -0.077222
    32  H    0.181287
    33  O   -0.523720
    34  C   -0.270912
    35  H    0.129139
    36  H    0.142140
    37  C   -0.460540
    38  H    0.137104
    39  H    0.162080
    40  H    0.157172
    41  C   -0.451367
    42  H    0.153576
    43  H    0.156144
    44  H    0.152323
    45  N   -0.577789
    46  H    0.331528
    47  C   -0.098773
    48  H    0.226201
    49  C    0.594576
    50  C   -0.269232
    51  H    0.145826
    52  H    0.179469
    53  O   -0.490766
    54  C   -0.257280
    55  H    0.151227
    56  H    0.148111
    57  C   -0.167212
    58  H    0.172687
    59  H    0.163189
    60  N   -0.604990
    61  H    0.332164
    62  N   -0.742372
    63  H    0.337026
    64  H    0.324459
    65  N   -0.697304
    66  H    0.315846
    67  C    0.601437
    68  O   -0.547286
    69  H    0.424411
    70  H    0.423943
 Sum of Mulliken charges =   1.00000

 Dipole moment (field-independent basis, Debye):
    X=              9.3952    Y=            -12.9097    Z=              5.7827  Tot=             16.9814
 Quadrupole moment (field-independent basis, Debye-Ang):
   XX=           -142.6495   YY=            -55.4979   ZZ=           -173.8160
   XY=             -9.9755   XZ=              2.0126   YZ=            -31.6736

 Normal termination of Gaussian 16 at Thu May 26 00:32:19 2022.
