 Gaussian 16, Revision C.01,
 Gaussian 16:  ES64L-G16RevC.01  3-Jul-2019

 -------------------------------------------------------------------
 # B3LYP/6-31G* guess=read geom=check nosymm integral(ultrafinegrid)
 -------------------------------------------------------------------

 ------------------------------------------------------
 Candidate Structure: Conf:472 Charge calc in gas phase
 ------------------------------------------------------
 Structure from the checkpoint file:  "conf-472.chk"
 Charge =  1 Multiplicity = 1

                          Input orientation:
 ---------------------------------------------------------------------
 Center     Atomic      Atomic             Coordinates (Angstroms)
 Number     Number       Type             X           Y           Z
 ---------------------------------------------------------------------
      1          7           0       -2.060116   -3.623243    1.956945
      2          1           0       -2.976812   -3.401713    1.567883
      3          1           0       -1.627678   -4.266325    1.289376
      4          6           0       -1.234771   -2.411064    1.992006
      5          1           0       -1.800996   -1.627908    2.511887
      6          6           0       -0.818025   -1.957846    0.576324
      7          6           0        0.077310   -2.683319    2.757890
      8          1           0        0.629759   -3.457786    2.207145
      9          1           0        0.714141   -1.793445    2.719649
     10          8           0       -0.299647   -2.767883   -0.183376
     11          6           0       -0.073354   -3.116733    4.185148
     12          6           0       -1.078440   -3.824098    4.727647
     13          1           0       -1.974060   -4.238364    4.289282
     14          6           0        0.928207   -2.829391    5.230770
     15          6           0        0.497870   -3.381593    6.437855
     16          6           0        2.142767   -2.141829    5.202304
     17          1           0        2.518057   -1.701052    4.282633
     18          7           0       -0.806768   -4.050119    6.185919
     19          1           0       -1.557223   -3.657455    6.770477
     20          6           0        2.401181   -2.604239    7.589699
     21          1           0        2.986690   -2.506193    8.497939
     22          6           0        1.184263   -3.299391    7.632562
     23          1           0        0.819186   -3.740379    8.555309
     24          6           0        2.865982   -2.039753    6.396203
     25          1           0        3.812269   -1.507788    6.398762
     26          7           0       -0.988292   -0.639920    0.275975
     27          1           0       -1.587253   -0.089886    0.876875
     28          6           0       -0.651511   -0.079783   -1.046480
     29          1           0       -0.799599    1.002840   -0.934484
     30          6           0        0.862065   -0.287577   -1.326200
     31          6           0       -1.539240   -0.568891   -2.223243
     32          1           0       -1.125166   -1.521846   -2.568700
     33          8           0        1.303339   -0.548640   -2.434942
     34          6           0       -1.455940    0.449897   -3.384577
     35          1           0       -2.011388    1.356909   -3.099124
     36          1           0       -0.411905    0.743535   -3.523069
     37          6           0       -2.994264   -0.787162   -1.782857
     38          1           0       -3.430641    0.128955   -1.361193
     39          1           0       -3.611206   -1.076520   -2.638106
     40          1           0       -3.087391   -1.584483   -1.037867
     41          6           0       -1.986547   -0.081913   -4.720443
     42          1           0       -1.874252    0.673757   -5.505275
     43          1           0       -3.048240   -0.348807   -4.675385
     44          1           0       -1.427563   -0.970994   -5.034115
     45          7           0        1.673198   -0.079025   -0.246564
     46          1           0        1.271135    0.018319    0.675218
     47          6           0        3.101483   -0.328224   -0.322900
     48          1           0        3.271651   -1.112348   -1.069990
     49          6           0        3.551173   -0.854952    1.030312
     50          6           0        3.874842    0.940748   -0.778740
     51          1           0        3.328138    1.289776   -1.662347
     52          1           0        3.766509    1.720095   -0.012101
     53          8           0        2.883833   -0.814499    2.052758
     54          6           0        5.349176    0.736148   -1.147569
     55          1           0        5.451433   -0.125597   -1.818475
     56          1           0        5.946199    0.507124   -0.257393
     57          6           0        5.939193    1.980984   -1.839151
     58          1           0        5.363270    2.220250   -2.741007
     59          1           0        5.850710    2.853085   -1.179512
     60          7           0        7.335935    1.858583   -2.220423
     61          1           0        7.982171    1.809192   -1.440926
     62          7           0        9.119860    0.906025   -3.343609
     63          1           0        9.390361    0.437587   -4.201872
     64          1           0        9.633292    1.773994   -3.223388
     65          7           0        7.000234    0.508495   -4.200465
     66          1           0        6.004679    0.595044   -3.997959
     67          6           0        7.728625    1.065297   -3.303466
     68          8           0        4.786663   -1.372503    0.993581
     69          1           0       -0.766219   -5.056286    6.398902
     70          1           0        5.014236   -1.663517    1.896946
 ---------------------------------------------------------------------

 SCF Done:  E(RB3LYP) =  -1582.07908792     A.U. after    1 cycles

 Alpha  occ. eigenvalues --  -19.30135 -19.25064 -19.21512 -19.18941 -14.62784
 Alpha  occ. eigenvalues --  -14.46439 -14.43562 -14.43218 -14.39619 -14.37641
 Alpha  occ. eigenvalues --  -14.32329 -10.42675 -10.39122 -10.38370 -10.37711
 Alpha  occ. eigenvalues --  -10.36432 -10.36359 -10.35164 -10.35026 -10.34236
 Alpha  occ. eigenvalues --  -10.33509 -10.33266 -10.33100 -10.32413 -10.31897
 Alpha  occ. eigenvalues --  -10.31871 -10.31840 -10.27933 -10.26856 -10.25732
 Alpha  occ. eigenvalues --  -10.25060 -10.24528 -10.23554 -10.22326  -1.21299
 Alpha  occ. eigenvalues --   -1.18065  -1.13579  -1.12216  -1.10977  -1.02467
 Alpha  occ. eigenvalues --   -1.01568  -1.01098  -1.00358  -1.00116  -0.96270
 Alpha  occ. eigenvalues --   -0.93030  -0.89644  -0.88684  -0.88072  -0.87807
 Alpha  occ. eigenvalues --   -0.87119  -0.86299  -0.82227  -0.80451  -0.78095
 Alpha  occ. eigenvalues --   -0.77528  -0.76620  -0.75010  -0.74813  -0.74686
 Alpha  occ. eigenvalues --   -0.71427  -0.71006  -0.69417  -0.69065  -0.68096
 Alpha  occ. eigenvalues --   -0.66920  -0.65855  -0.64239  -0.63107  -0.62715
 Alpha  occ. eigenvalues --   -0.62196  -0.62151  -0.61330  -0.60159  -0.59795
 Alpha  occ. eigenvalues --   -0.58960  -0.58872  -0.57805  -0.57018  -0.56442
 Alpha  occ. eigenvalues --   -0.56331  -0.56021  -0.55689  -0.54617  -0.54064
 Alpha  occ. eigenvalues --   -0.53333  -0.52685  -0.52261  -0.52214  -0.51132
 Alpha  occ. eigenvalues --   -0.51007  -0.50689  -0.50186  -0.50045  -0.49329
 Alpha  occ. eigenvalues --   -0.48963  -0.48501  -0.48271  -0.47821  -0.47578
 Alpha  occ. eigenvalues --   -0.46746  -0.46635  -0.46298  -0.44522  -0.44110
 Alpha  occ. eigenvalues --   -0.43971  -0.43652  -0.43208  -0.42571  -0.42043
 Alpha  occ. eigenvalues --   -0.41642  -0.40792  -0.40395  -0.40196  -0.40130
 Alpha  occ. eigenvalues --   -0.38625  -0.38435  -0.38137  -0.37694  -0.37490
 Alpha  occ. eigenvalues --   -0.35909  -0.34050  -0.33179  -0.32148  -0.30060
 Alpha  occ. eigenvalues --   -0.29765  -0.26822
 Alpha virt. eigenvalues --   -0.18189  -0.15485  -0.11551  -0.10205  -0.09618
 Alpha virt. eigenvalues --   -0.08066  -0.05975  -0.05275  -0.04541  -0.03575
 Alpha virt. eigenvalues --   -0.02658  -0.01332   0.00162   0.00672   0.01079

 Mulliken charges:
               1
     1  N   -0.725184
     2  H    0.323389
     3  H    0.333004
     4  C   -0.080960
     5  H    0.138722
     6  C    0.621357
     7  C   -0.373108
     8  H    0.212138
     9  H    0.202531
    10  O   -0.513263
    11  C    0.174354
    12  C   -0.101368
    13  H    0.243984
    14  C    0.129562
    15  C    0.161755
    16  C   -0.204862
    17  H    0.208932
    18  N   -0.733032
    19  H    0.424118
    20  C   -0.137305
    21  H    0.185325
    22  C   -0.152141
    23  H    0.179955
    24  C   -0.122259
    25  H    0.178964
    26  N   -0.640823
    27  H    0.335239
    28  C   -0.053723
    29  H    0.167183
    30  C    0.637869
    31  C   -0.062372
    32  H    0.172872
    33  O   -0.509315
    34  C   -0.269330
    35  H    0.120580
    36  H    0.168494
    37  C   -0.463113
    38  H    0.130623
    39  H    0.171160
    40  H    0.124799
    41  C   -0.453942
    42  H    0.154986
    43  H    0.144049
    44  H    0.160070
    45  N   -0.618615
    46  H    0.337409
    47  C   -0.035352
    48  H    0.215244
    49  C    0.586935
    50  C   -0.270396
    51  H    0.181428
    52  H    0.140018
    53  O   -0.491905
    54  C   -0.271096
    55  H    0.165910
    56  H    0.140610
    57  C   -0.155744
    58  H    0.163612
    59  H    0.147397
    60  N   -0.586949
    61  H    0.317978
    62  N   -0.752923
    63  H    0.339201
    64  H    0.320196
    65  N   -0.640443
    66  H    0.273971
    67  C    0.574738
    68  O   -0.534291
    69  H    0.426251
    70  H    0.416901
 Sum of Mulliken charges =   1.00000

 Dipole moment (field-independent basis, Debye):
    X=             -0.0476    Y=            -11.1016    Z=             28.6303  Tot=             30.7073
 Quadrupole moment (field-independent basis, Debye-Ang):
   XX=           -146.2583   YY=           -140.2762   ZZ=            -48.1024
   XY=             24.0959   XZ=             17.5881   YZ=           -100.2132

 Normal termination of Gaussian 16 at Thu May 26 00:32:13 2022.
