 Gaussian 16, Revision C.01,
 Gaussian 16:  ES64L-G16RevC.01  3-Jul-2019

 -------------------------------------------------------------------
 # B3LYP/6-31G* guess=read geom=check nosymm integral(ultrafinegrid)
 -------------------------------------------------------------------

 ------------------------------------------------------
 Candidate Structure: Conf:448 Charge calc in gas phase
 ------------------------------------------------------
 Structure from the checkpoint file:  "conf-448.chk"
 Charge =  1 Multiplicity = 1

                          Input orientation:
 ---------------------------------------------------------------------
 Center     Atomic      Atomic             Coordinates (Angstroms)
 Number     Number       Type             X           Y           Z
 ---------------------------------------------------------------------
      1          7           0       -2.064968   -1.172416    2.652844
      2          1           0       -2.841838   -1.776947    2.389831
      3          1           0       -2.212825   -0.889624    3.618093
      4          6           0       -0.781386   -1.847469    2.465442
      5          1           0       -0.008808   -1.212028    2.919389
      6          6           0       -0.375448   -1.877354    0.970322
      7          6           0       -0.654422   -3.278296    3.026990
      8          1           0       -1.541841   -3.863935    2.749351
      9          1           0        0.188037   -3.756237    2.505336
     10          8           0        0.433106   -2.702724    0.556676
     11          6           0       -0.435919   -3.402585    4.499353
     12          6           0       -0.035971   -2.449874    5.361226
     13          1           0        0.221072   -1.408360    5.239437
     14          6           0       -0.589722   -4.669189    5.242625
     15          6           0       -0.261820   -4.459719    6.581886
     16          6           0       -0.973128   -5.949164    4.842335
     17          1           0       -1.228502   -6.160147    3.809101
     18          7           0        0.120295   -3.028877    6.732278
     19          1           0        1.089189   -2.931123    7.066877
     20          6           0       -0.681403   -6.709296    7.144411
     21          1           0       -0.722518   -7.514083    7.870915
     22          6           0       -0.290131   -5.429616    7.563559
     23          1           0       -0.027498   -5.231759    8.598446
     24          6           0       -1.014398   -6.960277    5.808147
     25          1           0       -1.309400   -7.962818    5.515243
     26          7           0       -0.906655   -0.881292    0.224954
     27          1           0       -1.621647   -0.320931    0.674683
     28          6           0       -0.549489   -0.662036   -1.183511
     29          1           0       -0.997322    0.307467   -1.439623
     30          6           0        0.992427   -0.489753   -1.296042
     31          6           0       -1.091553   -1.722486   -2.178686
     32          1           0       -0.399410   -2.571005   -2.157166
     33          8           0        1.652210   -0.966129   -2.204590
     34          6           0       -1.093089   -1.131229   -3.607880
     35          1           0       -1.896159   -0.381084   -3.678867
     36          1           0       -0.148344   -0.606491   -3.774742
     37          6           0       -2.491433   -2.209319   -1.777545
     38          1           0       -3.205374   -1.376569   -1.717117
     39          1           0       -2.876483   -2.917023   -2.517388
     40          1           0       -2.486455   -2.722944   -0.810647
     41          6           0       -1.263460   -2.176001   -4.716223
     42          1           0       -1.227424   -1.699519   -5.701840
     43          1           0       -2.217753   -2.710098   -4.647400
     44          1           0       -0.457343   -2.917733   -4.677526
     45          7           0        1.537069    0.305569   -0.317285
     46          1           0        0.968658    0.484169    0.500965
     47          6           0        2.969757    0.328604   -0.084545
     48          1           0        3.417449   -0.446410   -0.716901
     49          6           0        3.225690   -0.035611    1.372807
     50          6           0        3.626183    1.687854   -0.432595
     51          1           0        3.156724    2.472397    0.178374
     52          1           0        4.682096    1.643204   -0.140911
     53          8           0        2.376257   -0.123948    2.241989
     54          6           0        3.512965    2.036720   -1.920673
     55          1           0        2.456641    2.060230   -2.216968
     56          1           0        3.993434    1.256481   -2.522503
     57          6           0        4.165631    3.390065   -2.245811
     58          1           0        3.680546    4.192560   -1.675590
     59          1           0        5.214181    3.376012   -1.934933
     60          7           0        4.106239    3.765733   -3.660263
     61          1           0        3.164314    3.965291   -3.977894
     62          7           0        6.122655    2.706852   -4.208398
     63          1           0        6.641133    2.322986   -4.991671
     64          1           0        6.635965    3.462630   -3.764790
     65          7           0        4.460510    2.772963   -5.821310
     66          1           0        3.465690    2.966574   -5.954560
     67          6           0        4.839591    3.072291   -4.633403
     68          8           0        4.535150   -0.223653    1.616518
     69          1           0       -0.476800   -2.544301    7.416526
     70          1           0        4.627001   -0.420274    2.567487
 ---------------------------------------------------------------------

 SCF Done:  E(RB3LYP) =  -1582.07008593     A.U. after    2 cycles

 Alpha  occ. eigenvalues --  -19.28467 -19.23241 -19.20425 -19.18177 -14.64130
 Alpha  occ. eigenvalues --  -14.44500 -14.43977 -14.42369 -14.38884 -14.37413
 Alpha  occ. eigenvalues --  -14.31836 -10.40905 -10.40237 -10.39494 -10.37857
 Alpha  occ. eigenvalues --  -10.37491 -10.36273 -10.35993 -10.35459 -10.34609
 Alpha  occ. eigenvalues --  -10.34447 -10.34042 -10.33972 -10.32128 -10.31290
 Alpha  occ. eigenvalues --  -10.30972 -10.30770 -10.27038 -10.25849 -10.24894
 Alpha  occ. eigenvalues --  -10.23768 -10.23686 -10.22887 -10.21800  -1.19527
 Alpha  occ. eigenvalues --   -1.19391  -1.12438  -1.10550  -1.09995  -1.02225
 Alpha  occ. eigenvalues --   -1.01838  -1.00910  -1.00313  -0.98928  -0.97477
 Alpha  occ. eigenvalues --   -0.92319  -0.90748  -0.89543  -0.87684  -0.87283
 Alpha  occ. eigenvalues --   -0.86812  -0.85968  -0.81235  -0.79984  -0.78787
 Alpha  occ. eigenvalues --   -0.77962  -0.76692  -0.76261  -0.75518  -0.72938
 Alpha  occ. eigenvalues --   -0.72007  -0.70390  -0.69855  -0.68606  -0.66468
 Alpha  occ. eigenvalues --   -0.65615  -0.65367  -0.64836  -0.63497  -0.63464
 Alpha  occ. eigenvalues --   -0.62892  -0.61812  -0.60785  -0.59797  -0.59190
 Alpha  occ. eigenvalues --   -0.59105  -0.58054  -0.57879  -0.57747  -0.56322
 Alpha  occ. eigenvalues --   -0.55996  -0.54789  -0.54682  -0.54497  -0.53872
 Alpha  occ. eigenvalues --   -0.52591  -0.52343  -0.51748  -0.51649  -0.51318
 Alpha  occ. eigenvalues --   -0.50930  -0.50355  -0.50045  -0.49811  -0.49171
 Alpha  occ. eigenvalues --   -0.48504  -0.48129  -0.47804  -0.47143  -0.46551
 Alpha  occ. eigenvalues --   -0.45875  -0.45619  -0.45407  -0.44961  -0.43653
 Alpha  occ. eigenvalues --   -0.43301  -0.42895  -0.42545  -0.41248  -0.41200
 Alpha  occ. eigenvalues --   -0.40923  -0.40724  -0.40052  -0.39409  -0.39204
 Alpha  occ. eigenvalues --   -0.38932  -0.37922  -0.37533  -0.37018  -0.36704
 Alpha  occ. eigenvalues --   -0.34787  -0.33430  -0.32362  -0.31123  -0.29922
 Alpha  occ. eigenvalues --   -0.29074  -0.26140
 Alpha virt. eigenvalues --   -0.19303  -0.16490  -0.12703  -0.11100  -0.07920
 Alpha virt. eigenvalues --   -0.07828  -0.06419  -0.05619  -0.04723  -0.03632
 Alpha virt. eigenvalues --   -0.02208  -0.01794  -0.01027  -0.00372   0.01333

 Mulliken charges:
               1
     1  N   -0.733519
     2  H    0.319649
     3  H    0.311299
     4  C   -0.107577
     5  H    0.199050
     6  C    0.637899
     7  C   -0.373717
     8  H    0.170167
     9  H    0.241789
    10  O   -0.525207
    11  C    0.199505
    12  C   -0.135560
    13  H    0.223849
    14  C    0.145191
    15  C    0.160765
    16  C   -0.197035
    17  H    0.189621
    18  N   -0.732914
    19  H    0.428672
    20  C   -0.136705
    21  H    0.191615
    22  C   -0.149894
    23  H    0.184085
    24  C   -0.111372
    25  H    0.190688
    26  N   -0.641353
    27  H    0.361437
    28  C   -0.043294
    29  H    0.165104
    30  C    0.623319
    31  C   -0.063281
    32  H    0.168555
    33  O   -0.502081
    34  C   -0.268232
    35  H    0.119618
    36  H    0.167947
    37  C   -0.456407
    38  H    0.132274
    39  H    0.164101
    40  H    0.124134
    41  C   -0.452999
    42  H    0.153635
    43  H    0.142078
    44  H    0.158145
    45  N   -0.597678
    46  H    0.332527
    47  C   -0.051381
    48  H    0.216316
    49  C    0.590869
    50  C   -0.269488
    51  H    0.134068
    52  H    0.166111
    53  O   -0.504898
    54  C   -0.262310
    55  H    0.139662
    56  H    0.181325
    57  C   -0.139739
    58  H    0.141529
    59  H    0.154942
    60  N   -0.582926
    61  H    0.308314
    62  N   -0.738894
    63  H    0.339871
    64  H    0.321348
    65  N   -0.626615
    66  H    0.262460
    67  C    0.549249
    68  O   -0.546125
    69  H    0.426188
    70  H    0.412229
 Sum of Mulliken charges =   1.00000

 Dipole moment (field-independent basis, Debye):
    X=             -2.6208    Y=            -13.5941    Z=             32.7122  Tot=             35.5212
 Quadrupole moment (field-independent basis, Debye-Ang):
   XX=           -177.1205   YY=           -111.0246   ZZ=            -16.5664
   XY=             20.3291   XZ=             15.9033   YZ=           -112.3381

 Normal termination of Gaussian 16 at Thu May 26 00:32:27 2022.
