 Gaussian 16, Revision C.01,
 Gaussian 16:  ES64L-G16RevC.01  3-Jul-2019

 ----------------------------------------------------------------------
 # B3LYP/6-31G* empiricaldispersion=gd3bj guess=read geom=check nosymm
 integral(ultrafinegrid)
 ----------------------------------------------------------------------

 ------------------------------------------------------
 Candidate Structure: Conf:879 Charge calc in gas phase
 ------------------------------------------------------
 Structure from the checkpoint file:  "conf-879.chk"
 Charge =  1 Multiplicity = 1

                          Input orientation:
 ---------------------------------------------------------------------
 Center     Atomic      Atomic             Coordinates (Angstroms)
 Number     Number       Type             X           Y           Z
 ---------------------------------------------------------------------
      1          7           0       -6.298145   -7.138657   -0.446297
      2          1           0       -6.571818   -6.935822   -1.442388
      3          1           0       -7.042062   -7.616683    0.068187
      4          1           0       -5.452697   -7.725049   -0.502537
      5          6           0       -5.865549   -5.832159    0.189997
      6          1           0       -6.724188   -5.160408    0.129831
      7          6           0       -4.737324   -5.410981   -0.768760
      8          6           0       -5.399824   -6.055517    1.620730
      9          1           0       -5.106731   -5.096645    2.057526
     10          1           0       -4.528402   -6.717376    1.641803
     11          1           0       -6.195439   -6.478298    2.243140
     12          8           0       -3.935957   -6.278492   -1.121490
     13          7           0       -4.778339   -4.158758   -1.233890
     14          1           0       -5.468773   -3.478907   -0.923735
     15          6           0       -4.136843   -3.790664   -2.482141
     16          1           0       -3.156608   -4.267776   -2.534107
     17          6           0       -4.055513   -2.253270   -2.469744
     18          6           0       -5.024356   -4.207828   -3.696339
     19          1           0       -4.473506   -3.999578   -4.618888
     20          1           0       -5.916923   -3.575077   -3.683852
     21          8           0       -4.950826   -1.621873   -1.907555
     22          6           0       -5.510710   -5.648345   -3.649292
     23          7           0       -4.916430   -6.515921   -4.486184
     24          1           0       -5.214191   -7.482431   -4.495793
     25          1           0       -4.180769   -6.238777   -5.119678
     26          8           0       -6.423700   -5.991099   -2.877859
     27          7           0       -3.022833   -1.719622   -3.130673
     28          1           0       -2.309282   -2.280365   -3.592132
     29          6           0       -2.810146   -0.287399   -3.269566
     30          1           0       -3.754310    0.184876   -3.561349
     31          6           0       -1.750977   -0.143611   -4.371420
     32          6           0       -2.308333    0.347467   -1.952246
     33          1           0       -2.359312    1.439091   -2.043505
     34          1           0       -2.997144    0.061716   -1.153547
     35          8           0       -1.081663   -1.119587   -4.718776
     36          6           0       -0.885062   -0.078228   -1.580303
     37          1           0       -0.132536    0.458549   -2.163526
     38          1           0       -0.744428   -1.145513   -1.799023
     39          6           0       -0.601386    0.091140   -0.094322
     40          8           0       -1.447327   -0.115154    0.765087
     41          8           0        0.654605    0.431660    0.153222
     42          7           0       -1.577638    1.104743   -4.849268
     43          1           0       -2.103261    1.871476   -4.442485
     44          6           0       -0.349423    1.518516   -5.534008
     45          1           0        0.293668    0.638210   -5.571641
     46          6           0        0.236404    2.619251   -4.640915
     47          6           0       -0.636736    2.047679   -6.942896
     48          1           0       -1.376435    2.852079   -6.853962
     49          1           0       -1.099597    1.237568   -7.521154
     50          8           0       -0.440149    3.616620   -4.381680
     51          6           0        0.601870    2.579674   -7.683983
     52          1           0        1.012568    3.412678   -7.095512
     53          6           0        1.696955    1.515211   -7.834893
     54          1           0        1.308995    0.624315   -8.345073
     55          1           0        2.106446    1.198951   -6.869403
     56          1           0        2.532516    1.901553   -8.428450
     57          6           0        0.188279    3.132814   -9.052991
     58          1           0       -0.221241    2.336757   -9.687819
     59          1           0       -0.577291    3.910557   -8.953735
     60          1           0        1.046289    3.568076   -9.576795
     61          7           0        1.469800    2.395213   -4.149524
     62          1           0        1.965103    1.524291   -4.312240
     63          6           0        2.112899    3.288732   -3.198090
     64          1           0        2.069776    4.307407   -3.594218
     65          6           0        3.557868    2.799388   -3.081414
     66          6           0        1.399518    3.220749   -1.823861
     67          1           0        0.333312    3.371273   -2.026132
     68          1           0        1.519728    2.205589   -1.429839
     69          8           0        3.839455    1.623807   -3.308975
     70          6           0        1.844336    4.241504   -0.763452
     71          1           0        2.905600    4.085177   -0.539744
     72          6           0        1.670155    5.692452   -1.231427
     73          1           0        0.630843    5.884701   -1.524181
     74          1           0        2.300046    5.939693   -2.094678
     75          1           0        1.935132    6.391735   -0.431313
     76          6           0        1.058126    3.998430    0.532258
     77          1           0       -0.013020    4.177360    0.375403
     78          1           0        1.172408    2.967398    0.881105
     79          1           0        1.393747    4.674165    1.327835
     80          7           0        4.469805    3.727960   -2.690987
     81          1           0        4.134428    4.635006   -2.391052
     82          6           0        5.773612    3.335267   -2.160212
     83          1           0        5.860226    2.267207   -2.363393
     84          6           0        5.705302    3.581991   -0.650074
     85          6           0        6.945091    4.075303   -2.846675
     86          1           0        6.922566    3.736344   -3.892061
     87          8           0        5.384068    4.682282   -0.190444
     88          6           0        8.299269    3.662083   -2.241250
     89          1           0        9.080377    4.225832   -2.765993
     90          1           0        8.344241    3.992453   -1.194063
     91          6           0        6.784178    5.600419   -2.835880
     92          1           0        6.766829    5.992771   -1.815693
     93          1           0        5.859955    5.910006   -3.335560
     94          1           0        7.616923    6.065951   -3.373710
     95          6           0        8.621072    2.166699   -2.329371
     96          1           0        9.652814    1.973918   -2.017777
     97          1           0        8.507746    1.797674   -3.355690
     98          1           0        7.975902    1.560845   -1.684291
     99          7           0        5.954487    2.514675    0.140808
    100          1           0        6.132426    1.586497   -0.229400
    101          6           0        5.762517    2.574234    1.572678
    102          1           0        6.302818    3.441966    1.963392
    103          6           0        6.342201    1.278466    2.159513
    104          6           0        4.250255    2.716928    1.900038
    105          1           0        3.707073    1.868107    1.479210
    106          1           0        3.904550    3.629534    1.405810
    107          8           0        6.493487    0.283786    1.452755
    108          6           0        3.931373    2.790474    3.380199
    109          7           0        4.617803    3.739740    4.083090
    110          1           0        5.025043    4.539113    3.617156
    111          1           0        4.412944    3.818674    5.071306
    112          8           0        3.151775    2.019511    3.931578
    113          7           0        6.639723    1.338889    3.476952
    114          1           0        6.347037    2.149659    4.015774
    115          6           0        6.923307    0.155675    4.278075
    116          1           0        6.764183   -0.713472    3.632606
    117          6           0        5.903594    0.187591    5.424024
    118          6           0        8.379240    0.138669    4.805303
    119          1           0        8.487684    1.008655    5.468005
    120          8           0        5.574243    1.254864    5.937568
    121          6           0        8.657794   -1.133844    5.616355
    122          1           0        8.537233   -2.027133    4.988558
    123          1           0        9.690226   -1.130940    5.980008
    124          1           0        7.999507   -1.240843    6.483478
    125          6           0        9.367733    0.274268    3.642436
    126          1           0        9.256047   -0.557275    2.936675
    127          1           0       10.397191    0.267357    4.015822
    128          1           0        9.212220    1.205241    3.090247
    129          7           0        5.388591   -1.013105    5.788522
    130          1           0        5.809582   -1.859862    5.430783
    131          6           0        4.391129   -1.145937    6.829076
    132          1           0        4.221145   -0.139969    7.221522
    133          6           0        4.937176   -2.030457    7.938575
    134          6           0        3.059605   -1.715912    6.281890
    135          1           0        2.310700   -1.655956    7.079362
    136          1           0        3.190945   -2.782942    6.051651
    137          8           0        5.937217   -2.709220    7.856469
    138          6           0        2.593724   -0.972829    5.028377
    139          1           0        3.358007   -1.090879    4.249942
    140          1           0        2.548177    0.101403    5.232285
    141          6           0        1.251343   -1.476595    4.482920
    142          1           0        1.220640   -2.574943    4.532915
    143          1           0        0.424991   -1.115775    5.111369
    144          6           0        1.016721   -1.072334    3.022802
    145          1           0        1.817019   -1.497171    2.403169
    146          1           0        0.072400   -1.484260    2.652313
    147          7           0        0.983092    0.375832    2.749335
    148          1           0        0.795522    0.475875    1.195978
    149          1           0        1.802403    0.861009    3.128573
    150          1           0        0.155944    0.793163    3.174024
    151          8           0        4.140741   -2.005972    9.027107
    152          1           0        4.538103   -2.614402    9.679004
 ---------------------------------------------------------------------

 SCF Done:  E(RB3LYP) =  -3474.12179962     A.U. after    2 cycles

 Alpha  occ. eigenvalues --  -19.25708 -19.24672 -19.24596 -19.21023 -19.20110
 Alpha  occ. eigenvalues --  -19.20084 -19.19382 -19.18861 -19.17955 -19.17563
 Alpha  occ. eigenvalues --  -19.17502 -19.17420 -19.16832 -19.16501 -14.58234
 Alpha  occ. eigenvalues --  -14.48529 -14.48228 -14.44955 -14.43149 -14.42567
 Alpha  occ. eigenvalues --  -14.42212 -14.42111 -14.41829 -14.41714 -14.41579
 Alpha  occ. eigenvalues --  -14.38281 -10.42300 -10.41996 -10.39393 -10.38378
 Alpha  occ. eigenvalues --  -10.37975 -10.36269 -10.36182 -10.35314 -10.35058
 Alpha  occ. eigenvalues --  -10.35032 -10.34626 -10.34534 -10.34444 -10.34025
 Alpha  occ. eigenvalues --  -10.32110 -10.31662 -10.31150 -10.30446 -10.29496
 Alpha  occ. eigenvalues --  -10.28856 -10.28606 -10.28556 -10.28195 -10.26291
 Alpha  occ. eigenvalues --  -10.25963 -10.25445 -10.24885 -10.24616 -10.24551
 Alpha  occ. eigenvalues --  -10.24132 -10.23732 -10.23639 -10.23550 -10.23522
 Alpha  occ. eigenvalues --  -10.23093 -10.22885 -10.22779 -10.22143 -10.21991
 Alpha  occ. eigenvalues --  -10.21965 -10.21934 -10.21769 -10.21750 -10.21633
 Alpha  occ. eigenvalues --  -10.21430  -1.17690  -1.16642  -1.15786  -1.13318
 Alpha  occ. eigenvalues --   -1.12387  -1.11964  -1.11277  -1.10622  -1.10227
 Alpha  occ. eigenvalues --   -1.09900  -1.09480  -1.09044  -1.08635  -1.07652
 Alpha  occ. eigenvalues --   -1.05153  -1.03295  -1.03172  -1.01628  -0.99673
 Alpha  occ. eigenvalues --   -0.99014  -0.98756  -0.98647  -0.98435  -0.97970
 Alpha  occ. eigenvalues --   -0.97284  -0.94512  -0.92139  -0.89494  -0.87272
 Alpha  occ. eigenvalues --   -0.86907  -0.86479  -0.85792  -0.85508  -0.85282
 Alpha  occ. eigenvalues --   -0.83979  -0.81823  -0.81559  -0.81446  -0.80253
 Alpha  occ. eigenvalues --   -0.79205  -0.77868  -0.77402  -0.77126  -0.76154
 Alpha  occ. eigenvalues --   -0.75051  -0.73256  -0.73141  -0.72883  -0.72843
 Alpha  occ. eigenvalues --   -0.72749  -0.72346  -0.71708  -0.71457  -0.70549
 Alpha  occ. eigenvalues --   -0.70223  -0.69767  -0.68690  -0.67828  -0.67619
 Alpha  occ. eigenvalues --   -0.66864  -0.66663  -0.66028  -0.65739  -0.65309
 Alpha  occ. eigenvalues --   -0.65083  -0.64856  -0.64735  -0.64064  -0.63588
 Alpha  occ. eigenvalues --   -0.63537  -0.63195  -0.62387  -0.61922  -0.61904
 Alpha  occ. eigenvalues --   -0.61728  -0.61302  -0.60915  -0.60847  -0.60460
 Alpha  occ. eigenvalues --   -0.59623  -0.58676  -0.58279  -0.57971  -0.57034
 Alpha  occ. eigenvalues --   -0.56135  -0.55844  -0.55498  -0.55243  -0.54902
 Alpha  occ. eigenvalues --   -0.54820  -0.54595  -0.54329  -0.54142  -0.53818
 Alpha  occ. eigenvalues --   -0.53697  -0.53562  -0.53480  -0.53055  -0.52857
 Alpha  occ. eigenvalues --   -0.52562  -0.52457  -0.52255  -0.52183  -0.52044
 Alpha  occ. eigenvalues --   -0.51779  -0.51605  -0.51369  -0.51280  -0.50784
 Alpha  occ. eigenvalues --   -0.50708  -0.50588  -0.50440  -0.50026  -0.49820
 Alpha  occ. eigenvalues --   -0.49703  -0.49246  -0.49120  -0.48952  -0.48784
 Alpha  occ. eigenvalues --   -0.48384  -0.48184  -0.48082  -0.47818  -0.47809
 Alpha  occ. eigenvalues --   -0.47355  -0.47159  -0.47087  -0.46982  -0.46882
 Alpha  occ. eigenvalues --   -0.46726  -0.46651  -0.46401  -0.46009  -0.45860
 Alpha  occ. eigenvalues --   -0.45809  -0.45617  -0.45468  -0.45204  -0.44991
 Alpha  occ. eigenvalues --   -0.44745  -0.44456  -0.44100  -0.43974  -0.43639
 Alpha  occ. eigenvalues --   -0.43449  -0.43240  -0.42956  -0.42788  -0.42750
 Alpha  occ. eigenvalues --   -0.42626  -0.42416  -0.42143  -0.41859  -0.41767
 Alpha  occ. eigenvalues --   -0.41639  -0.41411  -0.41196  -0.41037  -0.40864
 Alpha  occ. eigenvalues --   -0.40689  -0.40229  -0.39890  -0.39850  -0.39537
 Alpha  occ. eigenvalues --   -0.39447  -0.39093  -0.38971  -0.38650  -0.38440
 Alpha  occ. eigenvalues --   -0.38267  -0.38244  -0.38035  -0.37920  -0.37774
 Alpha  occ. eigenvalues --   -0.37588  -0.37490  -0.37459  -0.37385  -0.37204
 Alpha  occ. eigenvalues --   -0.37114  -0.36996  -0.36884  -0.35194  -0.34542
 Alpha  occ. eigenvalues --   -0.34345  -0.33701  -0.33680  -0.33434  -0.33257
 Alpha  occ. eigenvalues --   -0.33005  -0.32760  -0.32462  -0.31963  -0.31862
 Alpha  occ. eigenvalues --   -0.31636  -0.31047  -0.30963  -0.30502  -0.30329
 Alpha  occ. eigenvalues --   -0.30077  -0.30018  -0.29683
 Alpha virt. eigenvalues --   -0.11736  -0.11161  -0.08326  -0.06895  -0.05765
 Alpha virt. eigenvalues --   -0.05450  -0.04948  -0.04391  -0.04257  -0.03978
 Alpha virt. eigenvalues --   -0.03216  -0.03182  -0.02673  -0.02173  -0.01902

 Mulliken charges:
               1
     1  N   -0.747061
     2  H    0.446676
     3  H    0.402694
     4  H    0.410382
     5  C   -0.108976
     6  H    0.210294
     7  C    0.650243
     8  C   -0.465419
     9  H    0.214270
    10  H    0.196954
    11  H    0.180863
    12  O   -0.540197
    13  N   -0.581126
    14  H    0.365989
    15  C   -0.073691
    16  H    0.198699
    17  C    0.647424
    18  C   -0.358114
    19  H    0.177227
    20  H    0.211720
    21  O   -0.538748
    22  C    0.639382
    23  N   -0.717666
    24  H    0.360104
    25  H    0.367913
    26  O   -0.581058
    27  N   -0.618138
    28  H    0.359612
    29  C   -0.068826
    30  H    0.182792
    31  C    0.623977
    32  C   -0.277973
    33  H    0.156195
    34  H    0.206185
    35  O   -0.547109
    36  C   -0.364967
    37  H    0.174123
    38  H    0.166701
    39  C    0.583047
    40  O   -0.510679
    41  O   -0.624638
    42  N   -0.602975
    43  H    0.350412
    44  C   -0.064533
    45  H    0.179245
    46  C    0.629254
    47  C   -0.249599
    48  H    0.152546
    49  H    0.141399
    50  O   -0.554322
    51  C   -0.086185
    52  H    0.141896
    53  C   -0.450632
    54  H    0.144137
    55  H    0.138774
    56  H    0.152818
    57  C   -0.444173
    58  H    0.141388
    59  H    0.148356
    60  H    0.148992
    61  N   -0.627933
    62  H    0.361490
    63  C   -0.041600
    64  H    0.174642
    65  C    0.610085
    66  C   -0.288354
    67  H    0.164338
    68  H    0.180055
    69  O   -0.534878
    70  C   -0.112548
    71  H    0.141401
    72  C   -0.449024
    73  H    0.158051
    74  H    0.130958
    75  H    0.151975
    76  C   -0.457610
    77  H    0.144254
    78  H    0.155892
    79  H    0.135806
    80  N   -0.615384
    81  H    0.358456
    82  C   -0.068412
    83  H    0.184446
    84  C    0.641398
    85  C   -0.075442
    86  H    0.140591
    87  O   -0.562168
    88  C   -0.265588
    89  H    0.146051
    90  H    0.141719
    91  C   -0.468637
    92  H    0.175281
    93  H    0.138420
    94  H    0.149737
    95  C   -0.456645
    96  H    0.155375
    97  H    0.152386
    98  H    0.139835
    99  N   -0.618596
   100  H    0.369553
   101  C   -0.040616
   102  H    0.170225
   103  C    0.611870
   104  C   -0.382298
   105  H    0.187251
   106  H    0.217453
   107  O   -0.535678
   108  C    0.579006
   109  N   -0.740751
   110  H    0.355376
   111  H    0.367001
   112  O   -0.502395
   113  N   -0.616760
   114  H    0.371260
   115  C   -0.059646
   116  H    0.170988
   117  C    0.628605
   118  C   -0.073656
   119  H    0.141158
   120  O   -0.545272
   121  C   -0.476575
   122  H    0.139767
   123  H    0.159581
   124  H    0.172185
   125  C   -0.445098
   126  H    0.155232
   127  H    0.151600
   128  H    0.150844
   129  N   -0.587003
   130  H    0.344309
   131  C   -0.061296
   132  H    0.213822
   133  C    0.588264
   134  C   -0.278898
   135  H    0.165851
   136  H    0.136641
   137  O   -0.463221
   138  C   -0.273933
   139  H    0.136609
   140  H    0.183278
   141  C   -0.260187
   142  H    0.129399
   143  H    0.134808
   144  C   -0.145305
   145  H    0.149034
   146  H    0.162479
   147  N   -0.840479
   148  H    0.491985
   149  H    0.391503
   150  H    0.327787
   151  O   -0.561166
   152  H    0.419816
 Sum of Mulliken charges =   1.00000

 Dipole moment (field-independent basis, Debye):
    X=            -14.5306    Y=            -22.0185    Z=             -0.8808  Tot=             26.3956
 Quadrupole moment (field-independent basis, Debye-Ang):
   XX=           -249.7754   YY=           -224.0046   ZZ=           -327.0256
   XY=            180.4765   XZ=             44.8290   YZ=             23.0908

 Normal termination of Gaussian 16 at Mon Jul 18 04:53:52 2022.
