 Gaussian 16, Revision C.01,
 Gaussian 16:  ES64L-G16RevC.01  3-Jul-2019

 ----------------------------------------------------------------------
 # B3LYP/6-31G* empiricaldispersion=gd3bj guess=read geom=check nosymm
 integral(ultrafinegrid)
 ----------------------------------------------------------------------

 ------------------------------------------------------
 Candidate Structure: Conf:367 Charge calc in gas phase
 ------------------------------------------------------
 Structure from the checkpoint file:  "conf-367.chk"
 Charge =  1 Multiplicity = 1

                          Input orientation:
 ---------------------------------------------------------------------
 Center     Atomic      Atomic             Coordinates (Angstroms)
 Number     Number       Type             X           Y           Z
 ---------------------------------------------------------------------
      1          7           0       -7.010475   -5.372689   -0.020912
      2          1           0       -6.791175   -5.891076   -0.872254
      3          1           0       -7.708689   -5.910317    0.490715
      4          1           0       -5.515102   -5.492023    1.073066
      5          6           0       -7.588698   -4.072891   -0.415090
      6          1           0       -8.597533   -4.199308   -0.843802
      7          6           0       -6.726783   -3.524778   -1.562527
      8          6           0       -7.688947   -3.155531    0.804675
      9          1           0       -8.217560   -2.225429    0.574331
     10          1           0       -6.695497   -2.917899    1.196778
     11          1           0       -8.252720   -3.658115    1.597014
     12          8           0       -6.125921   -4.300632   -2.320268
     13          7           0       -6.655926   -2.183944   -1.690306
     14          1           0       -7.331254   -1.589561   -1.210085
     15          6           0       -5.987565   -1.552246   -2.831569
     16          1           0       -6.105778   -2.213151   -3.697777
     17          6           0       -4.481351   -1.428235   -2.492054
     18          6           0       -6.566853   -0.155436   -3.115573
     19          1           0       -6.240219    0.156151   -4.111721
     20          1           0       -6.119815    0.546200   -2.404614
     21          8           0       -3.953544   -0.340076   -2.240878
     22          6           0       -8.077119   -0.065817   -2.947230
     23          7           0       -8.783396    0.346240   -4.026446
     24          1           0       -9.780278    0.483450   -3.924402
     25          1           0       -8.342988    0.639330   -4.884979
     26          8           0       -8.620005   -0.341104   -1.874925
     27          7           0       -3.825009   -2.606311   -2.409415
     28          1           0       -4.378131   -3.448400   -2.570394
     29          6           0       -2.606525   -2.717238   -1.597746
     30          1           0       -2.675795   -1.931159   -0.834722
     31          6           0       -1.352172   -2.408928   -2.424732
     32          6           0       -2.527355   -4.069336   -0.898226
     33          1           0       -2.321384   -4.858619   -1.627702
     34          1           0       -1.680348   -4.055900   -0.210613
     35          8           0       -0.527394   -3.272076   -2.746876
     36          6           0       -3.805761   -4.358872   -0.114238
     37          1           0       -4.541746   -4.858919   -0.743004
     38          1           0       -4.281150   -3.418153    0.202519
     39          6           0       -3.602258   -5.174344    1.155158
     40          8           0       -2.526884   -5.324809    1.696473
     41          8           0       -4.732424   -5.676401    1.669058
     42          7           0       -1.201486   -1.098406   -2.715755
     43          1           0       -1.971898   -0.473932   -2.475589
     44          6           0       -0.079597   -0.606545   -3.510632
     45          1           0        0.175755   -1.395092   -4.226356
     46          6           0        1.124688   -0.423005   -2.568224
     47          6           0       -0.440830    0.685365   -4.239989
     48          1           0        0.417411    0.965558   -4.863882
     49          1           0       -0.552116    1.488948   -3.503237
     50          8           0        1.559498    0.697716   -2.260259
     51          6           0       -1.704759    0.594209   -5.114502
     52          1           0       -2.567406    0.429622   -4.454466
     53          6           0       -1.921360    1.929068   -5.837650
     54          1           0       -1.097640    2.136557   -6.532078
     55          1           0       -1.979805    2.762719   -5.128543
     56          1           0       -2.849857    1.914584   -6.419064
     57          6           0       -1.643116   -0.569064   -6.112159
     58          1           0       -0.756119   -0.490411   -6.753933
     59          1           0       -1.612815   -1.541943   -5.609424
     60          1           0       -2.522603   -0.565020   -6.765450
     61          7           0        1.664194   -1.570298   -2.102430
     62          1           0        1.190105   -2.430701   -2.384771
     63          6           0        2.550594   -1.626419   -0.938921
     64          1           0        2.241371   -0.839003   -0.238611
     65          6           0        4.018705   -1.284576   -1.251414
     66          6           0        2.429791   -2.992283   -0.249438
     67          1           0        2.803327   -3.772529   -0.924801
     68          1           0        3.111603   -2.992365    0.604747
     69          8           0        4.951702   -1.749590   -0.563752
     70          6           0        1.021141   -3.367014    0.246596
     71          1           0        0.408672   -3.600301   -0.629042
     72          6           0        1.093548   -4.638795    1.101452
     73          1           0        1.650540   -4.454949    2.031347
     74          1           0        1.597269   -5.451332    0.565302
     75          1           0        0.090734   -4.981813    1.376037
     76          6           0        0.339755   -2.230557    1.019230
     77          1           0        0.968609   -1.875597    1.847200
     78          1           0        0.117736   -1.368452    0.379755
     79          1           0       -0.603877   -2.579712    1.452031
     80          7           0        4.233769   -0.413011   -2.248205
     81          1           0        3.425939    0.092761   -2.599675
     82          6           0        5.560788    0.112471   -2.578849
     83          1           0        6.264506   -0.687708   -2.341101
     84          6           0        5.852134    1.294542   -1.631860
     85          6           0        5.668628    0.442856   -4.079902
     86          1           0        5.551030   -0.525500   -4.587269
     87          8           0        5.728332    2.480168   -1.935284
     88          6           0        7.064043    0.992620   -4.434682
     89          1           0        7.104106    1.100203   -5.525392
     90          1           0        7.164179    2.001556   -4.020066
     91          6           0        4.569369    1.386145   -4.592881
     92          1           0        4.631137    2.359295   -4.101900
     93          1           0        3.560342    0.985715   -4.439529
     94          1           0        4.689401    1.534255   -5.671117
     95          6           0        8.235774    0.120017   -3.973173
     96          1           0        9.180420    0.499039   -4.375945
     97          1           0        8.122663   -0.916871   -4.313104
     98          1           0        8.335728    0.105424   -2.881263
     99          7           0        6.207709    0.908471   -0.375675
    100          1           0        6.186169   -0.078574   -0.135385
    101          6           0        6.350398    1.892605    0.675116
    102          1           0        6.902406    2.733741    0.248620
    103          6           0        7.140596    1.287713    1.827857
    104          6           0        4.987168    2.458232    1.240501
    105          1           0        4.905572    3.509019    0.952900
    106          1           0        4.986880    2.410433    2.332415
    107          8           0        7.041233    0.094619    2.145044
    108          6           0        3.769460    1.697535    0.728656
    109          7           0        3.184487    2.206796   -0.366009
    110          1           0        3.681023    2.898618   -0.913541
    111          1           0        2.461935    1.671735   -0.848633
    112          8           0        3.334615    0.679079    1.295461
    113          7           0        7.922690    2.148989    2.511058
    114          1           0        7.831266    3.130438    2.283785
    115          6           0        8.343963    1.835738    3.869440
    116          1           0        8.832118    0.856936    3.841613
    117          6           0        7.080836    1.735827    4.747771
    118          6           0        9.343659    2.883465    4.412593
    119          1           0        9.556098    2.574812    5.444783
    120          8           0        6.030604    2.286910    4.422742
    121          6           0       10.656025    2.848687    3.620918
    122          1           0       10.495756    3.130969    2.574525
    123          1           0       11.378837    3.550067    4.049323
    124          1           0       11.104638    1.849345    3.632731
    125          6           0        8.748131    4.298099    4.464968
    126          1           0        8.609499    4.721074    3.461160
    127          1           0        9.431839    4.970075    4.992028
    128          1           0        7.781663    4.321114    4.976687
    129          7           0        7.213033    1.007562    5.882667
    130          1           0        8.096658    0.572314    6.109462
    131          6           0        6.071486    0.758053    6.750632
    132          1           0        5.363692    1.567260    6.555928
    133          6           0        6.430514    0.808902    8.225613
    134          6           0        5.363662   -0.589183    6.445982
    135          1           0        4.384640   -0.560195    6.935363
    136          1           0        5.919544   -1.417929    6.903816
    137          8           0        5.610027    0.786675    9.110124
    138          6           0        5.232182   -0.834925    4.940014
    139          1           0        6.228463   -1.057140    4.538261
    140          1           0        4.908498    0.089122    4.450177
    141          6           0        4.261823   -1.967393    4.580833
    142          1           0        4.348584   -2.796755    5.293196
    143          1           0        3.228185   -1.606717    4.650174
    144          6           0        4.520493   -2.544823    3.188604
    145          1           0        5.424116   -3.160794    3.182187
    146          1           0        3.685798   -3.164114    2.851349
    147          7           0        4.736256   -1.479033    2.162691
    148          1           0        4.769456   -1.844725    1.186158
    149          1           0        5.633607   -0.971722    2.289100
    150          1           0        4.019732   -0.724975    2.135838
    151          8           0        7.768461    0.818833    8.441738
    152          1           0        7.894058    0.812749    9.410226
 ---------------------------------------------------------------------

 SCF Done:  E(RB3LYP) =  -3474.17813578     A.U. after    2 cycles

 Alpha  occ. eigenvalues --  -19.28223 -19.23397 -19.22219 -19.21907 -19.21604
 Alpha  occ. eigenvalues --  -19.21415 -19.21195 -19.20942 -19.20928 -19.20524
 Alpha  occ. eigenvalues --  -19.20434 -19.20054 -19.19769 -19.17038 -14.49929
 Alpha  occ. eigenvalues --  -14.46615 -14.45613 -14.45149 -14.44698 -14.44506
 Alpha  occ. eigenvalues --  -14.44210 -14.44176 -14.43751 -14.43694 -14.43265
 Alpha  occ. eigenvalues --  -14.41183 -10.40310 -10.39938 -10.38579 -10.38369
 Alpha  occ. eigenvalues --  -10.38028 -10.37864 -10.37639 -10.37416 -10.37309
 Alpha  occ. eigenvalues --  -10.37251 -10.36565 -10.35582 -10.33769 -10.33400
 Alpha  occ. eigenvalues --  -10.32785 -10.32645 -10.32482 -10.31953 -10.31304
 Alpha  occ. eigenvalues --  -10.31137 -10.30965 -10.30889 -10.29005 -10.28526
 Alpha  occ. eigenvalues --  -10.28514 -10.28175 -10.27851 -10.27368 -10.26654
 Alpha  occ. eigenvalues --  -10.26527 -10.26026 -10.25710 -10.25549 -10.25482
 Alpha  occ. eigenvalues --  -10.25417 -10.25412 -10.25196 -10.25174 -10.24301
 Alpha  occ. eigenvalues --  -10.24088 -10.23785 -10.23753 -10.23544 -10.23337
 Alpha  occ. eigenvalues --  -10.22967  -1.18867  -1.15197  -1.13852  -1.13051
 Alpha  occ. eigenvalues --   -1.12902  -1.12851  -1.12661  -1.12424  -1.12072
 Alpha  occ. eigenvalues --   -1.12042  -1.11536  -1.11434  -1.09851  -1.06168
 Alpha  occ. eigenvalues --   -1.04686  -1.03355  -1.02328  -1.02144  -1.01613
 Alpha  occ. eigenvalues --   -1.01354  -1.01121  -1.00656  -0.99927  -0.98839
 Alpha  occ. eigenvalues --   -0.98821  -0.97569  -0.90665  -0.89546  -0.89126
 Alpha  occ. eigenvalues --   -0.88409  -0.88045  -0.87420  -0.86800  -0.86106
 Alpha  occ. eigenvalues --   -0.86077  -0.84060  -0.82162  -0.82043  -0.81539
 Alpha  occ. eigenvalues --   -0.80417  -0.79905  -0.79305  -0.78714  -0.76980
 Alpha  occ. eigenvalues --   -0.76370  -0.76062  -0.74879  -0.74492  -0.74012
 Alpha  occ. eigenvalues --   -0.73413  -0.72208  -0.72106  -0.70635  -0.70247
 Alpha  occ. eigenvalues --   -0.69602  -0.69282  -0.68460  -0.68356  -0.68326
 Alpha  occ. eigenvalues --   -0.68081  -0.67601  -0.67102  -0.66865  -0.66680
 Alpha  occ. eigenvalues --   -0.66341  -0.66086  -0.65523  -0.65115  -0.64529
 Alpha  occ. eigenvalues --   -0.63860  -0.63842  -0.63166  -0.62997  -0.62771
 Alpha  occ. eigenvalues --   -0.62305  -0.61870  -0.61376  -0.60643  -0.60263
 Alpha  occ. eigenvalues --   -0.59704  -0.59606  -0.59359  -0.59212  -0.58772
 Alpha  occ. eigenvalues --   -0.58354  -0.57950  -0.57245  -0.57193  -0.57076
 Alpha  occ. eigenvalues --   -0.56748  -0.56477  -0.56208  -0.56081  -0.55959
 Alpha  occ. eigenvalues --   -0.55808  -0.55379  -0.55136  -0.54839  -0.54388
 Alpha  occ. eigenvalues --   -0.54147  -0.53759  -0.53309  -0.53162  -0.52827
 Alpha  occ. eigenvalues --   -0.52810  -0.52373  -0.52300  -0.52002  -0.51801
 Alpha  occ. eigenvalues --   -0.51546  -0.51286  -0.51049  -0.50991  -0.50590
 Alpha  occ. eigenvalues --   -0.50466  -0.50154  -0.49878  -0.49779  -0.49551
 Alpha  occ. eigenvalues --   -0.49412  -0.49297  -0.49244  -0.49169  -0.48929
 Alpha  occ. eigenvalues --   -0.48732  -0.48505  -0.48454  -0.48258  -0.47940
 Alpha  occ. eigenvalues --   -0.47875  -0.47720  -0.47458  -0.47413  -0.47243
 Alpha  occ. eigenvalues --   -0.47184  -0.46945  -0.46715  -0.46626  -0.46373
 Alpha  occ. eigenvalues --   -0.46260  -0.46234  -0.46096  -0.45818  -0.45735
 Alpha  occ. eigenvalues --   -0.45662  -0.45577  -0.45120  -0.45043  -0.44843
 Alpha  occ. eigenvalues --   -0.44560  -0.44458  -0.44260  -0.44179  -0.43942
 Alpha  occ. eigenvalues --   -0.43624  -0.43382  -0.43331  -0.43098  -0.42965
 Alpha  occ. eigenvalues --   -0.42888  -0.42746  -0.42369  -0.42230  -0.42167
 Alpha  occ. eigenvalues --   -0.42052  -0.41993  -0.40627  -0.40161  -0.39930
 Alpha  occ. eigenvalues --   -0.39922  -0.39734  -0.39490  -0.39394  -0.39346
 Alpha  occ. eigenvalues --   -0.39037  -0.39012  -0.38845  -0.38633  -0.37834
 Alpha  occ. eigenvalues --   -0.37657  -0.37132  -0.36806  -0.36693  -0.36566
 Alpha  occ. eigenvalues --   -0.36271  -0.35953  -0.35727  -0.35473  -0.34984
 Alpha  occ. eigenvalues --   -0.34914  -0.34711  -0.34550  -0.34246  -0.33965
 Alpha  occ. eigenvalues --   -0.33788  -0.33636  -0.33447  -0.32898  -0.32668
 Alpha  occ. eigenvalues --   -0.32482  -0.32198  -0.30800
 Alpha virt. eigenvalues --   -0.09873  -0.08846  -0.08048  -0.07699  -0.07548
 Alpha virt. eigenvalues --   -0.06964  -0.06410  -0.06329  -0.06096  -0.05696
 Alpha virt. eigenvalues --   -0.05495  -0.03134  -0.02607  -0.02185  -0.01895

 Mulliken charges:
               1
     1  N   -0.767719
     2  H    0.346331
     3  H    0.332515
     4  H    0.464464
     5  C   -0.062025
     6  H    0.174655
     7  C    0.636395
     8  C   -0.469007
     9  H    0.178228
    10  H    0.170386
    11  H    0.169342
    12  O   -0.562004
    13  N   -0.625218
    14  H    0.392939
    15  C   -0.060694
    16  H    0.193286
    17  C    0.637059
    18  C   -0.396730
    19  H    0.162698
    20  H    0.221822
    21  O   -0.542808
    22  C    0.618895
    23  N   -0.739975
    24  H    0.359868
    25  H    0.351883
    26  O   -0.528622
    27  N   -0.612406
    28  H    0.387085
    29  C   -0.081113
    30  H    0.178961
    31  C    0.649852
    32  C   -0.304138
    33  H    0.176905
    34  H    0.202676
    35  O   -0.552078
    36  C   -0.437772
    37  H    0.190828
    38  H    0.167125
    39  C    0.604166
    40  O   -0.468112
    41  O   -0.613428
    42  N   -0.621238
    43  H    0.387515
    44  C   -0.074992
    45  H    0.188705
    46  C    0.630210
    47  C   -0.283731
    48  H    0.150773
    49  H    0.161356
    50  O   -0.568708
    51  C   -0.087174
    52  H    0.137290
    53  C   -0.442928
    54  H    0.146700
    55  H    0.147532
    56  H    0.143499
    57  C   -0.456586
    58  H    0.145449
    59  H    0.153757
    60  H    0.147299
    61  N   -0.617941
    62  H    0.393976
    63  C   -0.088743
    64  H    0.216732
    65  C    0.659583
    66  C   -0.297930
    67  H    0.161967
    68  H    0.122414
    69  O   -0.594368
    70  C   -0.099864
    71  H    0.166520
    72  C   -0.476263
    73  H    0.123518
    74  H    0.146687
    75  H    0.205286
    76  C   -0.469975
    77  H    0.130513
    78  H    0.143876
    79  H    0.172042
    80  N   -0.626208
    81  H    0.395568
    82  C   -0.076096
    83  H    0.187198
    84  C    0.637083
    85  C   -0.077710
    86  H    0.138627
    87  O   -0.545425
    88  C   -0.268756
    89  H    0.145490
    90  H    0.165241
    91  C   -0.486372
    92  H    0.185406
    93  H    0.135461
    94  H    0.157150
    95  C   -0.460521
    96  H    0.160569
    97  H    0.149952
    98  H    0.138026
    99  N   -0.633428
   100  H    0.367317
   101  C   -0.027399
   102  H    0.191613
   103  C    0.635929
   104  C   -0.412698
   105  H    0.179190
   106  H    0.235941
   107  O   -0.569901
   108  C    0.603422
   109  N   -0.746209
   110  H    0.366121
   111  H    0.399548
   112  O   -0.577017
   113  N   -0.580031
   114  H    0.352300
   115  C   -0.060267
   116  H    0.176877
   117  C    0.651489
   118  C   -0.111050
   119  H    0.151064
   120  O   -0.543635
   121  C   -0.443507
   122  H    0.153473
   123  H    0.168141
   124  H    0.154202
   125  C   -0.473943
   126  H    0.140264
   127  H    0.173985
   128  H    0.178666
   129  N   -0.606437
   130  H    0.348854
   131  C   -0.064485
   132  H    0.221861
   133  C    0.593192
   134  C   -0.276133
   135  H    0.183636
   136  H    0.151985
   137  O   -0.441787
   138  C   -0.304474
   139  H    0.148701
   140  H    0.177709
   141  C   -0.281314
   142  H    0.171761
   143  H    0.170268
   144  C   -0.187156
   145  H    0.190469
   146  H    0.203916
   147  N   -0.856261
   148  H    0.438375
   149  H    0.440275
   150  H    0.427215
   151  O   -0.579745
   152  H    0.427159
 Sum of Mulliken charges =   1.00000

 Dipole moment (field-independent basis, Debye):
    X=              9.8803    Y=              0.7050    Z=              0.1024  Tot=              9.9060
 Quadrupole moment (field-independent basis, Debye-Ang):
   XX=           -120.2050   YY=           -412.5232   ZZ=           -329.9569
   XY=             41.2725   XZ=            138.4897   YZ=              6.5119

 Normal termination of Gaussian 16 at Mon Jul 18 04:54:03 2022.
