 Gaussian 16, Revision C.01,
 Gaussian 16:  ES64L-G16RevC.01  3-Jul-2019

 ----------------------------------------------------------------------
 # B3LYP/6-31G* empiricaldispersion=gd3bj guess=read geom=check nosymm
 integral(ultrafinegrid)
 ----------------------------------------------------------------------

 ------------------------------------------------------
 Candidate Structure: Conf:137 Charge calc in gas phase
 ------------------------------------------------------
 Structure from the checkpoint file:  "conf-137.chk"
 Charge =  1 Multiplicity = 1

                          Input orientation:
 ---------------------------------------------------------------------
 Center     Atomic      Atomic             Coordinates (Angstroms)
 Number     Number       Type             X           Y           Z
 ---------------------------------------------------------------------
      1          7           0       -6.446625   -1.351022    1.670613
      2          1           0       -5.918827   -1.181799    2.526200
      3          1           0       -7.363180   -0.915497    1.754045
      4          1           0       -5.470073   -0.772272    0.518519
      5          6           0       -6.586409   -2.811359    1.494456
      6          1           0       -7.247974   -3.240310    2.264253
      7          6           0       -5.178391   -3.350563    1.774330
      8          6           0       -7.160677   -3.136090    0.117028
      9          1           0       -7.367775   -4.205770    0.013980
     10          1           0       -6.481562   -2.821065   -0.680157
     11          1           0       -8.114030   -2.615474   -0.021099
     12          8           0       -4.380756   -2.686866    2.435221
     13          7           0       -4.866043   -4.572031    1.253672
     14          1           0       -5.473409   -4.931494    0.527343
     15          6           0       -3.469332   -4.937146    1.086538
     16          1           0       -2.923357   -4.351122    1.823390
     17          6           0       -3.115010   -4.534367   -0.353873
     18          6           0       -3.153882   -6.413751    1.338701
     19          1           0       -3.518763   -7.041327    0.519207
     20          1           0       -3.633080   -6.724061    2.270287
     21          8           0       -3.817366   -4.873135   -1.302750
     22          6           0       -1.638728   -6.473568    1.534845
     23          7           0       -0.941771   -7.136394    0.586070
     24          1           0        0.063334   -7.001757    0.514829
     25          1           0       -1.412234   -7.525182   -0.216671
     26          8           0       -1.122549   -5.872647    2.476665
     27          7           0       -2.023797   -3.746688   -0.483347
     28          1           0       -1.544837   -3.403793    0.335847
     29          6           0       -1.803589   -2.962351   -1.688829
     30          1           0       -1.763252   -3.645104   -2.542235
     31          6           0       -0.461648   -2.259435   -1.501687
     32          6           0       -2.980986   -1.966147   -1.929310
     33          1           0       -3.085237   -1.903919   -3.018597
     34          1           0       -3.899625   -2.446201   -1.597072
     35          8           0        0.083411   -2.210404   -0.385486
     36          6           0       -2.894992   -0.516305   -1.396450
     37          1           0       -3.374428    0.159078   -2.104411
     38          1           0       -1.870031   -0.174538   -1.244838
     39          6           0       -3.665781   -0.451652   -0.077013
     40          8           0       -3.138361   -0.326478    1.028982
     41          8           0       -4.958631   -0.603221   -0.262263
     42          7           0        0.075759   -1.683182   -2.580430
     43          1           0       -0.427152   -1.703909   -3.458575
     44          6           0        1.316555   -0.914551   -2.490196
     45          1           0        1.839503   -1.300268   -1.615772
     46          6           0        0.996257    0.581502   -2.292063
     47          6           0        2.186086   -1.112028   -3.736459
     48          1           0        3.168817   -0.678433   -3.509949
     49          1           0        1.765685   -0.507753   -4.547669
     50          8           0        0.636240    1.274731   -3.237988
     51          6           0        2.361043   -2.571755   -4.195731
     52          1           0        1.393567   -2.925276   -4.583315
     53          6           0        3.366657   -2.624059   -5.352099
     54          1           0        4.363367   -2.317197   -5.012528
     55          1           0        3.071599   -1.957299   -6.169671
     56          1           0        3.448911   -3.638670   -5.755868
     57          6           0        2.782170   -3.516367   -3.062837
     58          1           0        3.720347   -3.196208   -2.599824
     59          1           0        2.030700   -3.584274   -2.269799
     60          1           0        2.935091   -4.529483   -3.451715
     61          7           0        1.050151    1.020742   -1.003201
     62          1           0        1.517693    0.439773   -0.313958
     63          6           0        1.037869    2.447203   -0.715629
     64          1           0        0.700330    2.941182   -1.630580
     65          6           0        2.508369    2.843798   -0.439489
     66          6           0        0.136097    2.813569    0.475461
     67          1           0        0.590784    2.438614    1.397172
     68          1           0        0.105922    3.906608    0.576201
     69          8           0        3.421341    2.031185   -0.561426
     70          6           0       -1.302361    2.302390    0.405450
     71          1           0       -1.255975    1.210056    0.344397
     72          6           0       -2.047581    2.681008    1.690851
     73          1           0       -2.188439    3.766733    1.752146
     74          1           0       -1.484634    2.385340    2.585262
     75          1           0       -3.030247    2.202623    1.724116
     76          6           0       -2.038384    2.810856   -0.838236
     77          1           0       -2.080577    3.907363   -0.844264
     78          1           0       -1.551225    2.486577   -1.764943
     79          1           0       -3.072076    2.448120   -0.849913
     80          7           0        2.733940    4.091227    0.051847
     81          1           0        1.968306    4.741140    0.142361
     82          6           0        4.023392    4.408058    0.662443
     83          1           0        4.798396    4.304781   -0.097789
     84          6           0        4.354105    3.322003    1.704018
     85          6           0        4.047358    5.847377    1.222176
     86          1           0        3.851428    6.499014    0.357524
     87          8           0        5.486084    2.865424    1.848513
     88          6           0        5.438951    6.208179    1.777171
     89          1           0        5.395008    7.256277    2.097766
     90          1           0        5.626715    5.618121    2.683518
     91          6           0        2.973431    6.115100    2.287460
     92          1           0        3.155844    5.525781    3.191259
     93          1           0        1.953437    5.887800    1.955759
     94          1           0        2.988381    7.172969    2.567128
     95          6           0        6.601350    6.019432    0.798866
     96          1           0        7.516954    6.458922    1.206956
     97          1           0        6.399304    6.507891   -0.162420
     98          1           0        6.799966    4.959805    0.615509
     99          7           0        3.293985    2.892935    2.441313
    100          1           0        2.376872    3.295579    2.298718
    101          6           0        3.335243    1.628277    3.153720
    102          1           0        4.312895    1.564302    3.635829
    103          6           0        3.192599    0.512894    2.083956
    104          6           0        2.201549    1.521403    4.196179
    105          1           0        2.532499    0.895532    5.030146
    106          1           0        1.358534    1.024402    3.713452
    107          8           0        2.074701    0.093264    1.719109
    108          6           0        1.677846    2.882011    4.634227
    109          7           0        2.079374    3.335857    5.843834
    110          1           0        2.711168    2.820733    6.437360
    111          1           0        1.777350    4.253441    6.142067
    112          8           0        0.939576    3.526147    3.888514
    113          7           0        4.357716    0.118760    1.559418
    114          1           0        5.174178    0.671201    1.804342
    115          6           0        4.476156   -0.831815    0.452630
    116          1           0        3.711514   -0.583923   -0.292547
    117          6           0        4.249836   -2.236767    1.044235
    118          6           0        5.868429   -0.743649   -0.205686
    119          1           0        6.594148   -1.004365    0.574443
    120          8           0        5.071261   -2.762124    1.781244
    121          6           0        5.978753   -1.786548   -1.325199
    122          1           0        5.287776   -1.545446   -2.143333
    123          1           0        6.990637   -1.783361   -1.741572
    124          1           0        5.764313   -2.800460   -0.974389
    125          6           0        6.173620    0.654268   -0.756144
    126          1           0        5.441408    0.942072   -1.516859
    127          1           0        7.167510    0.652611   -1.216293
    128          1           0        6.161095    1.433150    0.009582
    129          7           0        3.068152   -2.828321    0.703239
    130          1           0        2.357754   -2.282858    0.231910
    131          6           0        2.657626   -4.067820    1.344011
    132          1           0        3.451254   -4.285638    2.071948
    133          6           0        2.681463   -5.224930    0.352434
    134          6           0        1.309680   -3.942063    2.049484
    135          1           0        1.021767   -4.905325    2.467061
    136          1           0        0.551243   -3.708754    1.294760
    137          8           0        1.818066   -6.071224    0.223894
    138          6           0        1.347241   -2.879073    3.150066
    139          1           0        1.744727   -1.941340    2.745318
    140          1           0        2.062908   -3.195943    3.917718
    141          6           0        0.013055   -2.594455    3.850257
    142          1           0       -0.349179   -3.495921    4.358640
    143          1           0        0.174338   -1.833462    4.626602
    144          6           0       -1.123001   -2.143502    2.938713
    145          1           0       -1.404282   -2.940880    2.249904
    146          1           0       -2.021518   -1.878425    3.499682
    147          7           0       -0.757289   -0.947928    2.095054
    148          1           0       -1.606229   -0.568854    1.609954
    149          1           0       -0.091242   -1.189674    1.346203
    150          1           0       -0.319009   -0.202849    2.641931
    151          8           0        3.813990   -5.239261   -0.371276
    152          1           0        3.768590   -6.018247   -0.956722
 ---------------------------------------------------------------------

 SCF Done:  E(RB3LYP) =  -3474.16859301     A.U. after    1 cycles

 Alpha  occ. eigenvalues --  -19.27743 -19.26149 -19.24725 -19.24033 -19.22717
 Alpha  occ. eigenvalues --  -19.22521 -19.21583 -19.21227 -19.20854 -19.20358
 Alpha  occ. eigenvalues --  -19.20189 -19.20077 -19.18763 -19.18633 -14.52696
 Alpha  occ. eigenvalues --  -14.48359 -14.45892 -14.45514 -14.45369 -14.45230
 Alpha  occ. eigenvalues --  -14.44745 -14.44384 -14.44145 -14.43661 -14.42882
 Alpha  occ. eigenvalues --  -14.42673 -10.41940 -10.41252 -10.40405 -10.38848
 Alpha  occ. eigenvalues --  -10.38626 -10.38413 -10.38111 -10.37230 -10.37193
 Alpha  occ. eigenvalues --  -10.37079 -10.36602 -10.35812 -10.34600 -10.33595
 Alpha  occ. eigenvalues --  -10.33564 -10.32792 -10.32617 -10.32291 -10.31480
 Alpha  occ. eigenvalues --  -10.31166 -10.30995 -10.30805 -10.29706 -10.29701
 Alpha  occ. eigenvalues --  -10.29572 -10.28268 -10.27932 -10.27512 -10.27457
 Alpha  occ. eigenvalues --  -10.27093 -10.26920 -10.26914 -10.26675 -10.26350
 Alpha  occ. eigenvalues --  -10.26024 -10.25562 -10.25180 -10.24877 -10.24825
 Alpha  occ. eigenvalues --  -10.24722 -10.24635 -10.24187 -10.23779 -10.22919
 Alpha  occ. eigenvalues --  -10.22415  -1.19558  -1.18996  -1.16541  -1.13941
 Alpha  occ. eigenvalues --   -1.13747  -1.13048  -1.12851  -1.12708  -1.11984
 Alpha  occ. eigenvalues --   -1.11486  -1.10990  -1.10852  -1.10481  -1.09832
 Alpha  occ. eigenvalues --   -1.07985  -1.04646  -1.02870  -1.02369  -1.02199
 Alpha  occ. eigenvalues --   -1.01843  -1.00798  -1.00477  -1.00313  -1.00133
 Alpha  occ. eigenvalues --   -0.99537  -0.97769  -0.91010  -0.89857  -0.89396
 Alpha  occ. eigenvalues --   -0.89170  -0.88809  -0.88069  -0.87633  -0.87019
 Alpha  occ. eigenvalues --   -0.85463  -0.85143  -0.83987  -0.83346  -0.82067
 Alpha  occ. eigenvalues --   -0.80668  -0.79986  -0.79284  -0.78395  -0.77017
 Alpha  occ. eigenvalues --   -0.76040  -0.75838  -0.75596  -0.75345  -0.74476
 Alpha  occ. eigenvalues --   -0.74424  -0.74256  -0.73400  -0.72249  -0.71537
 Alpha  occ. eigenvalues --   -0.70676  -0.70179  -0.69567  -0.69049  -0.68618
 Alpha  occ. eigenvalues --   -0.68023  -0.67825  -0.67481  -0.67438  -0.67209
 Alpha  occ. eigenvalues --   -0.67053  -0.66726  -0.66394  -0.66381  -0.65736
 Alpha  occ. eigenvalues --   -0.65419  -0.64690  -0.64513  -0.64073  -0.63596
 Alpha  occ. eigenvalues --   -0.63535  -0.61935  -0.61487  -0.61096  -0.60822
 Alpha  occ. eigenvalues --   -0.60513  -0.60136  -0.59951  -0.59357  -0.58981
 Alpha  occ. eigenvalues --   -0.58797  -0.58280  -0.58122  -0.58045  -0.57965
 Alpha  occ. eigenvalues --   -0.57718  -0.57318  -0.56763  -0.56677  -0.56389
 Alpha  occ. eigenvalues --   -0.56259  -0.56192  -0.55744  -0.55294  -0.55151
 Alpha  occ. eigenvalues --   -0.54688  -0.54353  -0.54305  -0.53973  -0.53761
 Alpha  occ. eigenvalues --   -0.53716  -0.53410  -0.53232  -0.53077  -0.52579
 Alpha  occ. eigenvalues --   -0.52312  -0.52072  -0.51557  -0.51086  -0.51013
 Alpha  occ. eigenvalues --   -0.50789  -0.50692  -0.50453  -0.50358  -0.50037
 Alpha  occ. eigenvalues --   -0.50022  -0.49596  -0.49514  -0.49389  -0.49263
 Alpha  occ. eigenvalues --   -0.49160  -0.49062  -0.48815  -0.48542  -0.48477
 Alpha  occ. eigenvalues --   -0.48463  -0.48260  -0.48198  -0.48051  -0.47860
 Alpha  occ. eigenvalues --   -0.47763  -0.47482  -0.47406  -0.47205  -0.47089
 Alpha  occ. eigenvalues --   -0.46919  -0.46562  -0.46548  -0.46355  -0.46061
 Alpha  occ. eigenvalues --   -0.45964  -0.45821  -0.45745  -0.45625  -0.45431
 Alpha  occ. eigenvalues --   -0.45383  -0.45189  -0.45166  -0.44982  -0.44924
 Alpha  occ. eigenvalues --   -0.44769  -0.44525  -0.43935  -0.43799  -0.43654
 Alpha  occ. eigenvalues --   -0.43614  -0.43197  -0.42592  -0.42205  -0.41469
 Alpha  occ. eigenvalues --   -0.41334  -0.41191  -0.40926  -0.40597  -0.40574
 Alpha  occ. eigenvalues --   -0.40424  -0.40409  -0.40294  -0.40185  -0.39937
 Alpha  occ. eigenvalues --   -0.39815  -0.39694  -0.39589  -0.39275  -0.39068
 Alpha  occ. eigenvalues --   -0.38882  -0.38270  -0.37790  -0.37532  -0.36916
 Alpha  occ. eigenvalues --   -0.36629  -0.36484  -0.36310  -0.36101  -0.35731
 Alpha  occ. eigenvalues --   -0.35662  -0.35190  -0.34750  -0.34374  -0.34241
 Alpha  occ. eigenvalues --   -0.33863  -0.33508  -0.33449  -0.33108  -0.32780
 Alpha  occ. eigenvalues --   -0.32690  -0.32411  -0.31817
 Alpha virt. eigenvalues --   -0.10600  -0.09131  -0.08964  -0.08528  -0.08028
 Alpha virt. eigenvalues --   -0.07802  -0.07188  -0.07000  -0.06671  -0.05632
 Alpha virt. eigenvalues --   -0.05370  -0.05159  -0.04806  -0.03666  -0.03214

 Mulliken charges:
               1
     1  N   -0.789156
     2  H    0.355990
     3  H    0.332133
     4  H    0.477709
     5  C   -0.071250
     6  H    0.181460
     7  C    0.622762
     8  C   -0.477224
     9  H    0.165598
    10  H    0.186403
    11  H    0.173933
    12  O   -0.531293
    13  N   -0.598238
    14  H    0.350545
    15  C   -0.092710
    16  H    0.210927
    17  C    0.618155
    18  C   -0.352316
    19  H    0.163653
    20  H    0.194953
    21  O   -0.538812
    22  C    0.582179
    23  N   -0.753156
    24  H    0.397384
    25  H    0.341536
    26  O   -0.529178
    27  N   -0.628569
    28  H    0.376797
    29  C   -0.056003
    30  H    0.202629
    31  C    0.639704
    32  C   -0.315451
    33  H    0.161303
    34  H    0.216608
    35  O   -0.591314
    36  C   -0.357112
    37  H    0.200621
    38  H    0.185947
    39  C    0.586357
    40  O   -0.517832
    41  O   -0.569195
    42  N   -0.584120
    43  H    0.357106
    44  C   -0.079165
    45  H    0.168722
    46  C    0.641751
    47  C   -0.302338
    48  H    0.166001
    49  H    0.177628
    50  O   -0.523259
    51  C   -0.072518
    52  H    0.112833
    53  C   -0.446405
    54  H    0.152004
    55  H    0.153858
    56  H    0.153020
    57  C   -0.473441
    58  H    0.169394
    59  H    0.135612
    60  H    0.145159
    61  N   -0.622846
    62  H    0.371758
    63  C   -0.094160
    64  H    0.211631
    65  C    0.628431
    66  C   -0.284419
    67  H    0.146505
    68  H    0.134925
    69  O   -0.523340
    70  C   -0.081875
    71  H    0.109245
    72  C   -0.451391
    73  H    0.153832
    74  H    0.135246
    75  H    0.156701
    76  C   -0.470923
    77  H    0.149348
    78  H    0.169634
    79  H    0.144545
    80  N   -0.645912
    81  H    0.341421
    82  C   -0.006876
    83  H    0.201253
    84  C    0.633728
    85  C   -0.125380
    86  H    0.146932
    87  O   -0.544909
    88  C   -0.254766
    89  H    0.145778
    90  H    0.148838
    91  C   -0.475820
    92  H    0.160493
    93  H    0.138109
    94  H    0.167299
    95  C   -0.467144
    96  H    0.157837
    97  H    0.144371
    98  H    0.173670
    99  N   -0.620311
   100  H    0.383863
   101  C   -0.040975
   102  H    0.190512
   103  C    0.654950
   104  C   -0.397960
   105  H    0.169652
   106  H    0.178036
   107  O   -0.612488
   108  C    0.608644
   109  N   -0.735484
   110  H    0.354361
   111  H    0.361122
   112  O   -0.527115
   113  N   -0.580843
   114  H    0.379718
   115  C   -0.033032
   116  H    0.154780
   117  C    0.633455
   118  C   -0.123595
   119  H    0.164006
   120  O   -0.514599
   121  C   -0.479275
   122  H    0.139684
   123  H    0.163537
   124  H    0.177554
   125  C   -0.468519
   126  H    0.158769
   127  H    0.147669
   128  H    0.177607
   129  N   -0.635580
   130  H    0.372644
   131  C   -0.069627
   132  H    0.220817
   133  C    0.612159
   134  C   -0.298441
   135  H    0.204753
   136  H    0.144173
   137  O   -0.485187
   138  C   -0.315582
   139  H    0.161636
   140  H    0.159441
   141  C   -0.281590
   142  H    0.196167
   143  H    0.140814
   144  C   -0.202211
   145  H    0.205984
   146  H    0.220403
   147  N   -0.826710
   148  H    0.458580
   149  H    0.440002
   150  H    0.407824
   151  O   -0.544167
   152  H    0.419884
 Sum of Mulliken charges =   1.00000

 Dipole moment (field-independent basis, Debye):
    X=             -5.4048    Y=             -2.5982    Z=              5.8312  Tot=              8.3645
 Quadrupole moment (field-independent basis, Debye-Ang):
   XX=           -346.0849   YY=           -342.7933   ZZ=           -360.8336
   XY=             42.3700   XZ=             -3.6447   YZ=             40.9556

 Normal termination of Gaussian 16 at Mon Jul 18 04:53:54 2022.
