 Gaussian 16, Revision C.01,
 Gaussian 16:  ES64L-G16RevC.01  3-Jul-2019

 ----------------------------------------------------------------------
 # B3LYP/6-31G* empiricaldispersion=gd3bj guess=read geom=check nosymm
 integral(ultrafinegrid)
 ----------------------------------------------------------------------

 ------------------------------------------------------
 Candidate Structure: Conf:217 Charge calc in gas phase
 ------------------------------------------------------
 Structure from the checkpoint file:  "conf-217.chk"
 Charge =  1 Multiplicity = 1

                          Input orientation:
 ---------------------------------------------------------------------
 Center     Atomic      Atomic             Coordinates (Angstroms)
 Number     Number       Type             X           Y           Z
 ---------------------------------------------------------------------
      1          7           0       -6.199698    0.431238  -10.459519
      2          1           0       -5.439082   -0.134910   -9.974492
      3          1           0       -5.812119    0.962170  -11.244325
      4          1           0       -6.884047   -0.243955  -10.821091
      5          6           0       -6.901997    1.311221   -9.448456
      6          1           0       -6.192634    2.077229   -9.124408
      7          6           0       -7.198689    0.311957   -8.321528
      8          6           0       -8.153528    1.935297  -10.040285
      9          1           0       -8.622706    2.587083   -9.298910
     10          1           0       -8.870676    1.155360  -10.311632
     11          1           0       -7.918533    2.536028  -10.925279
     12          8           0       -8.030305   -0.568299   -8.520862
     13          7           0       -6.410934    0.403524   -7.235797
     14          1           0       -5.673468    1.100111   -7.158232
     15          6           0       -6.203838   -0.738613   -6.366968
     16          1           0       -7.169605   -1.096079   -6.001918
     17          6           0       -5.300706   -0.263613   -5.226943
     18          6           0       -5.499512   -1.893357   -7.143026
     19          1           0       -6.207075   -2.306230   -7.863706
     20          1           0       -5.207897   -2.681517   -6.443136
     21          8           0       -4.553472    0.705451   -5.408141
     22          6           0       -4.283961   -1.374332   -7.899774
     23          7           0       -3.106295   -1.428123   -7.264265
     24          1           0       -2.313572   -0.990241   -7.715222
     25          1           0       -3.013220   -1.645111   -6.275527
     26          8           0       -4.366261   -0.900131   -9.050073
     27          7           0       -5.335458   -1.003900   -4.111344
     28          1           0       -5.885584   -1.854221   -4.090893
     29          6           0       -4.411027   -0.784789   -2.995373
     30          1           0       -4.181504    0.284613   -3.005615
     31          6           0       -3.102076   -1.551076   -3.248263
     32          6           0       -5.035306   -1.175511   -1.662377
     33          1           0       -5.374967   -2.216887   -1.700867
     34          1           0       -4.239757   -1.136995   -0.915102
     35          8           0       -2.836736   -2.599721   -2.676475
     36          6           0       -6.170192   -0.270929   -1.186072
     37          1           0       -7.058707   -0.382515   -1.818713
     38          1           0       -5.844107    0.776094   -1.191740
     39          6           0       -6.496835   -0.726739    0.273262
     40          8           0       -5.851170   -0.142374    1.183468
     41          8           0       -7.308151   -1.673513    0.367100
     42          7           0       -2.233768   -0.982747   -4.163097
     43          1           0       -2.477933   -0.054307   -4.499213
     44          6           0       -0.791575   -1.264162   -4.006883
     45          1           0       -0.735095   -2.327374   -3.771106
     46          6           0       -0.282474   -0.447606   -2.802671
     47          6           0        0.004937   -0.982827   -5.276277
     48          1           0       -0.180399    0.047525   -5.605178
     49          1           0       -0.373714   -1.660159   -6.055479
     50          8           0        0.354945    0.594932   -2.938015
     51          6           0        1.526925   -1.186465   -5.141737
     52          1           0        1.879262   -0.438797   -4.425655
     53          6           0        1.906669   -2.570906   -4.605552
     54          1           0        1.623261   -3.363353   -5.310800
     55          1           0        1.443794   -2.779037   -3.636974
     56          1           0        2.988993   -2.628123   -4.451813
     57          6           0        2.201802   -0.909104   -6.488696
     58          1           0        1.833412   -1.593526   -7.264620
     59          1           0        2.016718    0.117695   -6.824910
     60          1           0        3.286840   -1.047462   -6.418739
     61          7           0       -0.681677   -0.916002   -1.593210
     62          1           0       -1.089986   -1.842087   -1.556897
     63          6           0       -0.056174   -0.412478   -0.385914
     64          1           0       -0.158900    0.675719   -0.386258
     65          6           0        1.435681   -0.772188   -0.425935
     66          6           0       -0.737918   -0.996653    0.860526
     67          1           0       -0.478505   -2.061495    0.936940
     68          1           0       -0.309485   -0.505397    1.744233
     69          8           0        1.841812   -1.814796   -0.931303
     70          6           0       -2.270538   -0.825052    0.880051
     71          1           0       -2.682247   -1.421969    0.055420
     72          6           0       -2.855769   -1.381831    2.181695
     73          1           0       -2.477157   -0.821576    3.046542
     74          1           0       -2.594812   -2.438148    2.322788
     75          1           0       -3.946152   -1.288911    2.168495
     76          6           0       -2.706525    0.631830    0.687306
     77          1           0       -2.304390    1.260259    1.494162
     78          1           0       -2.349518    1.042207   -0.266288
     79          1           0       -3.802168    0.705889    0.706599
     80          7           0        2.255389    0.154042    0.138789
     81          1           0        1.861091    0.918856    0.672493
     82          6           0        3.668761   -0.091224    0.339166
     83          1           0        3.850338   -1.145002    0.114066
     84          6           0        3.974954    0.195227    1.804296
     85          6           0        4.544826    0.787667   -0.593860
     86          1           0        4.271327    1.829707   -0.381933
     87          8           0        3.435542    1.142195    2.396509
     88          6           0        4.214798    0.533419   -2.079352
     89          1           0        3.146104    0.711254   -2.242609
     90          1           0        4.745588    1.299135   -2.660865
     91          6           0        6.042767    0.615510   -0.299841
     92          1           0        6.336114   -0.439843   -0.261762
     93          1           0        6.329632    1.074278    0.651335
     94          1           0        6.636557    1.091690   -1.087600
     95          6           0        4.589922   -0.854345   -2.608270
     96          1           0        4.293707   -0.952465   -3.658586
     97          1           0        4.071142   -1.642752   -2.054761
     98          1           0        5.669061   -1.036019   -2.550735
     99          7           0        4.877051   -0.614514    2.398044
    100          1           0        5.453143   -1.254086    1.853231
    101          6           0        5.375390   -0.339935    3.741876
    102          1           0        4.523005    0.032103    4.317202
    103          6           0        6.444767    0.767858    3.707954
    104          6           0        5.901726   -1.633634    4.365364
    105          1           0        5.091571   -2.370581    4.328984
    106          1           0        6.155091   -1.468036    5.416414
    107          8           0        7.654771    0.523133    3.793188
    108          6           0        7.069781   -2.225134    3.578684
    109          7           0        8.097242   -2.714186    4.316652
    110          1           0        8.152441   -2.579003    5.312703
    111          1           0        8.898431   -3.086098    3.827272
    112          8           0        7.051090   -2.306658    2.352211
    113          7           0        5.935167    2.010712    3.557550
    114          1           0        4.934170    2.083504    3.382589
    115          6           0        6.798228    3.167099    3.306192
    116          1           0        7.587781    2.836781    2.618547
    117          6           0        7.450805    3.592293    4.634258
    118          6           0        6.041986    4.343120    2.668468
    119          1           0        5.314507    4.699499    3.407224
    120          8           0        6.988681    4.452008    5.375227
    121          6           0        7.026988    5.479494    2.360042
    122          1           0        7.770192    5.153016    1.621628
    123          1           0        6.492832    6.337378    1.940524
    124          1           0        7.555236    5.813442    3.256628
    125          6           0        5.304530    3.923581    1.390749
    126          1           0        6.002151    3.488326    0.664630
    127          1           0        4.841123    4.798870    0.924389
    128          1           0        4.512659    3.193835    1.577499
    129          7           0        8.621941    2.955976    4.916904
    130          1           0        8.792013    2.075324    4.435843
    131          6           0        9.254680    3.210422    6.191434
    132          1           0        8.580184    2.976798    7.025040
    133          6           0        9.597047    4.687595    6.373389
    134          6           0       10.534411    2.366841    6.306286
    135          1           0       11.234600    2.679005    5.522191
    136          1           0       10.273922    1.318901    6.108769
    137          8           0        9.557729    5.257241    7.440828
    138          6           0       11.181546    2.492697    7.688236
    139          1           0       10.459184    2.181011    8.453630
    140          1           0       11.412553    3.543042    7.896704
    141          6           0       12.457002    1.652793    7.817414
    142          1           0       12.238785    0.597183    7.605813
    143          1           0       13.194628    1.982108    7.072909
    144          6           0       13.044121    1.789721    9.215547
    145          1           0       13.289823    2.829612    9.444070
    146          1           0       12.350224    1.429761    9.979014
    147          7           0       14.324179    0.988658    9.365471
    148          1           0       14.732108    1.080387   10.309967
    149          1           0       15.036044    1.300385    8.685442
    150          1           0       14.155073   -0.015498    9.193563
    151          8           0       10.048271    5.263303    5.239419
    152          1           0       10.250146    6.189165    5.470925
 ---------------------------------------------------------------------

 SCF Done:  E(RB3LYP) =  -3473.96258751     A.U. after    4 cycles

 Alpha  occ. eigenvalues --  -19.26366 -19.22789 -19.22403 -19.20514 -19.20062
 Alpha  occ. eigenvalues --  -19.18825 -19.17709 -19.17687 -19.17457 -19.17064
 Alpha  occ. eigenvalues --  -19.14781 -19.14215 -19.01961 -19.01886 -14.63900
 Alpha  occ. eigenvalues --  -14.56225 -14.46269 -14.45076 -14.43921 -14.42365
 Alpha  occ. eigenvalues --  -14.42018 -14.41672 -14.41591 -14.41261 -14.39007
 Alpha  occ. eigenvalues --  -14.38183 -10.41188 -10.39817 -10.39709 -10.38783
 Alpha  occ. eigenvalues --  -10.37346 -10.36994 -10.35756 -10.35275 -10.34274
 Alpha  occ. eigenvalues --  -10.34218 -10.34098 -10.33694 -10.33396 -10.31503
 Alpha  occ. eigenvalues --  -10.31400 -10.31152 -10.30800 -10.30144 -10.29720
 Alpha  occ. eigenvalues --  -10.29529 -10.29504 -10.28646 -10.27234 -10.27063
 Alpha  occ. eigenvalues --  -10.26858 -10.26753 -10.25153 -10.24191 -10.23053
 Alpha  occ. eigenvalues --  -10.22917 -10.21793 -10.21770 -10.21632 -10.21590
 Alpha  occ. eigenvalues --  -10.20779 -10.20592 -10.20354 -10.20211 -10.19829
 Alpha  occ. eigenvalues --  -10.19414 -10.18838 -10.18548 -10.15556 -10.15185
 Alpha  occ. eigenvalues --  -10.14904  -1.17894  -1.17341  -1.15266  -1.13789
 Alpha  occ. eigenvalues --   -1.12012  -1.10700  -1.10674  -1.09662  -1.09360
 Alpha  occ. eigenvalues --   -1.09156  -1.09033  -1.08217  -1.06891  -1.05771
 Alpha  occ. eigenvalues --   -1.03189  -1.00339  -1.00214  -0.99163  -0.99025
 Alpha  occ. eigenvalues --   -0.98160  -0.97203  -0.97068  -0.95827  -0.95281
 Alpha  occ. eigenvalues --   -0.95077  -0.94967  -0.90109  -0.88847  -0.87466
 Alpha  occ. eigenvalues --   -0.86354  -0.86218  -0.85121  -0.84907  -0.83923
 Alpha  occ. eigenvalues --   -0.82888  -0.82250  -0.81573  -0.79495  -0.78512
 Alpha  occ. eigenvalues --   -0.78387  -0.77620  -0.76697  -0.76407  -0.75960
 Alpha  occ. eigenvalues --   -0.75594  -0.74771  -0.74011  -0.73109  -0.72143
 Alpha  occ. eigenvalues --   -0.72020  -0.71551  -0.71397  -0.71322  -0.70588
 Alpha  occ. eigenvalues --   -0.69088  -0.68752  -0.68246  -0.67609  -0.67403
 Alpha  occ. eigenvalues --   -0.66852  -0.66368  -0.66220  -0.66095  -0.65701
 Alpha  occ. eigenvalues --   -0.65160  -0.64485  -0.64244  -0.63407  -0.63140
 Alpha  occ. eigenvalues --   -0.62690  -0.62586  -0.62524  -0.62040  -0.61295
 Alpha  occ. eigenvalues --   -0.61151  -0.60509  -0.59975  -0.59456  -0.59294
 Alpha  occ. eigenvalues --   -0.59139  -0.58925  -0.58797  -0.58018  -0.57616
 Alpha  occ. eigenvalues --   -0.56905  -0.56391  -0.56329  -0.55928  -0.55766
 Alpha  occ. eigenvalues --   -0.55469  -0.55352  -0.55158  -0.54712  -0.54013
 Alpha  occ. eigenvalues --   -0.53480  -0.53399  -0.52935  -0.52623  -0.52589
 Alpha  occ. eigenvalues --   -0.52464  -0.52238  -0.51793  -0.51524  -0.51269
 Alpha  occ. eigenvalues --   -0.51016  -0.50534  -0.50116  -0.50059  -0.49684
 Alpha  occ. eigenvalues --   -0.49539  -0.49368  -0.49273  -0.48952  -0.48729
 Alpha  occ. eigenvalues --   -0.48586  -0.48095  -0.48038  -0.47933  -0.47593
 Alpha  occ. eigenvalues --   -0.47518  -0.46990  -0.46871  -0.46744  -0.46583
 Alpha  occ. eigenvalues --   -0.46464  -0.46389  -0.46231  -0.46108  -0.45661
 Alpha  occ. eigenvalues --   -0.45287  -0.45228  -0.44774  -0.44594  -0.44577
 Alpha  occ. eigenvalues --   -0.44540  -0.44437  -0.43988  -0.43903  -0.43723
 Alpha  occ. eigenvalues --   -0.43699  -0.43505  -0.43145  -0.42857  -0.42537
 Alpha  occ. eigenvalues --   -0.42351  -0.42002  -0.41931  -0.41874  -0.41765
 Alpha  occ. eigenvalues --   -0.41357  -0.41198  -0.40926  -0.40589  -0.40103
 Alpha  occ. eigenvalues --   -0.39868  -0.39564  -0.38826  -0.38629  -0.38513
 Alpha  occ. eigenvalues --   -0.38410  -0.38138  -0.37879  -0.37589  -0.36888
 Alpha  occ. eigenvalues --   -0.36808  -0.36582  -0.36377  -0.36143  -0.35858
 Alpha  occ. eigenvalues --   -0.35737  -0.35698  -0.35545  -0.35355  -0.35254
 Alpha  occ. eigenvalues --   -0.35185  -0.34989  -0.34693  -0.34630  -0.34386
 Alpha  occ. eigenvalues --   -0.34237  -0.33813  -0.33612  -0.33165  -0.32515
 Alpha  occ. eigenvalues --   -0.32398  -0.32092  -0.31930  -0.31788  -0.31785
 Alpha  occ. eigenvalues --   -0.31450  -0.30745  -0.30321  -0.29792  -0.29739
 Alpha  occ. eigenvalues --   -0.29223  -0.29076  -0.28269  -0.27588  -0.27079
 Alpha  occ. eigenvalues --   -0.17469  -0.16345  -0.15494
 Alpha virt. eigenvalues --   -0.15035  -0.10205  -0.08757  -0.08270  -0.08196
 Alpha virt. eigenvalues --   -0.06731  -0.06199  -0.06163  -0.05507  -0.05434
 Alpha virt. eigenvalues --   -0.04546  -0.03877  -0.03333  -0.03078  -0.02341

 Mulliken charges:
               1
     1  N   -0.762099
     2  H    0.461644
     3  H    0.403679
     4  H    0.408723
     5  C   -0.108087
     6  H    0.202056
     7  C    0.625402
     8  C   -0.461529
     9  H    0.212088
    10  H    0.201681
    11  H    0.170932
    12  O   -0.511796
    13  N   -0.597096
    14  H    0.364290
    15  C   -0.057153
    16  H    0.215464
    17  C    0.632453
    18  C   -0.380969
    19  H    0.210826
    20  H    0.189883
    21  O   -0.558561
    22  C    0.619269
    23  N   -0.721388
    24  H    0.361016
    25  H    0.388959
    26  O   -0.588147
    27  N   -0.587490
    28  H    0.351685
    29  C   -0.071022
    30  H    0.190060
    31  C    0.607049
    32  C   -0.306422
    33  H    0.155796
    34  H    0.198540
    35  O   -0.505413
    36  C   -0.316282
    37  H    0.102057
    38  H    0.113163
    39  C    0.544936
    40  O   -0.571161
    41  O   -0.572032
    42  N   -0.647297
    43  H    0.352640
    44  C   -0.076072
    45  H    0.189946
    46  C    0.642099
    47  C   -0.267962
    48  H    0.136480
    49  H    0.109255
    50  O   -0.540874
    51  C   -0.089807
    52  H    0.182377
    53  C   -0.463515
    54  H    0.126744
    55  H    0.174246
    56  H    0.152314
    57  C   -0.449510
    58  H    0.127368
    59  H    0.138095
    60  H    0.147857
    61  N   -0.605665
    62  H    0.367305
    63  C   -0.049789
    64  H    0.169557
    65  C    0.636573
    66  C   -0.293410
    67  H    0.144265
    68  H    0.134652
    69  O   -0.542929
    70  C   -0.074234
    71  H    0.133026
    72  C   -0.463824
    73  H    0.118461
    74  H    0.117092
    75  H    0.225265
    76  C   -0.488211
    77  H    0.119073
    78  H    0.111854
    79  H    0.225674
    80  N   -0.604341
    81  H    0.347323
    82  C   -0.059763
    83  H    0.184305
    84  C    0.630273
    85  C   -0.071470
    86  H    0.140111
    87  O   -0.570123
    88  C   -0.275235
    89  H    0.180946
    90  H    0.125730
    91  C   -0.488702
    92  H    0.159836
    93  H    0.148772
    94  H    0.151157
    95  C   -0.477384
    96  H    0.147590
    97  H    0.185720
    98  H    0.132838
    99  N   -0.607939
   100  H    0.389281
   101  C   -0.078668
   102  H    0.192814
   103  C    0.643113
   104  C   -0.379440
   105  H    0.201542
   106  H    0.148963
   107  O   -0.563604
   108  C    0.650293
   109  N   -0.744299
   110  H    0.335322
   111  H    0.346939
   112  O   -0.528039
   113  N   -0.630738
   114  H    0.387505
   115  C   -0.034055
   116  H    0.160195
   117  C    0.632226
   118  C   -0.107510
   119  H    0.164090
   120  O   -0.520814
   121  C   -0.462049
   122  H    0.137399
   123  H    0.155073
   124  H    0.167562
   125  C   -0.482609
   126  H    0.145653
   127  H    0.155726
   128  H    0.173974
   129  N   -0.635292
   130  H    0.366924
   131  C    0.018803
   132  H    0.179496
   133  C    0.602261
   134  C   -0.319904
   135  H    0.171834
   136  H    0.159227
   137  O   -0.473147
   138  C   -0.280608
   139  H    0.164219
   140  H    0.183819
   141  C   -0.287018
   142  H    0.162541
   143  H    0.167792
   144  C   -0.209013
   145  H    0.229208
   146  H    0.225777
   147  N   -0.689796
   148  H    0.398634
   149  H    0.393475
   150  H    0.391328
   151  O   -0.557919
   152  H    0.417745
 Sum of Mulliken charges =   1.00000

 Dipole moment (field-independent basis, Debye):
    X=             57.1989    Y=              6.0733    Z=              1.6692  Tot=             57.5446
 Quadrupole moment (field-independent basis, Debye-Ang):
   XX=            410.2874   YY=           -423.6369   ZZ=            250.9434
   XY=              9.0300   XZ=            770.8326   YZ=            -16.1147

 Normal termination of Gaussian 16 at Mon Jul 18 04:55:18 2022.
