 Gaussian 16, Revision C.01,
 Gaussian 16:  ES64L-G16RevC.01  3-Jul-2019

 ----------------------------------------------------------------------
 # B3LYP/6-31G* empiricaldispersion=gd3bj guess=read geom=check nosymm
 integral(ultrafinegrid)
 ----------------------------------------------------------------------

 ------------------------------------------------------
 Candidate Structure: Conf:102 Charge calc in gas phase
 ------------------------------------------------------
 Structure from the checkpoint file:  "conf-102.chk"
 Charge =  1 Multiplicity = 1

                          Input orientation:
 ---------------------------------------------------------------------
 Center     Atomic      Atomic             Coordinates (Angstroms)
 Number     Number       Type             X           Y           Z
 ---------------------------------------------------------------------
      1          7           0       -1.133458   -4.428510    1.970723
      2          1           0       -1.205392   -4.499050    2.985398
      3          1           0       -0.284869   -2.853244    1.860852
      4          1           0       -0.409431   -5.084458    1.671985
      5          6           0       -2.407434   -4.873805    1.363026
      6          1           0       -2.779774   -5.783032    1.861801
      7          6           0       -2.080340   -5.277710   -0.083782
      8          6           0       -3.464118   -3.775601    1.485959
      9          1           0       -4.450043   -4.121309    1.160969
     10          1           0       -3.185196   -2.898682    0.892681
     11          1           0       -3.558389   -3.465322    2.531393
     12          8           0       -0.929590   -5.637177   -0.377210
     13          7           0       -3.074023   -5.180437   -0.985757
     14          1           0       -4.048271   -5.086201   -0.694788
     15          6           0       -2.884363   -5.464940   -2.414267
     16          1           0       -2.175828   -6.293908   -2.508171
     17          6           0       -2.273122   -4.158188   -2.981722
     18          6           0       -4.218483   -5.775049   -3.115254
     19          1           0       -4.003849   -6.314264   -4.042184
     20          1           0       -4.670058   -4.818131   -3.398688
     21          8           0       -2.953039   -3.315936   -3.564012
     22          6           0       -5.239042   -6.502526   -2.250061
     23          7           0       -5.749636   -7.649592   -2.753804
     24          1           0       -6.493196   -8.108266   -2.243861
     25          1           0       -5.522019   -7.986742   -3.676771
     26          8           0       -5.596081   -6.049643   -1.159394
     27          7           0       -0.983102   -3.934478   -2.605418
     28          1           0       -0.575857   -4.665146   -2.023313
     29          6           0       -0.639434   -2.564872   -2.200737
     30          1           0       -1.595787   -2.061051   -2.009947
     31          6           0        0.034918   -1.737221   -3.309376
     32          6           0        0.184026   -2.559084   -0.910031
     33          1           0       -0.047430   -3.450081   -0.326166
     34          1           0        1.248458   -2.583306   -1.158023
     35          8           0        1.208970   -1.348966   -3.218579
     36          6           0       -0.152486   -1.298608   -0.105006
     37          1           0       -1.230194   -1.283696    0.106547
     38          1           0        0.078531   -0.406788   -0.688408
     39          6           0        0.579969   -1.187396    1.215331
     40          8           0        1.339224   -0.253619    1.448563
     41          8           0        0.371989   -2.130324    2.122131
     42          7           0       -0.785265   -1.408816   -4.320507
     43          1           0       -1.729155   -1.795121   -4.306531
     44          6           0       -0.391986   -0.503333   -5.405117
     45          1           0        0.666862   -0.694698   -5.601066
     46          6           0       -0.543600    0.952425   -4.895414
     47          6           0       -1.236098   -0.771858   -6.647692
     48          1           0       -2.275461   -0.507824   -6.420130
     49          1           0       -1.204081   -1.851182   -6.848890
     50          8           0       -1.423466    1.708827   -5.290308
     51          6           0       -0.792111   -0.006984   -7.907407
     52          1           0       -0.836909    1.063597   -7.676932
     53          6           0        0.639616   -0.359966   -8.331706
     54          1           0        0.740124   -1.437278   -8.517704
     55          1           0        1.382384   -0.079161   -7.576114
     56          1           0        0.906610    0.161959   -9.256994
     57          6           0       -1.777605   -0.287355   -9.048306
     58          1           0       -1.778731   -1.352560   -9.313690
     59          1           0       -2.799472   -0.008755   -8.767712
     60          1           0       -1.508864    0.278724   -9.946712
     61          7           0        0.371676    1.280746   -3.943112
     62          1           0        1.056379    0.580467   -3.671157
     63          6           0        0.376855    2.543008   -3.244034
     64          1           0       -0.251100    3.234416   -3.811348
     65          6           0        1.807867    3.051992   -3.137762
     66          6           0       -0.122991    2.438258   -1.775911
     67          1           0        0.583189    1.796129   -1.230148
     68          1           0       -0.048145    3.430455   -1.310782
     69          8           0        2.760656    2.256940   -3.086406
     70          6           0       -1.547833    1.900600   -1.583690
     71          1           0       -1.580567    0.879586   -1.991480
     72          6           0       -1.853041    1.841990   -0.079198
     73          1           0       -1.924865    2.854623    0.335657
     74          1           0       -1.071307    1.316562    0.481112
     75          1           0       -2.809328    1.340796    0.108110
     76          6           0       -2.598537    2.742210   -2.317789
     77          1           0       -2.548267    3.789699   -1.992385
     78          1           0       -2.466993    2.702807   -3.402211
     79          1           0       -3.606365    2.377313   -2.090709
     80          7           0        1.960100    4.383407   -2.993790
     81          1           0        1.115977    4.936434   -2.900022
     82          6           0        3.147864    4.944680   -2.347555
     83          1           0        4.005282    4.380277   -2.719649
     84          6           0        2.954040    4.719945   -0.837494
     85          6           0        3.313539    6.436700   -2.674448
     86          1           0        2.437068    6.948438   -2.253295
     87          8           0        1.967749    5.167041   -0.260180
     88          6           0        3.332565    6.694996   -4.194464
     89          1           0        2.354769    6.433887   -4.616490
     90          1           0        3.449766    7.775312   -4.343913
     91          6           0        4.556581    6.990494   -1.964622
     92          1           0        5.467022    6.459651   -2.266255
     93          1           0        4.464660    6.912764   -0.876294
     94          1           0        4.693149    8.048218   -2.209209
     95          6           0        4.421951    5.950145   -4.972536
     96          1           0        4.399012    6.238195   -6.028212
     97          1           0        4.279689    4.863987   -4.930578
     98          1           0        5.424543    6.176724   -4.593824
     99          7           0        3.892946    3.946005   -0.237341
    100          1           0        4.728295    3.689952   -0.746391
    101          6           0        3.902574    3.657470    1.190208
    102          1           0        3.884086    4.587358    1.765223
    103          6           0        5.181666    2.874287    1.478590
    104          6           0        2.685379    2.813496    1.625425
    105          1           0        2.714186    1.817705    1.175878
    106          1           0        1.786786    3.319385    1.258743
    107          8           0        5.709613    2.164470    0.593755
    108          6           0        2.591803    2.711544    3.147967
    109          7           0        1.809337    1.715027    3.607587
    110          1           0        1.601891    0.917050    3.010959
    111          1           0        1.842301    1.554271    4.605953
    112          8           0        3.150446    3.533354    3.883641
    113          7           0        5.651465    2.974718    2.723975
    114          1           0        4.999625    3.401784    3.389360
    115          6           0        6.614104    2.017088    3.260943
    116          1           0        7.489325    2.002615    2.602663
    117          6           0        5.936672    0.635248    3.269453
    118          6           0        7.032164    2.449859    4.683322
    119          1           0        6.109643    2.487635    5.279713
    120          8           0        4.746715    0.518246    3.547622
    121          6           0        7.979550    1.426113    5.320807
    122          1           0        8.895971    1.313205    4.727193
    123          1           0        8.275977    1.762285    6.318923
    124          1           0        7.520630    0.438666    5.424358
    125          6           0        7.672599    3.843166    4.661885
    126          1           0        8.596932    3.835358    4.071129
    127          1           0        7.927903    4.157556    5.678768
    128          1           0        7.006111    4.597744    4.234122
    129          7           0        6.722109   -0.416045    2.927723
    130          1           0        7.724531   -0.311103    2.831193
    131          6           0        6.204479   -1.771055    2.916713
    132          1           0        5.376146   -1.819768    3.629888
    133          6           0        7.320404   -2.697039    3.365999
    134          6           0        5.683054   -2.192688    1.518438
    135          1           0        5.198899   -3.171046    1.613354
    136          1           0        6.541407   -2.321618    0.844354
    137          8           0        8.480930   -2.365741    3.477307
    138          6           0        4.726951   -1.152109    0.933579
    139          1           0        5.262999   -0.199741    0.892258
    140          1           0        3.876198   -0.995032    1.604041
    141          6           0        4.212386   -1.504105   -0.463781
    142          1           0        5.039052   -1.813364   -1.121731
    143          1           0        3.532034   -2.363053   -0.416317
    144          6           0        3.449818   -0.353927   -1.112460
    145          1           0        2.955989   -0.654509   -2.036947
    146          1           0        2.695173    0.044384   -0.430685
    147          7           0        4.364259    0.796022   -1.456740
    148          1           0        3.827745    1.496605   -2.015235
    149          1           0        5.140880    0.470933   -2.039329
    150          1           0        4.782857    1.274381   -0.623808
    151          8           0        6.873149   -3.946886    3.586355
    152          1           0        7.647336   -4.485727    3.839287
 ---------------------------------------------------------------------

 SCF Done:  E(RB3LYP) =  -3474.17259081     A.U. after    2 cycles

 Alpha  occ. eigenvalues --  -19.27979 -19.26159 -19.22658 -19.22601 -19.22419
 Alpha  occ. eigenvalues --  -19.22209 -19.22209 -19.22020 -19.20978 -19.20630
 Alpha  occ. eigenvalues --  -19.20014 -19.19174 -19.18528 -19.17986 -14.52156
 Alpha  occ. eigenvalues --  -14.46016 -14.45645 -14.45303 -14.44916 -14.44547
 Alpha  occ. eigenvalues --  -14.44457 -14.44272 -14.43947 -14.43544 -14.42532
 Alpha  occ. eigenvalues --  -14.40759 -10.40584 -10.40371 -10.38978 -10.38815
 Alpha  occ. eigenvalues --  -10.38589 -10.38520 -10.38391 -10.37466 -10.37195
 Alpha  occ. eigenvalues --  -10.36341 -10.35650 -10.35570 -10.33886 -10.32782
 Alpha  occ. eigenvalues --  -10.32510 -10.32403 -10.32220 -10.31837 -10.31800
 Alpha  occ. eigenvalues --  -10.31450 -10.31108 -10.30299 -10.29044 -10.28842
 Alpha  occ. eigenvalues --  -10.28388 -10.28288 -10.27428 -10.27366 -10.27202
 Alpha  occ. eigenvalues --  -10.27022 -10.27007 -10.26601 -10.26074 -10.26056
 Alpha  occ. eigenvalues --  -10.25207 -10.24929 -10.24619 -10.24358 -10.24192
 Alpha  occ. eigenvalues --  -10.24117 -10.24081 -10.24062 -10.22828 -10.22813
 Alpha  occ. eigenvalues --  -10.22199  -1.18990  -1.17642  -1.14360  -1.14286
 Alpha  occ. eigenvalues --   -1.13871  -1.13370  -1.12447  -1.12398  -1.12003
 Alpha  occ. eigenvalues --   -1.11353  -1.10293  -1.10038  -1.09564  -1.09297
 Alpha  occ. eigenvalues --   -1.07457  -1.02690  -1.02622  -1.01794  -1.01731
 Alpha  occ. eigenvalues --   -1.01521  -1.00776  -1.00671  -0.99657  -0.99610
 Alpha  occ. eigenvalues --   -0.99576  -0.96234  -0.90009  -0.89798  -0.89573
 Alpha  occ. eigenvalues --   -0.88606  -0.88206  -0.88098  -0.87201  -0.86153
 Alpha  occ. eigenvalues --   -0.85532  -0.83939  -0.83890  -0.82553  -0.80931
 Alpha  occ. eigenvalues --   -0.80404  -0.80028  -0.78831  -0.78128  -0.77330
 Alpha  occ. eigenvalues --   -0.75672  -0.75153  -0.74531  -0.73857  -0.73607
 Alpha  occ. eigenvalues --   -0.73312  -0.73284  -0.72936  -0.71556  -0.70724
 Alpha  occ. eigenvalues --   -0.70264  -0.69786  -0.68934  -0.68639  -0.68307
 Alpha  occ. eigenvalues --   -0.67640  -0.67380  -0.66997  -0.66874  -0.66621
 Alpha  occ. eigenvalues --   -0.66525  -0.66069  -0.65613  -0.65496  -0.65204
 Alpha  occ. eigenvalues --   -0.64335  -0.63754  -0.63346  -0.63230  -0.62401
 Alpha  occ. eigenvalues --   -0.62008  -0.61800  -0.61545  -0.61399  -0.60568
 Alpha  occ. eigenvalues --   -0.60420  -0.59771  -0.59575  -0.58959  -0.58835
 Alpha  occ. eigenvalues --   -0.58481  -0.57916  -0.57850  -0.57735  -0.57318
 Alpha  occ. eigenvalues --   -0.56846  -0.56571  -0.56318  -0.56140  -0.55703
 Alpha  occ. eigenvalues --   -0.55662  -0.55479  -0.55135  -0.54603  -0.54359
 Alpha  occ. eigenvalues --   -0.54238  -0.54056  -0.53906  -0.53682  -0.53476
 Alpha  occ. eigenvalues --   -0.52791  -0.52523  -0.52329  -0.52068  -0.51791
 Alpha  occ. eigenvalues --   -0.51696  -0.51497  -0.51351  -0.51298  -0.51107
 Alpha  occ. eigenvalues --   -0.50808  -0.50443  -0.50359  -0.49929  -0.49748
 Alpha  occ. eigenvalues --   -0.49577  -0.49555  -0.49268  -0.49014  -0.48889
 Alpha  occ. eigenvalues --   -0.48786  -0.48703  -0.48533  -0.48380  -0.48167
 Alpha  occ. eigenvalues --   -0.47881  -0.47721  -0.47601  -0.47523  -0.47363
 Alpha  occ. eigenvalues --   -0.47192  -0.47055  -0.46978  -0.46752  -0.46298
 Alpha  occ. eigenvalues --   -0.46205  -0.46083  -0.46028  -0.45823  -0.45691
 Alpha  occ. eigenvalues --   -0.45655  -0.45476  -0.45350  -0.45293  -0.44864
 Alpha  occ. eigenvalues --   -0.44678  -0.44546  -0.44439  -0.44353  -0.44049
 Alpha  occ. eigenvalues --   -0.43863  -0.43775  -0.43665  -0.43441  -0.43079
 Alpha  occ. eigenvalues --   -0.42972  -0.42758  -0.42662  -0.42420  -0.41767
 Alpha  occ. eigenvalues --   -0.41698  -0.40994  -0.40895  -0.40141  -0.40031
 Alpha  occ. eigenvalues --   -0.39963  -0.39946  -0.39798  -0.39672  -0.39492
 Alpha  occ. eigenvalues --   -0.39393  -0.39100  -0.38598  -0.38155  -0.38013
 Alpha  occ. eigenvalues --   -0.37851  -0.37468  -0.37112  -0.37017  -0.36907
 Alpha  occ. eigenvalues --   -0.36379  -0.36164  -0.36135  -0.35923  -0.35556
 Alpha  occ. eigenvalues --   -0.35468  -0.35260  -0.34892  -0.34507  -0.34041
 Alpha  occ. eigenvalues --   -0.33418  -0.33087  -0.33027  -0.32898  -0.32598
 Alpha  occ. eigenvalues --   -0.32191  -0.31635  -0.31229
 Alpha virt. eigenvalues --   -0.09642  -0.08763  -0.08452  -0.08322  -0.07681
 Alpha virt. eigenvalues --   -0.07240  -0.07047  -0.06438  -0.06365  -0.05400
 Alpha virt. eigenvalues --   -0.04368  -0.04222  -0.03933  -0.02355  -0.01416

 Mulliken charges:
               1
     1  N   -0.776566
     2  H    0.337017
     3  H    0.466956
     4  H    0.352047
     5  C   -0.062608
     6  H    0.180915
     7  C    0.634802
     8  C   -0.465181
     9  H    0.184384
    10  H    0.159478
    11  H    0.170235
    12  O   -0.561525
    13  N   -0.625234
    14  H    0.396567
    15  C   -0.056608
    16  H    0.193362
    17  C    0.607665
    18  C   -0.403541
    19  H    0.166779
    20  H    0.230009
    21  O   -0.514346
    22  C    0.623810
    23  N   -0.739689
    24  H    0.361682
    25  H    0.354459
    26  O   -0.532102
    27  N   -0.602736
    28  H    0.378400
    29  C   -0.071766
    30  H    0.178156
    31  C    0.654192
    32  C   -0.336965
    33  H    0.175718
    34  H    0.185539
    35  O   -0.566364
    36  C   -0.411287
    37  H    0.178884
    38  H    0.193483
    39  C    0.620621
    40  O   -0.497231
    41  O   -0.597695
    42  N   -0.619462
    43  H    0.380469
    44  C   -0.064203
    45  H    0.178946
    46  C    0.630224
    47  C   -0.274553
    48  H    0.159372
    49  H    0.137745
    50  O   -0.518585
    51  C   -0.083191
    52  H    0.158033
    53  C   -0.452218
    54  H    0.141253
    55  H    0.136208
    56  H    0.153807
    57  C   -0.446289
    58  H    0.138330
    59  H    0.150535
    60  H    0.149824
    61  N   -0.619613
    62  H    0.372107
    63  C   -0.073827
    64  H    0.192618
    65  C    0.646677
    66  C   -0.291031
    67  H    0.138672
    68  H    0.163547
    69  O   -0.588008
    70  C   -0.071101
    71  H    0.120431
    72  C   -0.459133
    73  H    0.158529
    74  H    0.141727
    75  H    0.145129
    76  C   -0.477262
    77  H    0.137521
    78  H    0.194714
    79  H    0.148991
    80  N   -0.576224
    81  H    0.355631
    82  C   -0.057429
    83  H    0.155598
    84  C    0.639056
    85  C   -0.107574
    86  H    0.155484
    87  O   -0.534616
    88  C   -0.254407
    89  H    0.140118
    90  H    0.152321
    91  C   -0.471800
    92  H    0.144451
    93  H    0.163044
    94  H    0.170060
    95  C   -0.462320
    96  H    0.163629
    97  H    0.147927
    98  H    0.151647
    99  N   -0.650881
   100  H    0.338233
   101  C   -0.012551
   102  H    0.207723
   103  C    0.616935
   104  C   -0.404521
   105  H    0.177779
   106  H    0.226865
   107  O   -0.595377
   108  C    0.625810
   109  N   -0.756310
   110  H    0.388971
   111  H    0.343667
   112  O   -0.548789
   113  N   -0.600219
   114  H    0.399517
   115  C   -0.037296
   116  H    0.161672
   117  C    0.628650
   118  C   -0.113218
   119  H    0.163320
   120  O   -0.540808
   121  C   -0.466289
   122  H    0.147399
   123  H    0.167637
   124  H    0.160171
   125  C   -0.448084
   126  H    0.147965
   127  H    0.164316
   128  H    0.158482
   129  N   -0.605001
   130  H    0.353071
   131  C   -0.043379
   132  H    0.207203
   133  C    0.585324
   134  C   -0.266013
   135  H    0.165420
   136  H    0.140716
   137  O   -0.462475
   138  C   -0.307211
   139  H    0.159187
   140  H    0.193568
   141  C   -0.282217
   142  H    0.139581
   143  H    0.168904
   144  C   -0.245383
   145  H    0.239165
   146  H    0.222348
   147  N   -0.815373
   148  H    0.441738
   149  H    0.379914
   150  H    0.440907
   151  O   -0.561501
   152  H    0.425496
 Sum of Mulliken charges =   1.00000

 Dipole moment (field-independent basis, Debye):
    X=              7.8001    Y=            -10.5744    Z=             -4.6573  Tot=             13.9409
 Quadrupole moment (field-independent basis, Debye-Ang):
   XX=           -303.0081   YY=           -290.7226   ZZ=           -372.5042
   XY=             73.7544   XZ=             19.5492   YZ=              0.7376

 Normal termination of Gaussian 16 at Mon Jul 18 04:54:43 2022.
