 Gaussian 16, Revision C.01,
 Gaussian 16:  ES64L-G16RevC.01  3-Jul-2019

 ----------------------------------------------------------------------
 # B3LYP/6-31G* empiricaldispersion=gd3bj guess=read geom=check nosymm
 integral(ultrafinegrid)
 ----------------------------------------------------------------------

 ------------------------------------------------------
 Candidate Structure: Conf:234 Charge calc in gas phase
 ------------------------------------------------------
 Structure from the checkpoint file:  "conf-234.chk"
 Charge =  1 Multiplicity = 1

                          Input orientation:
 ---------------------------------------------------------------------
 Center     Atomic      Atomic             Coordinates (Angstroms)
 Number     Number       Type             X           Y           Z
 ---------------------------------------------------------------------
      1          7           0       -1.762882   -1.365024    2.199182
      2          1           0       -0.956282   -1.731199    1.693124
      3          1           0       -1.457501   -1.226258    3.162928
      4          1           0       -2.013878    0.054236    1.677279
      5          6           0       -2.847733   -2.362184    2.093705
      6          1           0       -2.601220   -3.256328    2.686746
      7          6           0       -2.839481   -2.821635    0.624322
      8          6           0       -4.161442   -1.771899    2.601977
      9          1           0       -4.968217   -2.509941    2.603477
     10          1           0       -4.475115   -0.916175    1.994976
     11          1           0       -4.035248   -1.424291    3.632311
     12          8           0       -1.757249   -2.940437    0.028003
     13          7           0       -4.032514   -3.067529    0.064152
     14          1           0       -4.913354   -2.831155    0.529523
     15          6           0       -4.207007   -3.433021   -1.343614
     16          1           0       -3.430763   -4.157111   -1.608885
     17          6           0       -4.050042   -2.165418   -2.211197
     18          6           0       -5.595040   -4.049535   -1.549325
     19          1           0       -5.648784   -4.991254   -0.991771
     20          1           0       -5.725089   -4.283183   -2.608703
     21          8           0       -5.018986   -1.543654   -2.637874
     22          6           0       -6.721367   -3.157775   -1.028519
     23          7           0       -7.785175   -2.992864   -1.848558
     24          1           0       -8.496972   -2.341111   -1.542971
     25          1           0       -7.676631   -3.115613   -2.844914
     26          8           0       -6.696837   -2.698108    0.117893
     27          7           0       -2.757658   -1.805549   -2.406174
     28          1           0       -2.034333   -2.339066   -1.929087
     29          6           0       -2.392735   -0.518931   -2.946502
     30          1           0       -3.249092   -0.156230   -3.522172
     31          6           0       -1.141882   -0.676847   -3.818262
     32          6           0       -2.033235    0.497782   -1.829200
     33          1           0       -1.043505    0.236908   -1.435359
     34          1           0       -1.948624    1.503025   -2.253168
     35          8           0       -0.448487   -1.691982   -3.768256
     36          6           0       -3.036728    0.541036   -0.663863
     37          1           0       -3.144096   -0.445637   -0.216201
     38          1           0       -4.018970    0.861836   -1.023207
     39          6           0       -2.525462    1.542551    0.347899
     40          8           0       -2.027867    1.105253    1.491802
     41          8           0       -2.480516    2.742449    0.067600
     42          7           0       -0.795488    0.422108   -4.541672
     43          1           0       -1.360855    1.257836   -4.463758
     44          6           0        0.551369    0.590475   -5.104835
     45          1           0        0.818405   -0.359641   -5.572987
     46          6           0        1.503807    0.849745   -3.924691
     47          6           0        0.559181    1.711629   -6.141067
     48          1           0        0.139940    2.618629   -5.686700
     49          1           0       -0.114848    1.411332   -6.953562
     50          8           0        1.792598    1.995906   -3.544563
     51          6           0        1.948609    2.052419   -6.713781
     52          1           0        2.514004    2.545034   -5.914403
     53          6           0        2.731766    0.810052   -7.158052
     54          1           0        2.167351    0.226364   -7.896291
     55          1           0        2.975028    0.149136   -6.317412
     56          1           0        3.679446    1.102792   -7.622190
     57          6           0        1.798880    3.049203   -7.868455
     58          1           0        1.262193    2.595967   -8.711158
     59          1           0        1.243424    3.941335   -7.557116
     60          1           0        2.779194    3.373918   -8.232786
     61          7           0        1.953570   -0.264543   -3.315927
     62          1           0        1.532437   -1.140720   -3.613887
     63          6           0        2.553705   -0.239810   -1.982741
     64          1           0        2.187945    0.676614   -1.505015
     65          6           0        4.080519   -0.076200   -2.008167
     66          6           0        2.123743   -1.463335   -1.164446
     67          1           0        1.126759   -1.776674   -1.500067
     68          1           0        2.814839   -2.287634   -1.365514
     69          8           0        4.805019   -0.684943   -1.221251
     70          6           0        2.068280   -1.194446    0.348724
     71          1           0        3.039929   -0.797944    0.663707
     72          6           0        0.981880   -0.161789    0.671661
     73          1           0        0.020698   -0.489188    0.261411
     74          1           0        1.217153    0.824431    0.263087
     75          1           0        0.860601   -0.042759    1.752240
     76          6           0        1.804952   -2.506543    1.096706
     77          1           0        0.839610   -2.940364    0.804511
     78          1           0        2.583573   -3.246416    0.882522
     79          1           0        1.794152   -2.339919    2.180332
     80          7           0        4.549658    0.848801   -2.884524
     81          1           0        3.868527    1.436749   -3.351641
     82          6           0        5.934239    1.319681   -2.805678
     83          1           0        6.506250    0.467973   -2.432088
     84          6           0        5.982475    2.423246   -1.727353
     85          6           0        6.482101    1.720042   -4.187084
     86          1           0        6.463343    0.787652   -4.769414
     87          8           0        6.111019    3.627032   -1.975212
     88          6           0        7.945983    2.194330   -4.106793
     89          1           0        8.294073    2.352536   -5.135069
     90          1           0        7.977470    3.171430   -3.613719
     91          6           0        5.616075    2.750892   -4.925361
     92          1           0        5.577424    3.695065   -4.377316
     93          1           0        4.592690    2.393508   -5.087375
     94          1           0        6.039939    2.948317   -5.915680
     95          6           0        8.896443    1.222707   -3.400324
     96          1           0        9.933576    1.559477   -3.496828
     97          1           0        8.833156    0.215235   -3.829628
     98          1           0        8.683482    1.142426   -2.327830
     99          7           0        5.766212    1.968696   -0.468981
    100          1           0        5.568588    0.979587   -0.306760
    101          6           0        5.625991    2.855913    0.667356
    102          1           0        6.558592    3.416935    0.801407
    103          6           0        5.405190    1.959911    1.895496
    104          6           0        4.500136    3.933275    0.520187
    105          1           0        4.916565    4.759277   -0.056674
    106          1           0        4.225608    4.299651    1.514098
    107          8           0        4.885939    0.846322    1.802222
    108          6           0        3.239691    3.426436   -0.159736
    109          7           0        3.184994    3.601893   -1.486819
    110          1           0        4.016213    3.930724   -1.968620
    111          1           0        2.470175    3.137110   -2.045797
    112          8           0        2.318640    2.900820    0.495431
    113          7           0        5.842452    2.478618    3.065319
    114          1           0        6.264499    3.397041    3.076964
    115          6           0        5.857505    1.702534    4.313105
    116          1           0        6.061914    0.664395    4.028593
    117          6           0        4.451697    1.783896    4.939691
    118          6           0        6.953230    2.199682    5.266613
    119          1           0        6.688647    3.223649    5.561917
    120          8           0        4.144362    2.610770    5.790830
    121          6           0        6.976275    1.332706    6.532685
    122          1           0        7.193062    0.286079    6.284954
    123          1           0        7.759409    1.681491    7.212901
    124          1           0        6.023618    1.377665    7.065321
    125          6           0        8.330066    2.195995    4.589118
    126          1           0        8.603049    1.183861    4.266830
    127          1           0        9.094946    2.540030    5.292120
    128          1           0        8.377920    2.847044    3.709438
    129          7           0        3.577004    0.871025    4.427919
    130          1           0        3.855573    0.412425    3.562287
    131          6           0        2.161197    0.985739    4.735772
    132          1           0        2.092460    1.183418    5.814211
    133          6           0        1.459215   -0.344372    4.503855
    134          6           0        1.542839    2.177100    3.983969
    135          1           0        1.720226    2.024767    2.912517
    136          1           0        2.161950    3.032229    4.279073
    137          8           0        0.285967   -0.465394    4.205643
    138          6           0        0.074118    2.506661    4.280150
    139          1           0       -0.113283    2.433395    5.357493
    140          1           0       -0.582541    1.761582    3.821849
    141          6           0       -0.321490    3.926299    3.825677
    142          1           0       -1.411932    4.031781    3.862723
    143          1           0        0.091086    4.667875    4.520153
    144          6           0        0.194382    4.303950    2.438218
    145          1           0       -0.203574    5.264292    2.103586
    146          1           0        1.283580    4.360475    2.430233
    147          7           0       -0.164605    3.281453    1.400327
    148          1           0       -1.081929    3.421461    0.913015
    149          1           0       -0.281614    2.354883    1.818753
    150          1           0        0.615660    3.189375    0.719119
    151          8           0        2.270518   -1.398810    4.696797
    152          1           0        1.728882   -2.202114    4.575676
 ---------------------------------------------------------------------

 SCF Done:  E(RB3LYP) =  -3474.19036685     A.U. after    1 cycles

 Alpha  occ. eigenvalues --  -19.29634 -19.26223 -19.24439 -19.22572 -19.22453
 Alpha  occ. eigenvalues --  -19.22169 -19.21968 -19.21813 -19.21367 -19.20218
 Alpha  occ. eigenvalues --  -19.20140 -19.19992 -19.19799 -19.19586 -14.51040
 Alpha  occ. eigenvalues --  -14.46285 -14.46218 -14.45364 -14.44922 -14.44549
 Alpha  occ. eigenvalues --  -14.44045 -14.43945 -14.43921 -14.43776 -14.43737
 Alpha  occ. eigenvalues --  -14.43299 -10.42410 -10.41034 -10.39485 -10.38875
 Alpha  occ. eigenvalues --  -10.38697 -10.38473 -10.38176 -10.37484 -10.37109
 Alpha  occ. eigenvalues --  -10.37069 -10.36821 -10.36454 -10.33787 -10.33513
 Alpha  occ. eigenvalues --  -10.32910 -10.32732 -10.32681 -10.32629 -10.32546
 Alpha  occ. eigenvalues --  -10.31623 -10.31425 -10.30478 -10.29498 -10.29413
 Alpha  occ. eigenvalues --  -10.28867 -10.28600 -10.28526 -10.27554 -10.27397
 Alpha  occ. eigenvalues --  -10.27123 -10.26929 -10.26848 -10.26141 -10.26035
 Alpha  occ. eigenvalues --  -10.25930 -10.25893 -10.25076 -10.24755 -10.24404
 Alpha  occ. eigenvalues --  -10.24375 -10.23819 -10.23802 -10.23789 -10.23784
 Alpha  occ. eigenvalues --  -10.23206  -1.20847  -1.17852  -1.14193  -1.14026
 Alpha  occ. eigenvalues --   -1.13444  -1.13344  -1.13147  -1.12310  -1.11916
 Alpha  occ. eigenvalues --   -1.11738  -1.11533  -1.11452  -1.11324  -1.09219
 Alpha  occ. eigenvalues --   -1.06978  -1.02740  -1.02445  -1.02132  -1.01965
 Alpha  occ. eigenvalues --   -1.01295  -1.01131  -1.00899  -1.00187  -1.00112
 Alpha  occ. eigenvalues --   -1.00039  -0.98311  -0.90251  -0.90070  -0.89245
 Alpha  occ. eigenvalues --   -0.88998  -0.88696  -0.87884  -0.87553  -0.86759
 Alpha  occ. eigenvalues --   -0.85828  -0.84771  -0.83775  -0.83036  -0.81183
 Alpha  occ. eigenvalues --   -0.81083  -0.80240  -0.79411  -0.78318  -0.76796
 Alpha  occ. eigenvalues --   -0.76230  -0.76107  -0.75558  -0.75403  -0.75090
 Alpha  occ. eigenvalues --   -0.74109  -0.73716  -0.72731  -0.71914  -0.70577
 Alpha  occ. eigenvalues --   -0.69898  -0.69514  -0.69307  -0.68852  -0.68500
 Alpha  occ. eigenvalues --   -0.67860  -0.67729  -0.67228  -0.66860  -0.66762
 Alpha  occ. eigenvalues --   -0.66531  -0.66352  -0.66176  -0.65922  -0.65530
 Alpha  occ. eigenvalues --   -0.64922  -0.64242  -0.63896  -0.63786  -0.63128
 Alpha  occ. eigenvalues --   -0.62608  -0.62549  -0.62135  -0.61695  -0.61340
 Alpha  occ. eigenvalues --   -0.60513  -0.60311  -0.59434  -0.59264  -0.59147
 Alpha  occ. eigenvalues --   -0.58717  -0.58498  -0.58314  -0.58253  -0.57561
 Alpha  occ. eigenvalues --   -0.57322  -0.57262  -0.57081  -0.56943  -0.56271
 Alpha  occ. eigenvalues --   -0.56148  -0.55580  -0.55177  -0.55026  -0.54873
 Alpha  occ. eigenvalues --   -0.54634  -0.54579  -0.54329  -0.53865  -0.53642
 Alpha  occ. eigenvalues --   -0.53571  -0.53141  -0.52869  -0.52390  -0.52134
 Alpha  occ. eigenvalues --   -0.51899  -0.51695  -0.51625  -0.51531  -0.51147
 Alpha  occ. eigenvalues --   -0.50703  -0.50561  -0.50404  -0.50241  -0.50114
 Alpha  occ. eigenvalues --   -0.49917  -0.49858  -0.49743  -0.49539  -0.49261
 Alpha  occ. eigenvalues --   -0.49188  -0.49094  -0.49042  -0.48716  -0.48471
 Alpha  occ. eigenvalues --   -0.48296  -0.48170  -0.48107  -0.47943  -0.47764
 Alpha  occ. eigenvalues --   -0.47657  -0.47474  -0.47377  -0.47221  -0.47100
 Alpha  occ. eigenvalues --   -0.47033  -0.46813  -0.46690  -0.46401  -0.46197
 Alpha  occ. eigenvalues --   -0.46133  -0.45873  -0.45830  -0.45671  -0.45579
 Alpha  occ. eigenvalues --   -0.45036  -0.44995  -0.44955  -0.44816  -0.44598
 Alpha  occ. eigenvalues --   -0.44506  -0.44393  -0.44346  -0.43842  -0.43600
 Alpha  occ. eigenvalues --   -0.43573  -0.43447  -0.42981  -0.42762  -0.42213
 Alpha  occ. eigenvalues --   -0.41817  -0.41756  -0.41569  -0.40828  -0.40657
 Alpha  occ. eigenvalues --   -0.40298  -0.40280  -0.40252  -0.40017  -0.39888
 Alpha  occ. eigenvalues --   -0.39725  -0.39552  -0.39377  -0.38955  -0.38531
 Alpha  occ. eigenvalues --   -0.38081  -0.37789  -0.37613  -0.37165  -0.37052
 Alpha  occ. eigenvalues --   -0.36863  -0.36728  -0.36488  -0.36335  -0.35719
 Alpha  occ. eigenvalues --   -0.35461  -0.35366  -0.35045  -0.34844  -0.34227
 Alpha  occ. eigenvalues --   -0.34190  -0.33720  -0.33634  -0.33590  -0.32727
 Alpha  occ. eigenvalues --   -0.32575  -0.32168  -0.31760
 Alpha virt. eigenvalues --   -0.09601  -0.09516  -0.09350  -0.08633  -0.08283
 Alpha virt. eigenvalues --   -0.08149  -0.07092  -0.06549  -0.06113  -0.06016
 Alpha virt. eigenvalues --   -0.05394  -0.05113  -0.03269  -0.02497  -0.01876

 Mulliken charges:
               1
     1  N   -0.844055
     2  H    0.380722
     3  H    0.370904
     4  H    0.493688
     5  C   -0.051573
     6  H    0.179721
     7  C    0.621850
     8  C   -0.481225
     9  H    0.190098
    10  H    0.170793
    11  H    0.169831
    12  O   -0.562356
    13  N   -0.634498
    14  H    0.413243
    15  C   -0.077095
    16  H    0.190743
    17  C    0.631000
    18  C   -0.377758
    19  H    0.197090
    20  H    0.171111
    21  O   -0.532570
    22  C    0.633795
    23  N   -0.724509
    24  H    0.353796
    25  H    0.353937
    26  O   -0.540337
    27  N   -0.600952
    28  H    0.379405
    29  C   -0.075729
    30  H    0.198981
    31  C    0.635945
    32  C   -0.304534
    33  H    0.165545
    34  H    0.168148
    35  O   -0.533131
    36  C   -0.360676
    37  H    0.164753
    38  H    0.204667
    39  C    0.614746
    40  O   -0.642618
    41  O   -0.520820
    42  N   -0.605328
    43  H    0.343101
    44  C   -0.061153
    45  H    0.191098
    46  C    0.621619
    47  C   -0.276391
    48  H    0.144759
    49  H    0.156061
    50  O   -0.577931
    51  C   -0.098240
    52  H    0.157689
    53  C   -0.459424
    54  H    0.151137
    55  H    0.138828
    56  H    0.159770
    57  C   -0.447656
    58  H    0.148788
    59  H    0.146944
    60  H    0.154420
    61  N   -0.594076
    62  H    0.382905
    63  C   -0.079208
    64  H    0.182511
    65  C    0.634212
    66  C   -0.299565
    67  H    0.155870
    68  H    0.170751
    69  O   -0.528385
    70  C   -0.090121
    71  H    0.182811
    72  C   -0.528734
    73  H    0.139842
    74  H    0.164754
    75  H    0.146038
    76  C   -0.477438
    77  H    0.167140
    78  H    0.163466
    79  H    0.108523
    80  N   -0.629026
    81  H    0.369782
    82  C   -0.080575
    83  H    0.196879
    84  C    0.626225
    85  C   -0.070189
    86  H    0.138433
    87  O   -0.555672
    88  C   -0.267811
    89  H    0.141384
    90  H    0.166605
    91  C   -0.500379
    92  H    0.175280
    93  H    0.144411
    94  H    0.157974
    95  C   -0.459385
    96  H    0.158949
    97  H    0.149907
    98  H    0.140308
    99  N   -0.648995
   100  H    0.406090
   101  C   -0.006138
   102  H    0.180576
   103  C    0.620693
   104  C   -0.375111
   105  H    0.203913
   106  H    0.171785
   107  O   -0.534732
   108  C    0.612425
   109  N   -0.763727
   110  H    0.378776
   111  H    0.391006
   112  O   -0.575081
   113  N   -0.614878
   114  H    0.344416
   115  C   -0.043216
   116  H    0.178894
   117  C    0.629144
   118  C   -0.109405
   119  H    0.154400
   120  O   -0.526789
   121  C   -0.463910
   122  H    0.146532
   123  H    0.161207
   124  H    0.177447
   125  C   -0.450203
   126  H    0.155261
   127  H    0.167719
   128  H    0.129336
   129  N   -0.611884
   130  H    0.374014
   131  C   -0.053146
   132  H    0.215739
   133  C    0.603338
   134  C   -0.302787
   135  H    0.163391
   136  H    0.176724
   137  O   -0.491912
   138  C   -0.311205
   139  H    0.163277
   140  H    0.174928
   141  C   -0.285272
   142  H    0.169840
   143  H    0.175407
   144  C   -0.175510
   145  H    0.193348
   146  H    0.196829
   147  N   -0.809023
   148  H    0.422323
   149  H    0.425454
   150  H    0.418096
   151  O   -0.536135
   152  H    0.424165
 Sum of Mulliken charges =   1.00000

 Dipole moment (field-independent basis, Debye):
    X=              1.5055    Y=              3.8001    Z=             -0.1879  Tot=              4.0917
 Quadrupole moment (field-independent basis, Debye-Ang):
   XX=           -323.1282   YY=           -373.6877   ZZ=           -348.6053
   XY=             49.6416   XZ=             22.6431   YZ=              3.6989

 Normal termination of Gaussian 16 at Mon Jul 18 04:53:37 2022.
