 Gaussian 16, Revision C.01,
 Gaussian 16:  ES64L-G16RevC.01  3-Jul-2019

 ----------------------------------------------------------------------
 # B3LYP/6-31G* empiricaldispersion=gd3bj guess=read geom=check nosymm
 integral(ultrafinegrid)
 ----------------------------------------------------------------------

 ------------------------------------------------------
 Candidate Structure: Conf:883 Charge calc in gas phase
 ------------------------------------------------------
 Structure from the checkpoint file:  "conf-883.chk"
 Charge =  1 Multiplicity = 1

                          Input orientation:
 ---------------------------------------------------------------------
 Center     Atomic      Atomic             Coordinates (Angstroms)
 Number     Number       Type             X           Y           Z
 ---------------------------------------------------------------------
      1          7           0       -5.540852    0.913147  -10.801157
      2          1           0       -4.541695    0.972558  -11.009734
      3          1           0       -6.040400    1.607536  -11.357712
      4          1           0       -5.848974   -0.044601  -11.046955
      5          6           0       -5.815067    1.042517   -9.338533
      6          1           0       -5.151600    1.794767   -8.906577
      7          6           0       -5.500667   -0.348336   -8.769176
      8          6           0       -7.273581    1.407640   -9.088501
      9          1           0       -7.456654    1.504046   -8.016327
     10          1           0       -7.931232    0.624454   -9.477750
     11          1           0       -7.532131    2.357270   -9.567372
     12          8           0       -5.622100   -1.326765   -9.521181
     13          7           0       -5.141699   -0.405157   -7.488177
     14          1           0       -5.157810    0.396275   -6.860896
     15          6           0       -4.973065   -1.672030   -6.799525
     16          1           0       -5.899204   -2.249473   -6.902456
     17          6           0       -4.790050   -1.316359   -5.321239
     18          6           0       -3.797239   -2.499408   -7.370994
     19          1           0       -2.907700   -2.392324   -6.745841
     20          1           0       -3.546638   -2.142450   -8.370188
     21          8           0       -4.807064   -0.126129   -4.976467
     22          6           0       -4.212869   -3.957820   -7.391863
     23          7           0       -4.590171   -4.436311   -8.603906
     24          1           0       -4.982517   -5.365652   -8.635682
     25          1           0       -4.792979   -3.793751   -9.356221
     26          8           0       -4.239491   -4.618154   -6.361319
     27          7           0       -4.616280   -2.346640   -4.490614
     28          1           0       -4.472890   -3.277280   -4.886942
     29          6           0       -4.353802   -2.134080   -3.062464
     30          1           0       -4.921608   -1.243009   -2.783494
     31          6           0       -2.855951   -1.842336   -2.896688
     32          6           0       -4.800327   -3.313209   -2.212914
     33          1           0       -5.805868   -3.619208   -2.510463
     34          1           0       -4.131794   -4.160401   -2.387319
     35          8           0       -2.032666   -2.705698   -2.589596
     36          6           0       -4.806777   -2.925019   -0.738877
     37          1           0       -5.530106   -2.115422   -0.573551
     38          1           0       -3.831989   -2.553148   -0.425685
     39          6           0       -5.242493   -4.090400    0.200847
     40          8           0       -4.843711   -3.989424    1.385725
     41          8           0       -5.978382   -4.958244   -0.303769
     42          7           0       -2.496874   -0.562517   -3.152536
     43          1           0       -3.201370    0.080322   -3.491186
     44          6           0       -1.095728   -0.175275   -3.208978
     45          1           0       -0.544778   -1.055898   -3.552723
     46          6           0       -0.598007    0.144508   -1.791959
     47          6           0       -0.875060    0.991483   -4.162374
     48          1           0        0.197540    1.219313   -4.174393
     49          1           0       -1.370701    1.878567   -3.759484
     50          8           0       -0.522153    1.303426   -1.367317
     51          6           0       -1.349533    0.740078   -5.601804
     52          1           0       -2.438844    0.623478   -5.583748
     53          6           0       -1.020816    1.956800   -6.469452
     54          1           0        0.061019    2.120310   -6.510590
     55          1           0       -1.483914    2.864942   -6.071207
     56          1           0       -1.376383    1.816894   -7.496496
     57          6           0       -0.748167   -0.529201   -6.206517
     58          1           0        0.342173   -0.446238   -6.276048
     59          1           0       -0.981988   -1.421567   -5.616233
     60          1           0       -1.132515   -0.690721   -7.220680
     61          7           0       -0.270731   -0.937703   -1.059041
     62          1           0       -0.497457   -1.849328   -1.442694
     63          6           0        0.191373   -0.856226    0.324535
     64          1           0       -0.353266   -0.030397    0.795749
     65          6           0        1.693096   -0.499556    0.355191
     66          6           0       -0.056353   -2.164197    1.070475
     67          1           0        0.586902   -2.935734    0.634420
     68          1           0        0.299149   -2.025656    2.096649
     69          8           0        2.545312   -1.228380    0.850794
     70          6           0       -1.505982   -2.656586    1.110446
     71          1           0       -1.814960   -2.914799    0.088854
     72          6           0       -1.586490   -3.927665    1.959640
     73          1           0       -1.298607   -3.706328    2.993799
     74          1           0       -0.906834   -4.699122    1.579844
     75          1           0       -2.602595   -4.324615    1.961336
     76          6           0       -2.467591   -1.599231    1.654852
     77          1           0       -2.176871   -1.310705    2.672325
     78          1           0       -2.480298   -0.694247    1.034807
     79          1           0       -3.480702   -2.007644    1.693997
     80          7           0        1.989525    0.687591   -0.242561
     81          1           0        1.224106    1.289687   -0.535803
     82          6           0        3.347471    1.180824   -0.299973
     83          1           0        3.959143    0.379592    0.118141
     84          6           0        3.472880    2.418332    0.590917
     85          6           0        3.783745    1.449300   -1.761580
     86          1           0        3.596760    0.500772   -2.283252
     87          8           0        2.643898    3.314775    0.602813
     88          6           0        5.279343    1.770798   -1.891613
     89          1           0        5.465261    2.033477   -2.940851
     90          1           0        5.523993    2.657873   -1.302460
     91          6           0        2.935877    2.535957   -2.432897
     92          1           0        3.150273    3.518635   -2.006180
     93          1           0        1.866218    2.348627   -2.303222
     94          1           0        3.151039    2.570021   -3.505142
     95          6           0        6.212845    0.625677   -1.506545
     96          1           0        7.255928    0.897094   -1.694638
     97          1           0        5.990470   -0.277836   -2.084333
     98          1           0        6.129934    0.361524   -0.445372
     99          7           0        4.578752    2.419916    1.404849
    100          1           0        5.341337    1.807340    1.155205
    101          6           0        4.937984    3.594502    2.169019
    102          1           0        4.041138    4.211623    2.229033
    103          6           0        6.061986    4.358084    1.452824
    104          6           0        5.353395    3.195568    3.594479
    105          1           0        6.295432    2.635461    3.588195
    106          1           0        4.583820    2.516067    3.974722
    107          8           0        6.771020    3.804352    0.602763
    108          6           0        5.442997    4.368949    4.561977
    109          7           0        6.108862    4.130555    5.716493
    110          1           0        6.510442    3.232443    5.929822
    111          1           0        6.161319    4.872718    6.396923
    112          8           0        4.926438    5.459148    4.326701
    113          7           0        6.230410    5.635860    1.843950
    114          1           0        5.699801    5.934682    2.660066
    115          6           0        7.325388    6.466399    1.347478
    116          1           0        7.399770    6.251801    0.276292
    117          6           0        8.644681    6.021302    2.002433
    118          6           0        6.994106    7.958919    1.510203
    119          1           0        6.050770    8.076799    0.962062
    120          8           0        9.171382    6.568193    2.963735
    121          6           0        6.762115    8.409982    2.957265
    122          1           0        7.707839    8.477177    3.495943
    123          1           0        6.293635    9.398645    2.957439
    124          1           0        6.107495    7.731256    3.511581
    125          6           0        8.059034    8.823842    0.828843
    126          1           0        9.023588    8.702876    1.328237
    127          1           0        7.781911    9.880452    0.879858
    128          1           0        8.179661    8.554608   -0.225189
    129          7           0        9.199134    4.925925    1.411747
    130          1           0        8.604965    4.377423    0.794485
    131          6           0       10.358087    4.304068    2.011547
    132          1           0       10.183341    4.131021    3.080242
    133          6           0       11.588847    5.198332    1.947085
    134          6           0       10.638331    2.968931    1.309525
    135          1           0       10.854929    3.163966    0.254365
    136          1           0        9.718876    2.373617    1.347612
    137          8           0       12.412142    5.280643    2.830358
    138          6           0       11.782255    2.191162    1.955116
    139          1           0       11.549249    2.027607    3.014839
    140          1           0       12.690435    2.803743    1.932692
    141          6           0       12.021634    0.844089    1.276274
    142          1           0       11.089076    0.269425    1.260103
    143          1           0       12.309301    0.999812    0.229132
    144          6           0       13.071887   -0.010134    1.970058
    145          1           0       12.832049   -0.118339    3.031190
    146          1           0       13.119356   -1.011575    1.537543
    147          7           0       14.442673    0.602092    1.877478
    148          1           0       15.151664    0.037953    2.364625
    149          1           0       14.452824    1.540631    2.296606
    150          1           0       14.738897    0.702423    0.897860
    151          8           0       11.710356    5.835242    0.764920
    152          1           0       12.525964    6.359812    0.823229
 ---------------------------------------------------------------------

 SCF Done:  E(RB3LYP) =  -3473.92779960     A.U. after    4 cycles

 Alpha  occ. eigenvalues --  -19.27143 -19.26850 -19.21409 -19.20002 -19.19148
 Alpha  occ. eigenvalues --  -19.18488 -19.18488 -19.17675 -19.15124 -19.14928
 Alpha  occ. eigenvalues --  -19.14194 -19.12601 -19.00948 -19.00807 -14.62993
 Alpha  occ. eigenvalues --  -14.62786 -14.49183 -14.43346 -14.42797 -14.42025
 Alpha  occ. eigenvalues --  -14.41679 -14.41601 -14.40189 -14.39468 -14.37778
 Alpha  occ. eigenvalues --  -14.36378 -10.43643 -10.41837 -10.40554 -10.39480
 Alpha  occ. eigenvalues --  -10.36802 -10.36515 -10.36287 -10.34857 -10.34341
 Alpha  occ. eigenvalues --  -10.34121 -10.33841 -10.33707 -10.32044 -10.31785
 Alpha  occ. eigenvalues --  -10.31672 -10.31445 -10.30961 -10.29802 -10.29499
 Alpha  occ. eigenvalues --  -10.28792 -10.28503 -10.28491 -10.26819 -10.26471
 Alpha  occ. eigenvalues --  -10.25545 -10.25191 -10.24279 -10.24120 -10.23719
 Alpha  occ. eigenvalues --  -10.23348 -10.23140 -10.22721 -10.22470 -10.22115
 Alpha  occ. eigenvalues --  -10.21749 -10.21653 -10.20748 -10.19956 -10.19174
 Alpha  occ. eigenvalues --  -10.17403 -10.16920 -10.16334 -10.14006 -10.13381
 Alpha  occ. eigenvalues --  -10.13327  -1.20002  -1.18275  -1.17533  -1.16299
 Alpha  occ. eigenvalues --   -1.12034  -1.11107  -1.10728  -1.10254  -1.09461
 Alpha  occ. eigenvalues --   -1.09091  -1.07314  -1.07064  -1.05879  -1.05741
 Alpha  occ. eigenvalues --   -1.04407  -0.99434  -0.98898  -0.98618  -0.98357
 Alpha  occ. eigenvalues --   -0.97604  -0.97038  -0.96209  -0.95091  -0.94606
 Alpha  occ. eigenvalues --   -0.94516  -0.94212  -0.93544  -0.89223  -0.88242
 Alpha  occ. eigenvalues --   -0.86432  -0.86026  -0.85541  -0.84610  -0.83626
 Alpha  occ. eigenvalues --   -0.83181  -0.82535  -0.81511  -0.80110  -0.78583
 Alpha  occ. eigenvalues --   -0.78110  -0.77953  -0.77583  -0.76527  -0.76331
 Alpha  occ. eigenvalues --   -0.75939  -0.75416  -0.75199  -0.74647  -0.74261
 Alpha  occ. eigenvalues --   -0.74051  -0.72650  -0.72368  -0.71762  -0.71324
 Alpha  occ. eigenvalues --   -0.70639  -0.69312  -0.68466  -0.67739  -0.66832
 Alpha  occ. eigenvalues --   -0.66819  -0.66489  -0.66069  -0.65419  -0.65224
 Alpha  occ. eigenvalues --   -0.65086  -0.64375  -0.64346  -0.63381  -0.63016
 Alpha  occ. eigenvalues --   -0.62692  -0.62465  -0.62047  -0.61709  -0.61157
 Alpha  occ. eigenvalues --   -0.60991  -0.60755  -0.60731  -0.60426  -0.59415
 Alpha  occ. eigenvalues --   -0.59338  -0.58837  -0.58659  -0.58463  -0.57682
 Alpha  occ. eigenvalues --   -0.57211  -0.56802  -0.56450  -0.55848  -0.55571
 Alpha  occ. eigenvalues --   -0.55266  -0.55041  -0.54923  -0.54438  -0.54108
 Alpha  occ. eigenvalues --   -0.53894  -0.53712  -0.53612  -0.53524  -0.53242
 Alpha  occ. eigenvalues --   -0.52963  -0.52629  -0.52196  -0.51706  -0.51648
 Alpha  occ. eigenvalues --   -0.51472  -0.51161  -0.51034  -0.50485  -0.50031
 Alpha  occ. eigenvalues --   -0.49931  -0.49590  -0.49504  -0.49477  -0.49288
 Alpha  occ. eigenvalues --   -0.48608  -0.48256  -0.48087  -0.47959  -0.47903
 Alpha  occ. eigenvalues --   -0.47632  -0.47575  -0.46589  -0.46437  -0.46416
 Alpha  occ. eigenvalues --   -0.46285  -0.46069  -0.45846  -0.45680  -0.45590
 Alpha  occ. eigenvalues --   -0.45217  -0.45137  -0.45011  -0.44869  -0.44758
 Alpha  occ. eigenvalues --   -0.44258  -0.44029  -0.43718  -0.43634  -0.43586
 Alpha  occ. eigenvalues --   -0.43172  -0.42772  -0.42630  -0.42387  -0.42112
 Alpha  occ. eigenvalues --   -0.41950  -0.41734  -0.41695  -0.41350  -0.41252
 Alpha  occ. eigenvalues --   -0.41122  -0.40659  -0.40327  -0.40036  -0.39858
 Alpha  occ. eigenvalues --   -0.39418  -0.39259  -0.39113  -0.39014  -0.38714
 Alpha  occ. eigenvalues --   -0.38575  -0.38046  -0.37935  -0.37854  -0.37632
 Alpha  occ. eigenvalues --   -0.37492  -0.37271  -0.36715  -0.36544  -0.35862
 Alpha  occ. eigenvalues --   -0.35681  -0.35573  -0.35513  -0.35103  -0.34808
 Alpha  occ. eigenvalues --   -0.34369  -0.34256  -0.33844  -0.33293  -0.33282
 Alpha  occ. eigenvalues --   -0.33216  -0.32855  -0.32671  -0.32651  -0.32479
 Alpha  occ. eigenvalues --   -0.31621  -0.30895  -0.30692  -0.30358  -0.30074
 Alpha  occ. eigenvalues --   -0.29866  -0.29550  -0.29409  -0.29126  -0.28719
 Alpha  occ. eigenvalues --   -0.28080  -0.28002  -0.26927  -0.26274  -0.25107
 Alpha  occ. eigenvalues --   -0.16490  -0.15254  -0.14566
 Alpha virt. eigenvalues --   -0.14051  -0.13370  -0.12129  -0.07518  -0.07505
 Alpha virt. eigenvalues --   -0.07327  -0.06921  -0.05954  -0.05363  -0.04841
 Alpha virt. eigenvalues --   -0.04661  -0.04642  -0.04383  -0.03573  -0.03482

 Mulliken charges:
               1
     1  N   -0.720352
     2  H    0.427429
     3  H    0.421125
     4  H    0.425705
     5  C   -0.140445
     6  H    0.226082
     7  C    0.656553
     8  C   -0.473639
     9  H    0.230861
    10  H    0.203316
    11  H    0.191251
    12  O   -0.553116
    13  N   -0.615641
    14  H    0.374724
    15  C   -0.040114
    16  H    0.214662
    17  C    0.619192
    18  C   -0.389846
    19  H    0.219874
    20  H    0.160791
    21  O   -0.573890
    22  C    0.588339
    23  N   -0.732289
    24  H    0.359708
    25  H    0.352741
    26  O   -0.482638
    27  N   -0.619360
    28  H    0.396021
    29  C   -0.068092
    30  H    0.173293
    31  C    0.635424
    32  C   -0.261388
    33  H    0.151915
    34  H    0.165173
    35  O   -0.535618
    36  C   -0.392574
    37  H    0.118776
    38  H    0.152257
    39  C    0.576713
    40  O   -0.571278
    41  O   -0.576024
    42  N   -0.606175
    43  H    0.360851
    44  C   -0.066062
    45  H    0.168331
    46  C    0.648725
    47  C   -0.287391
    48  H    0.150704
    49  H    0.165432
    50  O   -0.564816
    51  C   -0.087168
    52  H    0.121558
    53  C   -0.436780
    54  H    0.152026
    55  H    0.148111
    56  H    0.101112
    57  C   -0.460213
    58  H    0.149894
    59  H    0.171853
    60  H    0.114571
    61  N   -0.612023
    62  H    0.378198
    63  C   -0.070948
    64  H    0.185380
    65  C    0.619705
    66  C   -0.272771
    67  H    0.140185
    68  H    0.142800
    69  O   -0.534623
    70  C   -0.089265
    71  H    0.142517
    72  C   -0.462908
    73  H    0.112855
    74  H    0.111888
    75  H    0.222980
    76  C   -0.474217
    77  H    0.114852
    78  H    0.113852
    79  H    0.212466
    80  N   -0.637361
    81  H    0.392904
    82  C   -0.075505
    83  H    0.169971
    84  C    0.628361
    85  C   -0.067698
    86  H    0.130100
    87  O   -0.515053
    88  C   -0.277908
    89  H    0.128160
    90  H    0.164298
    91  C   -0.476228
    92  H    0.161288
    93  H    0.171105
    94  H    0.125171
    95  C   -0.446647
    96  H    0.127832
    97  H    0.151304
    98  H    0.130272
    99  N   -0.601482
   100  H    0.334474
   101  C   -0.076816
   102  H    0.227021
   103  C    0.616889
   104  C   -0.379300
   105  H    0.144305
   106  H    0.217391
   107  O   -0.569258
   108  C    0.619343
   109  N   -0.738392
   110  H    0.345151
   111  H    0.360608
   112  O   -0.520244
   113  N   -0.627563
   114  H    0.404951
   115  C   -0.055528
   116  H    0.169892
   117  C    0.620007
   118  C   -0.088609
   119  H    0.143672
   120  O   -0.522264
   121  C   -0.477359
   122  H    0.181688
   123  H    0.146812
   124  H    0.158427
   125  C   -0.461401
   126  H    0.165288
   127  H    0.155048
   128  H    0.138314
   129  N   -0.638336
   130  H    0.378497
   131  C    0.015709
   132  H    0.175982
   133  C    0.598139
   134  C   -0.320641
   135  H    0.173821
   136  H    0.173712
   137  O   -0.477348
   138  C   -0.289688
   139  H    0.164981
   140  H    0.139150
   141  C   -0.288670
   142  H    0.202785
   143  H    0.167022
   144  C   -0.214858
   145  H    0.223224
   146  H    0.224511
   147  N   -0.680666
   148  H    0.390329
   149  H    0.399789
   150  H    0.384532
   151  O   -0.554730
   152  H    0.416217
 Sum of Mulliken charges =   1.00000

 Dipole moment (field-independent basis, Debye):
    X=             46.5853    Y=             18.5550    Z=            -40.8015  Tot=             64.6470
 Quadrupole moment (field-independent basis, Debye-Ang):
   XX=            415.1814   YY=           -502.2252   ZZ=             96.4512
   XY=            -80.7005   XZ=            377.4127   YZ=            -26.0724

 Normal termination of Gaussian 16 at Mon Jul 18 04:55:17 2022.
