 Gaussian 16, Revision C.01,
 Gaussian 16:  ES64L-G16RevC.01  3-Jul-2019

 ----------------------------------------------------------------------
 # B3LYP/6-31G* empiricaldispersion=gd3bj guess=read geom=check nosymm
 integral(ultrafinegrid)
 ----------------------------------------------------------------------

 ------------------------------------------------------
 Candidate Structure: Conf:472 Charge calc in gas phase
 ------------------------------------------------------
 Structure from the checkpoint file:  "conf-472.chk"
 Charge =  1 Multiplicity = 1

                          Input orientation:
 ---------------------------------------------------------------------
 Center     Atomic      Atomic             Coordinates (Angstroms)
 Number     Number       Type             X           Y           Z
 ---------------------------------------------------------------------
      1          7           0       -2.238498    1.927710    4.256762
      2          1           0       -2.936654    1.976880    4.992362
      3          1           0       -1.512975    2.600266    4.490014
      4          6           0       -1.688470    0.576022    4.134467
      5          1           0       -2.392690   -0.155175    4.546592
      6          1           0       -0.739490    0.418684    4.662278
      7          6           0       -1.470689    0.172335    2.677141
      8          8           0       -0.872802   -0.874333    2.382096
      9          7           0       -1.989161    1.025093    1.771185
     10          1           0       -2.464194    1.833427    2.172424
     11          6           0       -2.112067    0.710574    0.349053
     12          1           0       -2.351984   -0.356712    0.277038
     13          6           0       -0.746390    0.909182   -0.333577
     14          6           0       -3.214768    1.552483   -0.290613
     15          1           0       -4.106641    1.459025    0.342692
     16          1           0       -2.906183    2.604079   -0.270197
     17          8           0       -0.511350    1.826216   -1.135528
     18          6           0       -3.585229    1.159684   -1.732883
     19          1           0       -2.684267    1.262144   -2.351077
     20          6           0       -4.088872   -0.286301   -1.835816
     21          1           0       -4.959641   -0.444989   -1.187611
     22          1           0       -4.396225   -0.514194   -2.861907
     23          1           0       -3.325686   -1.021839   -1.555551
     24          6           0       -4.637219    2.137867   -2.270429
     25          1           0       -5.562124    2.078891   -1.683482
     26          1           0       -4.278331    3.172296   -2.229845
     27          1           0       -4.889752    1.908239   -3.310935
     28          7           0        0.178969   -0.016914    0.018840
     29          1           0       -0.089540   -0.623029    0.812405
     30          6           0        1.608169    0.190817   -0.203031
     31          1           0        1.831825    1.257960   -0.050861
     32          6           0        1.911575   -0.039183   -1.670798
     33          6           0        2.443902   -0.633453    0.800412
     34          1           0        2.061682   -0.304784    1.775540
     35          8           0        2.811584   -0.904424   -2.111372
     36          6           0        2.215940   -2.148377    0.699468
     37          1           0        2.581214   -2.552462   -0.248973
     38          1           0        2.762472   -2.648253    1.504398
     39          1           0        1.161401   -2.417757    0.812011
     40          6           0        3.931275   -0.262282    0.729002
     41          1           0        4.395616   -0.611561   -0.197956
     42          1           0        4.466580   -0.731653    1.559167
     43          1           0        4.082519    0.820694    0.807933
     44          7           0        1.323847    0.622428   -2.622640
     45          1           0        0.583388    1.307762   -2.356595
     46          6           0        1.830321    0.253605   -3.944928
     47          1           0        1.051405   -0.205534   -4.562218
     48          6           0        2.832266   -0.823040   -3.572060
     49          6           0        2.481498    1.424057   -4.706971
     50          1           0        2.792071    1.010045   -5.670799
     51          1           0        1.695012    2.159021   -4.914977
     52          8           0        3.556539   -1.514523   -4.199029
     53          6           0        3.653195    2.076441   -3.971405
     54          1           0        4.432652    1.323938   -3.784153
     55          1           0        3.323478    2.444644   -2.988970
     56          6           0        4.262447    3.239806   -4.759690
     57          1           0        4.590367    2.878986   -5.744828
     58          1           0        3.487845    3.996983   -4.945000
     59          6           0        5.451449    3.902935   -4.037683
     60          1           0        5.767851    4.777953   -4.616224
     61          1           0        5.114457    4.284637   -3.064561
     62          7           0        6.631748    3.075846   -3.806444
     63          1           0        6.417143    2.269447   -3.224680
     64          1           0        7.003560    2.721335   -4.685548
     65          8           0        1.699155   -1.220879   -6.458817
     66          1           0        1.347938   -1.344192   -7.353591
     67          1           0        2.486126   -1.784785   -6.415063
 ---------------------------------------------------------------------

 SCF Done:  E(RB3LYP) =  -1396.73712361     A.U. after    1 cycles

 Alpha  occ. eigenvalues --  -19.38377 -19.31877 -19.25829 -19.25285 -19.22578
 Alpha  occ. eigenvalues --  -14.55065 -14.48454 -14.46539 -14.42930 -14.38952
 Alpha  occ. eigenvalues --  -10.48717 -10.48648 -10.41820 -10.39603 -10.39176
 Alpha  occ. eigenvalues --  -10.38881 -10.34459 -10.32199 -10.32112 -10.32034
 Alpha  occ. eigenvalues --  -10.29929 -10.28720 -10.28469 -10.28244 -10.27935
 Alpha  occ. eigenvalues --  -10.27770 -10.27477 -10.25816 -10.25139  -1.30365
 Alpha  occ. eigenvalues --   -1.22203  -1.17354  -1.14103  -1.12237  -1.10993
 Alpha  occ. eigenvalues --   -1.06122  -1.03564  -0.98968  -0.96320  -0.95726
 Alpha  occ. eigenvalues --   -0.92858  -0.90547  -0.88743  -0.85878  -0.84257
 Alpha  occ. eigenvalues --   -0.81198  -0.79908  -0.79574  -0.79438  -0.77375
 Alpha  occ. eigenvalues --   -0.76626  -0.74902  -0.73473  -0.71699  -0.70024
 Alpha  occ. eigenvalues --   -0.68765  -0.68271  -0.67430  -0.66175  -0.65174
 Alpha  occ. eigenvalues --   -0.64127  -0.63396  -0.62297  -0.61622  -0.61204
 Alpha  occ. eigenvalues --   -0.60838  -0.60559  -0.59990  -0.58513  -0.57760
 Alpha  occ. eigenvalues --   -0.57370  -0.57114  -0.56397  -0.55631  -0.55139
 Alpha  occ. eigenvalues --   -0.54714  -0.54548  -0.53943  -0.53272  -0.52353
 Alpha  occ. eigenvalues --   -0.51663  -0.51642  -0.51397  -0.50941  -0.50225
 Alpha  occ. eigenvalues --   -0.50088  -0.49540  -0.48987  -0.48846  -0.48596
 Alpha  occ. eigenvalues --   -0.47511  -0.46583  -0.46480  -0.46282  -0.46118
 Alpha  occ. eigenvalues --   -0.45753  -0.45339  -0.45054  -0.45012  -0.44610
 Alpha  occ. eigenvalues --   -0.43830  -0.43072  -0.42143  -0.41844  -0.41648
 Alpha  occ. eigenvalues --   -0.41315  -0.40668  -0.39976  -0.39381  -0.37790
 Alpha  occ. eigenvalues --   -0.36063  -0.34556  -0.30854
 Alpha virt. eigenvalues --   -0.19732  -0.14933  -0.11838  -0.08308  -0.05712
 Alpha virt. eigenvalues --   -0.03718  -0.02740  -0.02084  -0.01502  -0.01201
 Alpha virt. eigenvalues --   -0.00231   0.00249   0.01205   0.02222   0.02376

 Mulliken charges:
               1
     1  N   -0.749082
     2  H    0.336573
     3  H    0.328008
     4  C   -0.236884
     5  H    0.202738
     6  H    0.182854
     7  C    0.603689
     8  O   -0.560833
     9  N   -0.600129
    10  H    0.377249
    11  C   -0.055867
    12  H    0.191641
    13  C    0.647880
    14  C   -0.284097
    15  H    0.153571
    16  H    0.162577
    17  O   -0.564594
    18  C   -0.082981
    19  H    0.128372
    20  C   -0.454198
    21  H    0.155872
    22  H    0.159447
    23  H    0.134395
    24  C   -0.447240
    25  H    0.152136
    26  H    0.151411
    27  H    0.154289
    28  N   -0.646743
    29  H    0.425776
    30  C   -0.062940
    31  H    0.210587
    32  C    0.692135
    33  C   -0.124717
    34  H    0.174159
    35  O   -0.453800
    36  C   -0.475462
    37  H    0.166721
    38  H    0.181463
    39  H    0.175946
    40  C   -0.473706
    41  H    0.168186
    42  H    0.184322
    43  H    0.154764
    44  N   -0.581791
    45  H    0.433273
    46  C   -0.066325
    47  H    0.275034
    48  C    0.626075
    49  C   -0.274462
    50  H    0.207077
    51  H    0.178655
    52  O   -0.377734
    53  C   -0.291086
    54  H    0.138410
    55  H    0.134646
    56  C   -0.265321
    57  H    0.142875
    58  H    0.143981
    59  C   -0.148159
    60  H    0.165113
    61  H    0.143292
    62  N   -0.698009
    63  H    0.293100
    64  H    0.303161
    65  O   -0.795886
    66  H    0.414653
    67  H    0.415941
 Sum of Mulliken charges =   1.00000

 Dipole moment (field-independent basis, Debye):
    X=              2.4473    Y=              2.8039    Z=             -6.4207  Tot=              7.4214
 Quadrupole moment (field-independent basis, Debye-Ang):
   XX=           -147.5466   YY=           -169.1428   ZZ=            -74.0849
   XY=             -8.1958   XZ=            -33.4559   YZ=             11.5770

 Normal termination of Gaussian 16 at Sun Jul 10 16:54:57 2022.
