 Gaussian 16, Revision C.01,
 Gaussian 16:  ES64L-G16RevC.01  3-Jul-2019

 ----------------------------------------------------------------------
 # B3LYP/6-31G* empiricaldispersion=gd3bj guess=read geom=check nosymm
 integral(ultrafinegrid)
 ----------------------------------------------------------------------

 -----------------------------------------------------
 Candidate Structure: Conf:34 Charge calc in gas phase
 -----------------------------------------------------
 Structure from the checkpoint file:  "conf-34.chk"
 Charge =  1 Multiplicity = 1

                          Input orientation:
 ---------------------------------------------------------------------
 Center     Atomic      Atomic             Coordinates (Angstroms)
 Number     Number       Type             X           Y           Z
 ---------------------------------------------------------------------
      1          7           0       -3.757983   -0.367945    3.344331
      2          1           0       -4.697137   -0.628356    3.628701
      3          1           0       -3.263200   -0.076609    4.182842
      4          6           0       -3.072472   -1.481457    2.683295
      5          1           0       -3.799668   -2.217508    2.323465
      6          1           0       -2.376223   -2.030379    3.329523
      7          6           0       -2.290206   -1.027551    1.452000
      8          8           0       -1.558534   -1.811535    0.827138
      9          7           0       -2.469467    0.262661    1.113110
     10          1           0       -3.120268    0.766666    1.714502
     11          6           0       -2.036315    0.827926   -0.160162
     12          1           0       -2.159749    0.044485   -0.918897
     13          6           0       -0.533281    1.155355   -0.126710
     14          6           0       -2.872825    2.054053   -0.524296
     15          1           0       -2.676328    2.846078    0.208082
     16          1           0       -2.504486    2.435765   -1.483860
     17          8           0       -0.091999    2.306360   -0.263899
     18          6           0       -4.386418    1.792310   -0.628038
     19          1           0       -4.755669    1.478219    0.358995
     20          6           0       -5.103789    3.096533   -0.997723
     21          1           0       -4.791530    3.445420   -1.989930
     22          1           0       -6.188904    2.953014   -1.021567
     23          1           0       -4.884121    3.893007   -0.277832
     24          6           0       -4.718701    0.679852   -1.630113
     25          1           0       -4.317881    0.916287   -2.624251
     26          1           0       -4.314093   -0.291343   -1.323600
     27          1           0       -5.802588    0.563239   -1.730891
     28          7           0        0.276842    0.078892    0.030400
     29          1           0       -0.183397   -0.830045    0.190150
     30          6           0        1.701424    0.248448    0.300832
     31          1           0        1.819459    1.166724    0.891256
     32          6           0        2.369702    0.522942   -1.043831
     33          6           0        2.324891   -0.923172    1.080061
     34          1           0        2.317606   -1.809341    0.433914
     35          8           0        3.065750   -0.430249   -1.594392
     36          6           0        3.777469   -0.587752    1.450663
     37          1           0        3.817211    0.280082    2.120088
     38          1           0        4.230958   -1.432024    1.977355
     39          1           0        4.399924   -0.377443    0.575716
     40          6           0        1.506084   -1.224504    2.343734
     41          1           0        1.393501   -0.324636    2.961087
     42          1           0        2.028800   -1.975416    2.943590
     43          1           0        0.513295   -1.617191    2.112798
     44          7           0        2.154784    1.685979   -1.604122
     45          1           0        1.470185    2.267273   -1.077024
     46          6           0        2.414593    2.071803   -3.010968
     47          1           0        2.108707    1.233411   -3.649542
     48          6           0        3.920936    2.286416   -3.203312
     49          6           0        1.610117    3.324087   -3.355300
     50          1           0        0.585165    3.180677   -2.991691
     51          1           0        2.037784    4.172515   -2.809114
     52          8           0        4.500278    3.330567   -3.274698
     53          6           0        1.610102    3.605753   -4.860118
     54          1           0        1.152578    2.757765   -5.390223
     55          1           0        2.633222    3.700732   -5.235980
     56          6           0        0.855705    4.890238   -5.213518
     57          1           0       -0.196367    4.813273   -4.908178
     58          1           0        1.283621    5.729172   -4.645627
     59          6           0        0.922430    5.210814   -6.710316
     60          1           0        0.482252    4.379882   -7.276025
     61          1           0        0.296339    6.096301   -6.911972
     62          7           0        2.317357    5.351084   -7.142080
     63          1           0        2.362270    5.421200   -8.156647
     64          1           0        2.700892    6.224688   -6.782762
     65          8           0        4.551806    1.066691   -3.262607
     66          1           0        3.597823   -0.119812   -2.371728
     67          1           0        5.515483    1.210234   -3.350440
 ---------------------------------------------------------------------

 SCF Done:  E(RB3LYP) =  -1396.76131414     A.U. after    1 cycles

 Alpha  occ. eigenvalues --  -19.36628 -19.35266 -19.28801 -19.25217 -19.22263
 Alpha  occ. eigenvalues --  -14.54167 -14.48126 -14.46224 -14.42842 -14.38294
 Alpha  occ. eigenvalues --  -10.48182 -10.46675 -10.41289 -10.39078 -10.38879
 Alpha  occ. eigenvalues --  -10.37661 -10.34189 -10.32057 -10.31384 -10.30656
 Alpha  occ. eigenvalues --  -10.28279 -10.28082 -10.27997 -10.27649 -10.27568
 Alpha  occ. eigenvalues --  -10.27527 -10.26437 -10.25480 -10.24987  -1.27156
 Alpha  occ. eigenvalues --   -1.25013  -1.16846  -1.16719  -1.13829  -1.11617
 Alpha  occ. eigenvalues --   -1.05358  -1.03358  -0.98826  -0.95369  -0.94795
 Alpha  occ. eigenvalues --   -0.92438  -0.90224  -0.87399  -0.85670  -0.84099
 Alpha  occ. eigenvalues --   -0.81041  -0.79796  -0.79346  -0.78728  -0.76688
 Alpha  occ. eigenvalues --   -0.76354  -0.74475  -0.72930  -0.71573  -0.70029
 Alpha  occ. eigenvalues --   -0.69277  -0.67920  -0.67051  -0.66539  -0.65505
 Alpha  occ. eigenvalues --   -0.65222  -0.63899  -0.63132  -0.62392  -0.60972
 Alpha  occ. eigenvalues --   -0.60404  -0.60232  -0.58507  -0.57965  -0.57309
 Alpha  occ. eigenvalues --   -0.56870  -0.56454  -0.55458  -0.55061  -0.54769
 Alpha  occ. eigenvalues --   -0.54310  -0.53680  -0.53628  -0.53288  -0.52808
 Alpha  occ. eigenvalues --   -0.52074  -0.52006  -0.51263  -0.50552  -0.50101
 Alpha  occ. eigenvalues --   -0.49818  -0.49530  -0.48523  -0.48374  -0.47354
 Alpha  occ. eigenvalues --   -0.47216  -0.47053  -0.46687  -0.46360  -0.45862
 Alpha  occ. eigenvalues --   -0.45536  -0.45083  -0.44794  -0.44576  -0.44423
 Alpha  occ. eigenvalues --   -0.42965  -0.42007  -0.41582  -0.41387  -0.41326
 Alpha  occ. eigenvalues --   -0.41148  -0.40936  -0.39683  -0.38855  -0.37715
 Alpha  occ. eigenvalues --   -0.35729  -0.34362  -0.30610
 Alpha virt. eigenvalues --   -0.17575  -0.14143  -0.11001  -0.08143  -0.07005
 Alpha virt. eigenvalues --   -0.03331  -0.02336  -0.01683  -0.00662   0.00102
 Alpha virt. eigenvalues --    0.00473   0.01134   0.01422   0.01795   0.02484

 Mulliken charges:
               1
     1  N   -0.752189
     2  H    0.336035
     3  H    0.329306
     4  C   -0.240641
     5  H    0.201500
     6  H    0.185363
     7  C    0.611538
     8  O   -0.559552
     9  N   -0.591751
    10  H    0.382415
    11  C   -0.064599
    12  H    0.189568
    13  C    0.640108
    14  C   -0.281279
    15  H    0.162327
    16  H    0.149995
    17  O   -0.556651
    18  C   -0.084162
    19  H    0.130339
    20  C   -0.444465
    21  H    0.146436
    22  H    0.159318
    23  H    0.150138
    24  C   -0.455641
    25  H    0.144174
    26  H    0.146608
    27  H    0.163922
    28  N   -0.635616
    29  H    0.408497
    30  C   -0.040933
    31  H    0.201512
    32  C    0.631752
    33  C   -0.111627
    34  H    0.169843
    35  O   -0.553967
    36  C   -0.464829
    37  H    0.160400
    38  H    0.182172
    39  H    0.146470
    40  C   -0.478884
    41  H    0.149628
    42  H    0.173782
    43  H    0.181430
    44  N   -0.585690
    45  H    0.434632
    46  C   -0.075946
    47  H    0.206782
    48  C    0.632370
    49  C   -0.307671
    50  H    0.168545
    51  H    0.185848
    52  O   -0.387854
    53  C   -0.273880
    54  H    0.134848
    55  H    0.191742
    56  C   -0.261827
    57  H    0.137604
    58  H    0.141408
    59  C   -0.143415
    60  H    0.143890
    61  H    0.134662
    62  N   -0.720687
    63  H    0.311187
    64  H    0.302071
    65  O   -0.617521
    66  H    0.479627
    67  H    0.451484
 Sum of Mulliken charges =   1.00000

 Dipole moment (field-independent basis, Debye):
    X=              3.3675    Y=              4.7735    Z=             -4.1681  Tot=              7.1762
 Quadrupole moment (field-independent basis, Debye-Ang):
   XX=           -109.0852   YY=           -155.5441   ZZ=           -108.8960
   XY=              4.4291   XZ=            -33.7056   YZ=            -33.8830

 Normal termination of Gaussian 16 at Sun Jul 10 16:54:56 2022.
