 Gaussian 16, Revision C.01,
 Gaussian 16:  ES64L-G16RevC.01  3-Jul-2019

 ----------------------------------------------------------------------
 # B3LYP/6-31G* empiricaldispersion=gd3bj guess=read geom=check nosymm
 integral(ultrafinegrid)
 ----------------------------------------------------------------------

 ------------------------------------------------------
 Candidate Structure: Conf:538 Charge calc in gas phase
 ------------------------------------------------------
 Structure from the checkpoint file:  "conf-538.chk"
 Charge =  1 Multiplicity = 1

                          Input orientation:
 ---------------------------------------------------------------------
 Center     Atomic      Atomic             Coordinates (Angstroms)
 Number     Number       Type             X           Y           Z
 ---------------------------------------------------------------------
      1          7           0       -3.512611    2.061670    2.798279
      2          1           0       -4.476881    1.888810    2.524270
      3          1           0       -3.542870    2.628689    3.640608
      4          6           0       -2.805608    0.801277    3.035689
      5          1           0       -3.434611   -0.032529    3.373397
      6          1           0       -2.045742    0.950175    3.811433
      7          6           0       -2.066278    0.323060    1.789302
      8          8           0       -1.600004   -0.824247    1.711156
      9          7           0       -1.933084    1.251175    0.822342
     10          1           0       -2.381272    2.143562    1.025173
     11          6           0       -1.425702    0.951710   -0.510673
     12          1           0       -1.787453   -0.050348   -0.774392
     13          6           0        0.110678    0.863677   -0.506462
     14          6           0       -1.912331    1.977265   -1.532676
     15          1           0       -1.473644    2.952510   -1.290507
     16          1           0       -1.493256    1.694232   -2.504116
     17          8           0        0.826956    1.635758   -1.163479
     18          6           0       -3.439319    2.103345   -1.664423
     19          1           0       -3.847044    2.470411   -0.711357
     20          6           0       -3.760360    3.147571   -2.741884
     21          1           0       -3.380571    2.822869   -3.719791
     22          1           0       -4.840402    3.297239   -2.838847
     23          1           0       -3.305222    4.116864   -2.507837
     24          6           0       -4.109928    0.761341   -1.981260
     25          1           0       -3.694874    0.324020   -2.898565
     26          1           0       -3.983819    0.033203   -1.172066
     27          1           0       -5.185567    0.893404   -2.136528
     28          7           0        0.627279   -0.145633    0.235256
     29          1           0       -0.040066   -0.698001    0.793770
     30          6           0        2.062625   -0.216851    0.502341
     31          1           0        2.439230    0.814411    0.540236
     32          6           0        2.712923   -0.851207   -0.726479
     33          6           0        2.410622   -0.916685    1.828961
     34          1           0        2.171604   -1.982613    1.730742
     35          8           0        3.205164   -2.053756   -0.624126
     36          6           0        3.911859   -0.765664    2.119305
     37          1           0        4.174637    0.289835    2.259674
     38          1           0        4.166113   -1.294644    3.042003
     39          1           0        4.541367   -1.175307    1.324145
     40          6           0        1.584506   -0.327410    2.982016
     41          1           0        1.707387    0.761450    3.034771
     42          1           0        1.935270   -0.747286    3.929355
     43          1           0        0.519736   -0.554928    2.893256
     44          7           0        2.691878   -0.173116   -1.844422
     45          1           0        2.192797    0.736412   -1.753791
     46          6           0        2.896822   -0.680423   -3.218528
     47          1           0        2.465178   -1.690861   -3.257132
     48          6           0        4.382847   -0.852750   -3.544650
     49          6           0        2.151499    0.223417   -4.206506
     50          1           0        2.281953   -0.210341   -5.203363
     51          1           0        1.087110    0.143783   -3.962681
     52          8           0        4.971648   -0.416964   -4.491000
     53          6           0        2.590681    1.696336   -4.224332
     54          1           0        3.615508    1.754708   -4.601606
     55          1           0        2.601810    2.111721   -3.207790
     56          6           0        1.671885    2.578375   -5.083213
     57          1           0        2.115434    3.575680   -5.169652
     58          1           0        1.618203    2.172648   -6.103780
     59          6           0        0.259528    2.747774   -4.514204
     60          1           0       -0.252954    1.765917   -4.486533
     61          1           0        0.336007    3.081812   -3.473133
     62          7           0       -0.470339    3.768371   -5.263688
     63          1           0       -0.655996    3.445533   -6.212015
     64          1           0       -1.377288    3.941637   -4.834742
     65          8           0        4.965686   -1.668378   -2.606418
     66          1           0        3.808627   -2.265639   -1.379371
     67          1           0        5.905430   -1.803957   -2.840387
 ---------------------------------------------------------------------

 SCF Done:  E(RB3LYP) =  -1396.75990823     A.U. after    2 cycles

 Alpha  occ. eigenvalues --  -19.36961 -19.35542 -19.29187 -19.25699 -19.22674
 Alpha  occ. eigenvalues --  -14.54400 -14.48584 -14.46679 -14.43006 -14.38497
 Alpha  occ. eigenvalues --  -10.48514 -10.47142 -10.41757 -10.39840 -10.39287
 Alpha  occ. eigenvalues --  -10.38040 -10.34665 -10.32267 -10.31650 -10.31391
 Alpha  occ. eigenvalues --  -10.28576 -10.28543 -10.28419 -10.28409 -10.28272
 Alpha  occ. eigenvalues --  -10.27788 -10.26481 -10.26054 -10.25823  -1.27514
 Alpha  occ. eigenvalues --   -1.25394  -1.17358  -1.17089  -1.14239  -1.11994
 Alpha  occ. eigenvalues --   -1.05753  -1.03761  -0.99058  -0.95696  -0.95177
 Alpha  occ. eigenvalues --   -0.92749  -0.90806  -0.87960  -0.86234  -0.84624
 Alpha  occ. eigenvalues --   -0.81209  -0.80049  -0.79641  -0.78949  -0.77028
 Alpha  occ. eigenvalues --   -0.76512  -0.74867  -0.74338  -0.72475  -0.70944
 Alpha  occ. eigenvalues --   -0.69699  -0.68364  -0.67504  -0.67179  -0.65804
 Alpha  occ. eigenvalues --   -0.65250  -0.64064  -0.63538  -0.62812  -0.61775
 Alpha  occ. eigenvalues --   -0.60507  -0.60082  -0.58649  -0.58095  -0.57781
 Alpha  occ. eigenvalues --   -0.57263  -0.56077  -0.55996  -0.55577  -0.55269
 Alpha  occ. eigenvalues --   -0.55119  -0.54904  -0.54069  -0.53971  -0.53430
 Alpha  occ. eigenvalues --   -0.52248  -0.51884  -0.51714  -0.50848  -0.50583
 Alpha  occ. eigenvalues --   -0.50224  -0.50099  -0.48948  -0.48797  -0.48661
 Alpha  occ. eigenvalues --   -0.47684  -0.47572  -0.47294  -0.47048  -0.46408
 Alpha  occ. eigenvalues --   -0.45861  -0.45374  -0.45267  -0.44787  -0.44631
 Alpha  occ. eigenvalues --   -0.43525  -0.42687  -0.41930  -0.41817  -0.41639
 Alpha  occ. eigenvalues --   -0.41540  -0.41137  -0.40167  -0.39335  -0.37738
 Alpha  occ. eigenvalues --   -0.36140  -0.34771  -0.30620
 Alpha virt. eigenvalues --   -0.18110  -0.14397  -0.11522  -0.08543  -0.07363
 Alpha virt. eigenvalues --   -0.04128  -0.02654  -0.02270  -0.02164  -0.00468
 Alpha virt. eigenvalues --    0.00296   0.00489   0.00999   0.01046   0.01950

 Mulliken charges:
               1
     1  N   -0.751356
     2  H    0.329791
     3  H    0.335070
     4  C   -0.238849
     5  H    0.190897
     6  H    0.193043
     7  C    0.610228
     8  O   -0.556800
     9  N   -0.588789
    10  H    0.380681
    11  C   -0.062206
    12  H    0.189110
    13  C    0.638441
    14  C   -0.292371
    15  H    0.163918
    16  H    0.157153
    17  O   -0.555517
    18  C   -0.082000
    19  H    0.128765
    20  C   -0.452377
    21  H    0.141702
    22  H    0.163458
    23  H    0.153837
    24  C   -0.456438
    25  H    0.144336
    26  H    0.147490
    27  H    0.164864
    28  N   -0.634565
    29  H    0.407865
    30  C   -0.047161
    31  H    0.205999
    32  C    0.636092
    33  C   -0.111246
    34  H    0.168838
    35  O   -0.551418
    36  C   -0.465008
    37  H    0.160549
    38  H    0.182368
    39  H    0.148746
    40  C   -0.479696
    41  H    0.151330
    42  H    0.174812
    43  H    0.180293
    44  N   -0.583471
    45  H    0.446291
    46  C   -0.110119
    47  H    0.213166
    48  C    0.645819
    49  C   -0.300508
    50  H    0.190046
    51  H    0.166570
    52  O   -0.387578
    53  C   -0.301022
    54  H    0.180468
    55  H    0.150922
    56  C   -0.260441
    57  H    0.174337
    58  H    0.139386
    59  C   -0.149920
    60  H    0.102584
    61  H    0.162245
    62  N   -0.715812
    63  H    0.300871
    64  H    0.305141
    65  O   -0.623180
    66  H    0.476614
    67  H    0.453713
 Sum of Mulliken charges =   1.00000

 Dipole moment (field-independent basis, Debye):
    X=              4.7018    Y=             -0.9987    Z=             -2.6208  Tot=              5.4748
 Quadrupole moment (field-independent basis, Debye-Ang):
   XX=           -102.2726   YY=           -170.7377   ZZ=           -133.1489
   XY=            -33.9582   XZ=            -19.2276   YZ=             18.4423

 Normal termination of Gaussian 16 at Sun Jul 10 16:55:04 2022.
