 Gaussian 16, Revision C.01,
 Gaussian 16:  ES64L-G16RevC.01  3-Jul-2019

 ----------------------------------------------------------------------
 # B3LYP/6-31G* empiricaldispersion=gd3bj guess=read geom=check nosymm
 integral(ultrafinegrid)
 ----------------------------------------------------------------------

 ------------------------------------------------------
 Candidate Structure: Conf:578 Charge calc in gas phase
 ------------------------------------------------------
 Structure from the checkpoint file:  "conf-578.chk"
 Charge =  1 Multiplicity = 1

                          Input orientation:
 ---------------------------------------------------------------------
 Center     Atomic      Atomic             Coordinates (Angstroms)
 Number     Number       Type             X           Y           Z
 ---------------------------------------------------------------------
      1          7           0       -2.974795   -1.478193    3.597966
      2          1           0       -2.464368   -2.306759    3.298489
      3          1           0       -2.290763   -0.879264    4.056022
      4          6           0       -3.523962   -0.809672    2.438925
      5          1           0       -4.033367    0.110514    2.752422
      6          1           0       -4.297812   -1.448470    1.991108
      7          6           0       -2.514055   -0.482701    1.333183
      8          8           0       -1.403189   -1.028845    1.288200
      9          7           0       -2.912333    0.419026    0.399880
     10          1           0       -3.826557    0.842322    0.494737
     11          6           0       -2.196327    0.649267   -0.859069
     12          1           0       -1.781129   -0.316558   -1.168614
     13          6           0       -0.997891    1.584790   -0.624649
     14          6           0       -3.134286    1.193783   -1.934780
     15          1           0       -3.483906    2.188550   -1.631208
     16          1           0       -2.537723    1.350553   -2.841395
     17          8           0       -0.878170    2.705458   -1.131296
     18          6           0       -4.333102    0.287574   -2.269521
     19          1           0       -4.961173    0.190471   -1.371253
     20          6           0       -5.184922    0.951186   -3.358646
     21          1           0       -4.616095    1.049127   -4.291515
     22          1           0       -6.077225    0.354873   -3.574071
     23          1           0       -5.512486    1.952936   -3.058299
     24          6           0       -3.898630   -1.121096   -2.692296
     25          1           0       -3.219319   -1.078645   -3.553122
     26          1           0       -3.389661   -1.660295   -1.885412
     27          1           0       -4.766985   -1.719399   -2.985842
     28          7           0       -0.042584    1.080617    0.186969
     29          1           0       -0.223873    0.174949    0.635208
     30          6           0        1.074028    1.904069    0.572889
     31          1           0        0.717895    2.807234    1.089587
     32          6           0        1.796620    2.393749   -0.647973
     33          6           0        2.044375    1.150619    1.536800
     34          1           0        2.847227    1.864508    1.765041
     35          8           0        1.936154    1.634654   -1.705445
     36          6           0        1.302069    0.836185    2.845139
     37          1           0        0.521607    0.082501    2.697849
     38          1           0        2.010942    0.438475    3.577149
     39          1           0        0.840502    1.732624    3.274234
     40          6           0        2.668327   -0.107600    0.920580
     41          1           0        1.902472   -0.812943    0.581984
     42          1           0        3.268928   -0.616030    1.680451
     43          1           0        3.336513    0.110578    0.083492
     44          7           0        2.437269    3.531620   -0.738692
     45          1           0        2.403757    4.247954   -0.023878
     46          6           0        3.196517    3.646035   -1.990674
     47          1           0        2.842499    4.507598   -2.558512
     48          6           0        2.737378    2.379294   -2.695913
     49          6           0        4.721798    3.641411   -1.778972
     50          1           0        5.166192    3.572774   -2.779032
     51          1           0        5.023482    4.610957   -1.365399
     52          8           0        3.007368    1.894974   -3.734976
     53          6           0        5.190858    2.484198   -0.894249
     54          1           0        4.738041    1.542734   -1.223802
     55          1           0        4.848150    2.643225    0.137682
     56          6           0        6.706266    2.279468   -0.886305
     57          1           0        7.049674    2.079941   -1.911288
     58          1           0        7.220644    3.191537   -0.557826
     59          6           0        7.112747    1.117543    0.027411
     60          1           0        8.208105    1.003284   -0.006062
     61          1           0        6.853465    1.369245    1.063660
     62          7           0        6.372925   -0.102678   -0.326237
     63          1           0        6.706350   -0.454653   -1.223779
     64          1           0        6.577865   -0.835880    0.350077
     65          8           0        0.634694    3.786152   -3.168397
     66          1           0        0.369452    3.563662   -4.073156
     67          1           0       -0.113660    3.515543   -2.601505
 ---------------------------------------------------------------------

 SCF Done:  E(RB3LYP) =  -1396.74174922     A.U. after    1 cycles

 Alpha  occ. eigenvalues --  -19.37162 -19.30377 -19.25274 -19.24819 -19.23556
 Alpha  occ. eigenvalues --  -14.56110 -14.48189 -14.47912 -14.40368 -14.40147
 Alpha  occ. eigenvalues --  -10.48822 -10.47728 -10.41427 -10.39791 -10.39486
 Alpha  occ. eigenvalues --  -10.38951 -10.34821 -10.33237 -10.32270 -10.31565
 Alpha  occ. eigenvalues --  -10.29787 -10.29506 -10.28943 -10.28770 -10.28297
 Alpha  occ. eigenvalues --  -10.28287 -10.28059 -10.25825 -10.25424  -1.29598
 Alpha  occ. eigenvalues --   -1.21131  -1.17028  -1.14984  -1.12481  -1.10552
 Alpha  occ. eigenvalues --   -1.06127  -1.04123  -0.97364  -0.97138  -0.95991
 Alpha  occ. eigenvalues --   -0.93037  -0.90945  -0.88909  -0.86526  -0.84701
 Alpha  occ. eigenvalues --   -0.81251  -0.80282  -0.79664  -0.78853  -0.77969
 Alpha  occ. eigenvalues --   -0.76792  -0.75708  -0.73095  -0.71540  -0.70499
 Alpha  occ. eigenvalues --   -0.69705  -0.68568  -0.67913  -0.65979  -0.65452
 Alpha  occ. eigenvalues --   -0.64262  -0.63812  -0.62493  -0.62013  -0.60549
 Alpha  occ. eigenvalues --   -0.60082  -0.59474  -0.58862  -0.58671  -0.58499
 Alpha  occ. eigenvalues --   -0.57270  -0.56923  -0.56460  -0.55599  -0.55118
 Alpha  occ. eigenvalues --   -0.54590  -0.54489  -0.54149  -0.53702  -0.53182
 Alpha  occ. eigenvalues --   -0.52190  -0.51745  -0.51400  -0.51034  -0.50538
 Alpha  occ. eigenvalues --   -0.49959  -0.49211  -0.49108  -0.48823  -0.48111
 Alpha  occ. eigenvalues --   -0.47908  -0.47264  -0.46710  -0.46652  -0.46069
 Alpha  occ. eigenvalues --   -0.45770  -0.45418  -0.45280  -0.45252  -0.44310
 Alpha  occ. eigenvalues --   -0.43534  -0.43191  -0.42906  -0.41852  -0.41686
 Alpha  occ. eigenvalues --   -0.41531  -0.40725  -0.40215  -0.38956  -0.37591
 Alpha  occ. eigenvalues --   -0.36539  -0.32721  -0.32705
 Alpha virt. eigenvalues --   -0.18790  -0.13210  -0.11437  -0.09039  -0.07734
 Alpha virt. eigenvalues --   -0.03899  -0.02938  -0.02810  -0.02158  -0.01802
 Alpha virt. eigenvalues --   -0.00937  -0.00766   0.00002   0.00286   0.01027

 Mulliken charges:
               1
     1  N   -0.673045
     2  H    0.320441
     3  H    0.304856
     4  C   -0.249319
     5  H    0.171131
     6  H    0.197020
     7  C    0.591828
     8  O   -0.547405
     9  N   -0.593573
    10  H    0.350473
    11  C   -0.075120
    12  H    0.199294
    13  C    0.657406
    14  C   -0.289031
    15  H    0.159025
    16  H    0.152719
    17  O   -0.563172
    18  C   -0.080416
    19  H    0.119631
    20  C   -0.444995
    21  H    0.149515
    22  H    0.163034
    23  H    0.149536
    24  C   -0.456241
    25  H    0.149727
    26  H    0.146934
    27  H    0.167202
    28  N   -0.641872
    29  H    0.416573
    30  C   -0.026139
    31  H    0.184215
    32  C    0.733365
    33  C   -0.128625
    34  H    0.149465
    35  O   -0.452459
    36  C   -0.469702
    37  H    0.181551
    38  H    0.180667
    39  H    0.154681
    40  C   -0.476487
    41  H    0.173327
    42  H    0.175938
    43  H    0.186337
    44  N   -0.596199
    45  H    0.385966
    46  C   -0.048506
    47  H    0.261431
    48  C    0.649964
    49  C   -0.280226
    50  H    0.198073
    51  H    0.174467
    52  O   -0.372998
    53  C   -0.292103
    54  H    0.185225
    55  H    0.130131
    56  C   -0.269225
    57  H    0.149132
    58  H    0.151179
    59  C   -0.144270
    60  H    0.145426
    61  H    0.142691
    62  N   -0.730571
    63  H    0.307146
    64  H    0.313873
    65  O   -0.831375
    66  H    0.411502
    67  H    0.440977
 Sum of Mulliken charges =   1.00000

 Dipole moment (field-independent basis, Debye):
    X=              6.9194    Y=             10.4612    Z=             -1.3197  Tot=             12.6118
 Quadrupole moment (field-independent basis, Debye-Ang):
   XX=            -88.0274   YY=           -137.5466   ZZ=           -159.8661
   XY=             25.1518   XZ=              5.6192   YZ=             -4.3531

 Normal termination of Gaussian 16 at Sun Jul 10 16:54:50 2022.
