 Gaussian 16, Revision C.01,
 Gaussian 16:  ES64L-G16RevC.01  3-Jul-2019

 ----------------------------------------------------------------------
 # B3LYP/6-31G* empiricaldispersion=gd3bj guess=read geom=check nosymm
 integral(ultrafinegrid)
 ----------------------------------------------------------------------

 ------------------------------------------------------
 Candidate Structure: Conf:727 Charge calc in gas phase
 ------------------------------------------------------
 Structure from the checkpoint file:  "conf-727.chk"
 Charge =  1 Multiplicity = 1

                          Input orientation:
 ---------------------------------------------------------------------
 Center     Atomic      Atomic             Coordinates (Angstroms)
 Number     Number       Type             X           Y           Z
 ---------------------------------------------------------------------
      1          7           0       -4.019306    0.402153    2.848585
      2          1           0       -4.931278    0.266496    2.418775
      3          1           0       -4.178889    0.542694    3.841924
      4          6           0       -3.154893   -0.755365    2.610913
      5          1           0       -3.674133   -1.717501    2.511174
      6          1           0       -2.456698   -0.864991    3.448828
      7          6           0       -2.304979   -0.579009    1.355681
      8          8           0       -1.688205   -1.531520    0.851961
      9          7           0       -2.248156    0.680757    0.885656
     10          1           0       -2.828216    1.345323    1.395699
     11          6           0       -1.691921    1.039828   -0.415123
     12          1           0       -1.922364    0.215722   -1.103627
     13          6           0       -0.156815    1.120113   -0.350841
     14          6           0       -2.308683    2.344698   -0.921488
     15          1           0       -1.980136    3.164225   -0.271132
     16          1           0       -1.896267    2.560184   -1.911521
     17          8           0        0.473906    2.141710   -0.668706
     18          6           0       -3.845776    2.336406   -1.018402
     19          1           0       -4.264814    2.206429   -0.009569
     20          6           0       -4.318542    3.693878   -1.554431
     21          1           0       -3.915073    3.863524   -2.559044
     22          1           0       -5.412016    3.733373   -1.606237
     23          1           0       -3.983476    4.513634   -0.908412
     24          6           0       -4.366037    1.189931   -1.893984
     25          1           0       -3.940959    1.253635   -2.902415
     26          1           0       -4.121777    0.203721   -1.481842
     27          1           0       -5.455659    1.242093   -1.989771
     28          7           0        0.465724   -0.017818    0.045995
     29          1           0       -0.139827   -0.816537    0.289633
     30          6           0        1.871005   -0.004287    0.447312
     31          1           0        2.074548    0.989138    0.871522
     32          6           0        2.722847   -0.082277   -0.818875
     33          6           0        2.227021   -1.067374    1.505587
     34          1           0        2.209862   -2.053448    1.025835
     35          8           0        3.469582   -1.133246   -1.016276
     36          6           0        3.637873   -0.802565    2.054646
     37          1           0        3.671777    0.156996    2.584712
     38          1           0        3.910072   -1.584352    2.769210
     39          1           0        4.403773   -0.792832    1.274162
     40          6           0        1.204410   -1.057695    2.651610
     41          1           0        1.086406   -0.048281    3.064473
     42          1           0        1.559510   -1.707012    3.457293
     43          1           0        0.224857   -1.424780    2.338276
     44          7           0        2.630657    0.903179   -1.671273
     45          1           0        1.949716    1.639880   -1.371900
     46          6           0        3.099465    0.933860   -3.072848
     47          1           0        2.965370   -0.073590   -3.490230
     48          6           0        4.597957    1.240322   -3.115103
     49          6           0        2.245429    1.937081   -3.845864
     50          1           0        2.218844    2.878667   -3.283620
     51          1           0        2.745683    2.162357   -4.791705
     52          8           0        5.128732    2.198329   -3.596687
     53          6           0        0.827629    1.399096   -4.089514
     54          1           0        0.480654    0.842499   -3.208616
     55          1           0        0.857557    0.675067   -4.914794
     56          6           0       -0.186396    2.504300   -4.385971
     57          1           0       -0.299526    3.137592   -3.497690
     58          1           0        0.187635    3.152156   -5.191209
     59          6           0       -1.554982    1.942700   -4.772913
     60          1           0       -1.471252    1.429769   -5.747300
     61          1           0       -1.847806    1.175436   -4.043160
     62          7           0       -2.571963    2.996046   -4.733204
     63          1           0       -2.334378    3.733116   -5.396361
     64          1           0       -3.470378    2.625092   -5.037202
     65          8           0        5.281009    0.210415   -2.517131
     66          1           0        4.160235   -0.969335   -1.704977
     67          1           0        6.239284    0.403641   -2.539368
 ---------------------------------------------------------------------

 SCF Done:  E(RB3LYP) =  -1396.76546377     A.U. after    2 cycles

 Alpha  occ. eigenvalues --  -19.36976 -19.35363 -19.29064 -19.25440 -19.22347
 Alpha  occ. eigenvalues --  -14.54311 -14.48189 -14.46210 -14.42698 -14.39841
 Alpha  occ. eigenvalues --  -10.48420 -10.46952 -10.41456 -10.39632 -10.38938
 Alpha  occ. eigenvalues --  -10.37953 -10.34149 -10.31979 -10.31558 -10.31505
 Alpha  occ. eigenvalues --  -10.29637 -10.29578 -10.28314 -10.27700 -10.27571
 Alpha  occ. eigenvalues --  -10.27289 -10.27084 -10.25213 -10.23758  -1.27447
 Alpha  occ. eigenvalues --   -1.25214  -1.17056  -1.16953  -1.13914  -1.11915
 Alpha  occ. eigenvalues --   -1.05421  -1.03352  -0.98741  -0.96693  -0.95442
 Alpha  occ. eigenvalues --   -0.92683  -0.89771  -0.88608  -0.85803  -0.84254
 Alpha  occ. eigenvalues --   -0.81824  -0.79829  -0.79226  -0.78888  -0.76667
 Alpha  occ. eigenvalues --   -0.75855  -0.74109  -0.73589  -0.72841  -0.70549
 Alpha  occ. eigenvalues --   -0.69279  -0.68725  -0.68026  -0.66872  -0.65698
 Alpha  occ. eigenvalues --   -0.64756  -0.63828  -0.63338  -0.62525  -0.61467
 Alpha  occ. eigenvalues --   -0.60342  -0.59721  -0.58797  -0.58337  -0.57757
 Alpha  occ. eigenvalues --   -0.57317  -0.56706  -0.56208  -0.55624  -0.55198
 Alpha  occ. eigenvalues --   -0.54520  -0.54209  -0.53837  -0.53460  -0.52983
 Alpha  occ. eigenvalues --   -0.52505  -0.51847  -0.51652  -0.50875  -0.50541
 Alpha  occ. eigenvalues --   -0.50041  -0.49973  -0.48636  -0.48294  -0.48093
 Alpha  occ. eigenvalues --   -0.47419  -0.46969  -0.46907  -0.46645  -0.46263
 Alpha  occ. eigenvalues --   -0.45678  -0.45218  -0.44642  -0.44506  -0.44433
 Alpha  occ. eigenvalues --   -0.44189  -0.43244  -0.42802  -0.41729  -0.40769
 Alpha  occ. eigenvalues --   -0.40569  -0.40249  -0.39815  -0.38967  -0.37401
 Alpha  occ. eigenvalues --   -0.35814  -0.34462  -0.32041
 Alpha virt. eigenvalues --   -0.18034  -0.14185  -0.11334  -0.08296  -0.07341
 Alpha virt. eigenvalues --   -0.03980  -0.02654  -0.02293  -0.01736  -0.01098
 Alpha virt. eigenvalues --   -0.00021   0.00331   0.01162   0.01405   0.01629

 Mulliken charges:
               1
     1  N   -0.751127
     2  H    0.330155
     3  H    0.334261
     4  C   -0.238299
     5  H    0.189598
     6  H    0.191475
     7  C    0.610004
     8  O   -0.559607
     9  N   -0.587869
    10  H    0.383798
    11  C   -0.069697
    12  H    0.189926
    13  C    0.645323
    14  C   -0.304054
    15  H    0.158003
    16  H    0.189956
    17  O   -0.561425
    18  C   -0.076849
    19  H    0.119694
    20  C   -0.464241
    21  H    0.181213
    22  H    0.147430
    23  H    0.143273
    24  C   -0.466227
    25  H    0.153262
    26  H    0.139621
    27  H    0.159271
    28  N   -0.635996
    29  H    0.408354
    30  C   -0.049693
    31  H    0.207556
    32  C    0.636667
    33  C   -0.109758
    34  H    0.168839
    35  O   -0.552243
    36  C   -0.464993
    37  H    0.160582
    38  H    0.181776
    39  H    0.148254
    40  C   -0.481055
    41  H    0.151614
    42  H    0.173822
    43  H    0.180303
    44  N   -0.574949
    45  H    0.439331
    46  C   -0.103383
    47  H    0.209130
    48  C    0.635702
    49  C   -0.303618
    50  H    0.185983
    51  H    0.197504
    52  O   -0.386409
    53  C   -0.281829
    54  H    0.132615
    55  H    0.156575
    56  C   -0.277533
    57  H    0.172594
    58  H    0.148487
    59  C   -0.139343
    60  H    0.131867
    61  H    0.134642
    62  N   -0.718971
    63  H    0.308795
    64  H    0.312819
    65  O   -0.620495
    66  H    0.476924
    67  H    0.452668
 Sum of Mulliken charges =   1.00000

 Dipole moment (field-independent basis, Debye):
    X=              4.7324    Y=              1.3343    Z=             -4.3487  Tot=              6.5641
 Quadrupole moment (field-independent basis, Debye-Ang):
   XX=            -94.3449   YY=           -178.4328   ZZ=           -117.9421
   XY=            -10.5917   XZ=            -22.4757   YZ=             -9.9530

 Normal termination of Gaussian 16 at Sun Jul 10 16:55:05 2022.
