 Gaussian 16, Revision C.01,
 Gaussian 16:  ES64L-G16RevC.01  3-Jul-2019

 ----------------------------------------------------------------------
 # B3LYP/6-31G* empiricaldispersion=gd3bj guess=read geom=check nosymm
 integral(ultrafinegrid)
 ----------------------------------------------------------------------

 ----------------------------------------------------
 Candidate Structure: Conf:1 Charge calc in gas phase
 ----------------------------------------------------
 Structure from the checkpoint file:  "conf-1.chk"
 Charge =  1 Multiplicity = 1

                          Input orientation:
 ---------------------------------------------------------------------
 Center     Atomic      Atomic             Coordinates (Angstroms)
 Number     Number       Type             X           Y           Z
 ---------------------------------------------------------------------
      1          7           0       -9.591763   17.891933   13.132326
      2          1           0       -9.611111   18.605749   13.863413
      3          1           0      -10.483422   17.384994   13.083205
      4          6           0       -8.474711   16.911872   13.421871
      5          1           0       -8.617178   16.612189   14.466925
      6          6           0       -7.200930   17.781750   13.328791
      7          6           0       -8.611983   15.666684   12.518791
      8          1           0       -8.222075   15.902467   11.529265
      9          1           0       -8.004713   14.874294   12.960902
     10          8           0       -7.348569   18.999144   13.480216
     11          6           0      -10.049799   15.203160   12.417733
     12          6           0      -10.843420   15.616471   11.336271
     13          1           0      -10.397133   16.233833   10.560798
     14          6           0      -10.620080   14.407068   13.420013
     15          1           0      -10.009603   14.072291   14.256149
     16          6           0      -12.183061   15.229706   11.260779
     17          1           0      -12.786751   15.544572   10.414842
     18          6           0      -11.957951   14.021102   13.341315
     19          1           0      -12.386078   13.393923   14.117395
     20          6           0      -12.741586   14.432754   12.261169
     21          1           0      -13.781707   14.128133   12.197707
     22          7           0       -5.993286   17.244841   13.049720
     23          6           0       -4.858336   18.175325   12.809736
     24          1           0       -4.643725   18.743241   13.718385
     25          6           0       -5.255116   19.207991   11.747290
     26          6           0       -3.707512   17.227870   12.433697
     27          1           0       -3.713552   17.031315   11.355585
     28          1           0       -2.736647   17.656907   12.688994
     29          8           0       -5.166399   20.414917   11.963241
     30          6           0       -4.035145   15.947286   13.213615
     31          1           0       -3.521841   15.064282   12.826001
     32          1           0       -3.762640   16.065347   14.267676
     33          6           0       -5.558295   15.832556   13.076323
     34          1           0       -6.016968   15.300265   13.913048
     35          1           0       -5.834625   15.325574   12.145400
     36          7           0       -5.768155   18.691796   10.581970
     37          1           0       -5.961760   17.695588   10.570823
     38          6           0       -6.834710   19.487651    9.973770
     39          1           0       -6.693241   20.439482   10.451590
     40          6           0       -8.159260   18.848237   10.426683
     41          6           0       -6.788218   19.789793    8.482590
     42          1           0       -7.149261   18.944009    7.888552
     43          1           0       -5.749968   19.985952    8.190819
     44          8           0       -8.302039   17.631153   10.244972
     45          6           0       -7.650728   21.044587    8.231617
     46          1           0       -7.641031   21.268297    7.160845
     47          1           0       -8.696454   20.829578    8.486836
     48          6           0       -7.166667   22.305123    9.005585
     49          1           0       -7.197439   23.162174    8.323572
     50          1           0       -6.111492   22.201565    9.290999
     51          6           0       -7.977072   22.783586   10.221650
     52          1           0       -7.654584   23.791394   10.494536
     53          1           0       -9.044579   22.816361    9.987765
     54          7           0       -7.862275   21.946278   11.478622
     55          1           0       -8.291971   22.437406   12.266612
     56          1           0       -6.883517   21.738465   11.740953
     57          8           0       -9.001504   19.597194   11.059898
     58          1           0       -9.451575   18.437481   12.224410
     59          1           0       -8.370991   20.984340   11.362645
 ---------------------------------------------------------------------

 SCF Done:  E(RB3LYP) =  -1300.67699129     A.U. after    1 cycles

 Alpha  occ. eigenvalues --  -19.24297 -19.22988 -19.22806 -19.21025 -14.55340
 Alpha  occ. eigenvalues --  -14.54057 -14.49173 -14.45953 -10.41855 -10.39680
 Alpha  occ. eigenvalues --  -10.39051 -10.38391 -10.36155 -10.34356 -10.34296
 Alpha  occ. eigenvalues --  -10.31967 -10.30705 -10.30543 -10.30194 -10.30089
 Alpha  occ. eigenvalues --  -10.29819 -10.28784 -10.28728 -10.28309 -10.28222
 Alpha  occ. eigenvalues --  -10.28162 -10.28156 -10.28069  -1.17214  -1.15358
 Alpha  occ. eigenvalues --   -1.14224  -1.10213  -1.09219  -1.06664  -1.06041
 Alpha  occ. eigenvalues --   -1.02540  -0.95477  -0.92110  -0.91360  -0.89816
 Alpha  occ. eigenvalues --   -0.87767  -0.85880  -0.84337  -0.83795  -0.80109
 Alpha  occ. eigenvalues --   -0.78016  -0.75939  -0.74949  -0.71752  -0.70600
 Alpha  occ. eigenvalues --   -0.70274  -0.69526  -0.69334  -0.68563  -0.68357
 Alpha  occ. eigenvalues --   -0.67663  -0.67382  -0.67112  -0.64667  -0.61836
 Alpha  occ. eigenvalues --   -0.60997  -0.60717  -0.60338  -0.60136  -0.58603
 Alpha  occ. eigenvalues --   -0.58021  -0.56947  -0.56561  -0.55388  -0.55059
 Alpha  occ. eigenvalues --   -0.54681  -0.54155  -0.53675  -0.53232  -0.52831
 Alpha  occ. eigenvalues --   -0.52591  -0.52261  -0.51633  -0.51251  -0.51075
 Alpha  occ. eigenvalues --   -0.50472  -0.49857  -0.49177  -0.48784  -0.48278
 Alpha  occ. eigenvalues --   -0.47626  -0.46865  -0.46455  -0.45930  -0.45336
 Alpha  occ. eigenvalues --   -0.45141  -0.44585  -0.43644  -0.43639  -0.43312
 Alpha  occ. eigenvalues --   -0.43106  -0.39509  -0.38465  -0.37974  -0.37196
 Alpha  occ. eigenvalues --   -0.36000  -0.35605  -0.34590  -0.34322  -0.34077
 Alpha virt. eigenvalues --   -0.11985  -0.10098  -0.10000  -0.09832  -0.07168
 Alpha virt. eigenvalues --   -0.06104  -0.05361  -0.03589  -0.01879  -0.00452
 Alpha virt. eigenvalues --   -0.00378   0.00035   0.00761   0.00935   0.01462

 Mulliken charges:
               1
     1  N   -0.760230
     2  H    0.395919
     3  H    0.398427
     4  C   -0.109917
     5  H    0.205179
     6  C    0.643618
     7  C   -0.370321
     8  H    0.227988
     9  H    0.172379
    10  O   -0.552878
    11  C    0.083353
    12  C   -0.214523
    13  H    0.183443
    14  C   -0.181329
    15  H    0.133740
    16  C   -0.126955
    17  H    0.157253
    18  C   -0.127332
    19  H    0.157157
    20  C   -0.125261
    21  H    0.158765
    22  N   -0.482318
    23  C   -0.023650
    24  H    0.196892
    25  C    0.621731
    26  C   -0.320036
    27  H    0.171942
    28  H    0.192676
    29  O   -0.537493
    30  C   -0.303368
    31  H    0.182800
    32  H    0.175506
    33  C   -0.142814
    34  H    0.175196
    35  H    0.180246
    36  N   -0.584904
    37  H    0.337503
    38  C   -0.038078
    39  H    0.128877
    40  C    0.640356
    41  C   -0.283652
    42  H    0.171717
    43  H    0.164715
    44  O   -0.553313
    45  C   -0.288574
    46  H    0.172453
    47  H    0.161153
    48  C   -0.305029
    49  H    0.184670
    50  H    0.181527
    51  C   -0.178806
    52  H    0.197615
    53  H    0.201333
    54  N   -0.803440
    55  H    0.388109
    56  H    0.427330
    57  O   -0.661002
    58  H    0.454572
    59  H    0.449079
 Sum of Mulliken charges =   1.00000

 Dipole moment (field-independent basis, Debye):
    X=            -38.9161    Y=             90.2066    Z=             59.7144  Tot=            114.9674
 Quadrupole moment (field-independent basis, Debye-Ang):
   XX=            186.9409   YY=           1587.9370   ZZ=            598.4517
   XY=           -734.0127   XZ=           -489.3770   YZ=           1095.3950

 Normal termination of Gaussian 16 at Sun Jul 10 16:54:57 2022.
