 Gaussian 16, Revision C.01,
 Gaussian 16:  ES64L-G16RevC.01  3-Jul-2019

 ----------------------------------------------------------------------
 # B3LYP/6-31G* empiricaldispersion=gd3bj guess=read geom=check nosymm
 integral(ultrafinegrid)
 ----------------------------------------------------------------------

 ------------------------------------------------------
 Candidate Structure: Conf:950 Charge calc in gas phase
 ------------------------------------------------------
 Structure from the checkpoint file:  "conf-950.chk"
 Charge =  1 Multiplicity = 1

                          Input orientation:
 ---------------------------------------------------------------------
 Center     Atomic      Atomic             Coordinates (Angstroms)
 Number     Number       Type             X           Y           Z
 ---------------------------------------------------------------------
      1          7           0       -2.748549   -1.418792    3.873172
      2          1           0       -2.624869   -2.310506    3.397972
      3          1           0       -1.838525   -1.174441    4.258226
      4          6           0       -3.175514   -0.418306    2.920512
      5          1           0       -3.265063    0.553237    3.422774
      6          1           0       -4.183730   -0.670986    2.564059
      7          6           0       -2.283947   -0.271124    1.683693
      8          8           0       -1.477966   -1.152671    1.352561
      9          7           0       -2.434069    0.862078    0.950676
     10          1           0       -3.088496    1.573943    1.249672
     11          6           0       -1.786815    1.020255   -0.352776
     12          1           0       -1.779351    0.025492   -0.808290
     13          6           0       -0.324212    1.435183   -0.125659
     14          6           0       -2.524492    2.008159   -1.253630
     15          1           0       -3.596848    1.780194   -1.201119
     16          1           0       -2.377549    3.022314   -0.867304
     17          8           0        0.078263    2.598752   -0.238941
     18          6           0       -2.069086    1.955864   -2.726122
     19          1           0       -0.976416    2.060359   -2.746964
     20          6           0       -2.429655    0.624076   -3.397957
     21          1           0       -3.514155    0.462294   -3.394802
     22          1           0       -2.102497    0.622851   -4.443645
     23          1           0       -1.966961   -0.242413   -2.909004
     24          6           0       -2.671129    3.137459   -3.494778
     25          1           0       -3.767298    3.113084   -3.452075
     26          1           0       -2.316222    4.085235   -3.078989
     27          1           0       -2.382075    3.099398   -4.551067
     28          7           0        0.507383    0.408701    0.211286
     29          1           0        0.037408   -0.445992    0.539106
     30          6           0        1.878632    0.690944    0.646786
     31          1           0        1.873761    1.624027    1.225616
     32          6           0        2.642943    0.989781   -0.626789
     33          6           0        2.495379   -0.433009    1.498033
     34          1           0        2.536470   -1.341530    0.883590
     35          8           0        3.465382    0.129586   -1.189278
     36          6           0        3.923138   -0.050511    1.917222
     37          1           0        3.919652    0.862652    2.524602
     38          1           0        4.354829   -0.849262    2.526305
     39          1           0        4.589065    0.101266    1.062799
     40          6           0        1.629619   -0.701235    2.738249
     41          1           0        1.525715    0.209901    3.340556
     42          1           0        2.117297   -1.455875    3.361983
     43          1           0        0.629958   -1.070001    2.494430
     44          7           0        2.479637    2.085578   -1.308533
     45          1           0        1.711470    2.715522   -1.042004
     46          6           0        3.179224    2.043554   -2.590918
     47          1           0        2.434473    1.969871   -3.389361
     48          6           0        3.866902    0.691157   -2.487347
     49          6           0        4.145248    3.215339   -2.830367
     50          1           0        4.708123    3.393078   -1.906455
     51          1           0        4.864962    2.879509   -3.585357
     52          8           0        4.609169    0.109829   -3.193415
     53          6           0        3.466713    4.508475   -3.311670
     54          1           0        3.072292    4.345811   -4.324021
     55          1           0        4.263020    5.252304   -3.418028
     56          6           0        2.342204    5.072805   -2.414843
     57          1           0        2.518607    4.810948   -1.360659
     58          1           0        2.377603    6.168188   -2.445985
     59          6           0        0.922183    4.645691   -2.847757
     60          1           0        0.759671    4.999620   -3.873676
     61          1           0        0.833879    3.552131   -2.902879
     62          7           0       -0.179092    5.119580   -2.019582
     63          1           0       -0.145837    4.693618   -1.096886
     64          1           0       -0.135275    6.129988   -1.903399
     65          8           0        0.970871    0.075983   -2.890511
     66          1           0        0.658816   -0.292244   -3.731535
     67          1           0        0.537695   -0.463134   -2.211554
 ---------------------------------------------------------------------

 SCF Done:  E(RB3LYP) =  -1396.74072088     A.U. after    3 cycles

 Alpha  occ. eigenvalues --  -19.38314 -19.31758 -19.28462 -19.27126 -19.24351
 Alpha  occ. eigenvalues --  -14.55439 -14.50310 -14.48774 -14.40650 -14.40472
 Alpha  occ. eigenvalues --  -10.48994 -10.48599 -10.43177 -10.40539 -10.40174
 Alpha  occ. eigenvalues --  -10.39474 -10.35668 -10.32860 -10.32823 -10.32137
 Alpha  occ. eigenvalues --  -10.31017 -10.30198 -10.29237 -10.29091 -10.29050
 Alpha  occ. eigenvalues --  -10.28807 -10.28389 -10.26937 -10.24744  -1.30413
 Alpha  occ. eigenvalues --   -1.22246  -1.18775  -1.15825  -1.14114  -1.12705
 Alpha  occ. eigenvalues --   -1.07376  -1.04863  -0.97893  -0.97664  -0.96615
 Alpha  occ. eigenvalues --   -0.93711  -0.91531  -0.89421  -0.86819  -0.85190
 Alpha  occ. eigenvalues --   -0.81835  -0.80420  -0.79742  -0.79337  -0.78213
 Alpha  occ. eigenvalues --   -0.77242  -0.75605  -0.74025  -0.72459  -0.71001
 Alpha  occ. eigenvalues --   -0.70247  -0.69938  -0.68975  -0.66958  -0.66206
 Alpha  occ. eigenvalues --   -0.65606  -0.64830  -0.63781  -0.63282  -0.61825
 Alpha  occ. eigenvalues --   -0.61741  -0.60464  -0.60188  -0.59737  -0.58986
 Alpha  occ. eigenvalues --   -0.57647  -0.57023  -0.56679  -0.56400  -0.55950
 Alpha  occ. eigenvalues --   -0.55307  -0.54634  -0.54321  -0.53601  -0.53465
 Alpha  occ. eigenvalues --   -0.52992  -0.52535  -0.52422  -0.51892  -0.51766
 Alpha  occ. eigenvalues --   -0.51002  -0.50684  -0.49754  -0.49490  -0.49148
 Alpha  occ. eigenvalues --   -0.48612  -0.47947  -0.47265  -0.47002  -0.46725
 Alpha  occ. eigenvalues --   -0.46524  -0.45833  -0.45753  -0.45505  -0.45303
 Alpha  occ. eigenvalues --   -0.44810  -0.44688  -0.43801  -0.43260  -0.42525
 Alpha  occ. eigenvalues --   -0.41947  -0.41773  -0.41192  -0.40911  -0.38345
 Alpha  occ. eigenvalues --   -0.37573  -0.33180  -0.32527
 Alpha virt. eigenvalues --   -0.19895  -0.14883  -0.13137  -0.09821  -0.08399
 Alpha virt. eigenvalues --   -0.04672  -0.03210  -0.02910  -0.02524  -0.02198
 Alpha virt. eigenvalues --   -0.01518  -0.00973   0.00275   0.00344   0.00643

 Mulliken charges:
               1
     1  N   -0.673484
     2  H    0.321211
     3  H    0.307171
     4  C   -0.247683
     5  H    0.172771
     6  H    0.199500
     7  C    0.594016
     8  O   -0.545029
     9  N   -0.598509
    10  H    0.352890
    11  C   -0.049278
    12  H    0.177862
    13  C    0.654029
    14  C   -0.293022
    15  H    0.152894
    16  H    0.173019
    17  O   -0.557180
    18  C   -0.091609
    19  H    0.137487
    20  C   -0.452826
    21  H    0.163080
    22  H    0.152980
    23  H    0.112019
    24  C   -0.464651
    25  H    0.144381
    26  H    0.194607
    27  H    0.142722
    28  N   -0.653132
    29  H    0.405010
    30  C   -0.036068
    31  H    0.203016
    32  C    0.691781
    33  C   -0.119762
    34  H    0.168031
    35  O   -0.452574
    36  C   -0.472456
    37  H    0.161077
    38  H    0.188386
    39  H    0.162545
    40  C   -0.487101
    41  H    0.153938
    42  H    0.181521
    43  H    0.183266
    44  N   -0.592278
    45  H    0.441178
    46  C   -0.050671
    47  H    0.253267
    48  C    0.623856
    49  C   -0.282175
    50  H    0.170842
    51  H    0.200666
    52  O   -0.352345
    53  C   -0.282898
    54  H    0.160470
    55  H    0.177721
    56  C   -0.293841
    57  H    0.123974
    58  H    0.165581
    59  C   -0.163499
    60  H    0.166022
    61  H    0.128939
    62  N   -0.720919
    63  H    0.323737
    64  H    0.308626
    65  O   -0.799905
    66  H    0.424425
    67  H    0.412379
 Sum of Mulliken charges =   1.00000

 Dipole moment (field-independent basis, Debye):
    X=              5.2302    Y=              8.0660    Z=             -3.5201  Tot=             10.2375
 Quadrupole moment (field-independent basis, Debye-Ang):
   XX=           -137.9642   YY=           -142.8640   ZZ=           -148.3949
   XY=             18.2374   XZ=             -6.2851   YZ=            -12.6583

 Normal termination of Gaussian 16 at Sun Jul 10 16:56:51 2022.
