 Gaussian 16, Revision C.01,
 Gaussian 16:  ES64L-G16RevC.01  3-Jul-2019

 ----------------------------------------------------------------------
 # B3LYP/6-31G* empiricaldispersion=gd3bj guess=read geom=check nosymm
 integral(ultrafinegrid)
 ----------------------------------------------------------------------

 ------------------------------------------------------
 Candidate Structure: Conf:669 Charge calc in gas phase
 ------------------------------------------------------
 Structure from the checkpoint file:  "conf-669.chk"
 Charge =  1 Multiplicity = 1

                          Input orientation:
 ---------------------------------------------------------------------
 Center     Atomic      Atomic             Coordinates (Angstroms)
 Number     Number       Type             X           Y           Z
 ---------------------------------------------------------------------
      1          7           0       -2.666645   -0.575945    3.891738
      2          1           0       -3.199561   -0.535767    4.757433
      3          1           0       -2.681461   -1.541494    3.569084
      4          6           0       -3.297455    0.261256    2.879320
      5          1           0       -3.252409    1.309931    3.195340
      6          1           0       -4.360404    0.035373    2.671111
      7          6           0       -2.550711    0.070170    1.570474
      8          8           0       -2.130307   -1.044594    1.232114
      9          7           0       -2.372209    1.164651    0.792949
     10          1           0       -2.686795    2.068138    1.121400
     11          6           0       -1.838153    1.083005   -0.569498
     12          1           0       -2.183624    0.126686   -0.976039
     13          6           0       -0.300310    1.021586   -0.521254
     14          6           0       -2.358268    2.249287   -1.412040
     15          1           0       -3.442540    2.308441   -1.249636
     16          1           0       -1.916869    3.179145   -1.033204
     17          8           0        0.425892    1.890526   -1.027434
     18          6           0       -2.087385    2.140497   -2.923472
     19          1           0       -1.003626    2.068341   -3.063231
     20          6           0       -2.746946    0.907835   -3.552921
     21          1           0       -3.838620    0.953609   -3.451592
     22          1           0       -2.497629    0.849763   -4.616821
     23          1           0       -2.411297   -0.030040   -3.092976
     24          6           0       -2.562127    3.419359   -3.623878
     25          1           0       -3.644493    3.554029   -3.505022
     26          1           0       -2.065031    4.306780   -3.216276
     27          1           0       -2.348856    3.374628   -4.696944
     28          7           0        0.215611   -0.059662    0.116061
     29          1           0       -0.451457   -0.714304    0.541557
     30          6           0        1.618342   -0.068603    0.526084
     31          1           0        1.906676    0.978002    0.696672
     32          6           0        2.454119   -0.520963   -0.669294
     33          6           0        1.886271   -0.858527    1.822204
     34          1           0        1.748457   -1.926759    1.613919
     35          8           0        3.091427   -1.656192   -0.594366
     36          6           0        3.332018   -0.621229    2.288421
     37          1           0        3.486040    0.434600    2.542457
     38          1           0        3.528880   -1.207985    3.189920
     39          1           0        4.076762   -0.909796    1.541786
     40          6           0        0.906785   -0.430830    2.925342
     41          1           0        0.926991    0.656795    3.066848
     42          1           0        1.205388   -0.889918    3.872237
     43          1           0       -0.124571   -0.731100    2.736421
     44          7           0        2.469529    0.241740   -1.731330
     45          1           0        1.871605    1.090591   -1.639010
     46          6           0        3.015794   -0.087763   -3.065920
     47          1           0        2.812142   -1.149654   -3.251533
     48          6           0        4.538219    0.080229   -3.051663
     49          6           0        2.328658    0.772433   -4.127242
     50          1           0        2.346059    1.816848   -3.793827
     51          1           0        2.943504    0.735113   -5.031896
     52          8           0        5.184989    0.887769   -3.652347
     53          6           0        0.899520    0.308690   -4.438684
     54          1           0        0.394560    1.083284   -5.021506
     55          1           0        0.321843    0.209517   -3.510021
     56          6           0        0.840670   -1.004751   -5.227304
     57          1           0        1.460953   -0.908870   -6.130636
     58          1           0        1.270154   -1.836381   -4.650179
     59          6           0       -0.581966   -1.400975   -5.636730
     60          1           0       -0.544587   -2.388419   -6.126134
     61          1           0       -1.197567   -1.517932   -4.736429
     62          7           0       -1.196480   -0.352559   -6.457210
     63          1           0       -0.722588   -0.297916   -7.358676
     64          1           0       -2.162673   -0.598724   -6.663599
     65          8           0        5.086505   -0.875115   -2.231637
     66          1           0        3.811483   -1.724394   -1.268740
     67          1           0        6.057945   -0.764655   -2.212538
 ---------------------------------------------------------------------

 SCF Done:  E(RB3LYP) =  -1396.75655966     A.U. after    1 cycles

 Alpha  occ. eigenvalues --  -19.36973 -19.35394 -19.29068 -19.25649 -19.23170
 Alpha  occ. eigenvalues --  -14.54629 -14.48530 -14.47990 -14.40478 -14.40016
 Alpha  occ. eigenvalues --  -10.48515 -10.46944 -10.41754 -10.39972 -10.39484
 Alpha  occ. eigenvalues --  -10.37893 -10.34746 -10.31775 -10.31322 -10.31258
 Alpha  occ. eigenvalues --  -10.29708 -10.28653 -10.28389 -10.28258 -10.28145
 Alpha  occ. eigenvalues --  -10.27385 -10.26926 -10.25217 -10.24890  -1.27494
 Alpha  occ. eigenvalues --   -1.25230  -1.17326  -1.16974  -1.14957  -1.12028
 Alpha  occ. eigenvalues --   -1.05686  -1.04027  -0.97459  -0.96911  -0.95362
 Alpha  occ. eigenvalues --   -0.92568  -0.90578  -0.88164  -0.85909  -0.84485
 Alpha  occ. eigenvalues --   -0.81919  -0.79868  -0.78870  -0.78516  -0.76967
 Alpha  occ. eigenvalues --   -0.76305  -0.74772  -0.73744  -0.72949  -0.70781
 Alpha  occ. eigenvalues --   -0.70183  -0.68811  -0.68130  -0.66359  -0.66195
 Alpha  occ. eigenvalues --   -0.65028  -0.63761  -0.63561  -0.63157  -0.61480
 Alpha  occ. eigenvalues --   -0.60568  -0.60067  -0.58816  -0.58204  -0.57596
 Alpha  occ. eigenvalues --   -0.56955  -0.56649  -0.55955  -0.55868  -0.55055
 Alpha  occ. eigenvalues --   -0.54936  -0.54288  -0.54052  -0.53903  -0.52771
 Alpha  occ. eigenvalues --   -0.51885  -0.51766  -0.51331  -0.50751  -0.50110
 Alpha  occ. eigenvalues --   -0.49834  -0.49672  -0.49153  -0.48609  -0.48229
 Alpha  occ. eigenvalues --   -0.47630  -0.47417  -0.47205  -0.46934  -0.46366
 Alpha  occ. eigenvalues --   -0.46127  -0.45335  -0.44923  -0.44308  -0.44201
 Alpha  occ. eigenvalues --   -0.43848  -0.43454  -0.42975  -0.41842  -0.41613
 Alpha  occ. eigenvalues --   -0.41440  -0.41010  -0.39759  -0.39029  -0.37212
 Alpha  occ. eigenvalues --   -0.36669  -0.32747  -0.32250
 Alpha virt. eigenvalues --   -0.18116  -0.14199  -0.11808  -0.08797  -0.07386
 Alpha virt. eigenvalues --   -0.03968  -0.02652  -0.02326  -0.01914  -0.00934
 Alpha virt. eigenvalues --   -0.00233   0.00176   0.00790   0.01319   0.01802

 Mulliken charges:
               1
     1  N   -0.715274
     2  H    0.320084
     3  H    0.325161
     4  C   -0.226155
     5  H    0.161323
     6  H    0.172541
     7  C    0.642056
     8  O   -0.552703
     9  N   -0.603344
    10  H    0.349886
    11  C   -0.064819
    12  H    0.199070
    13  C    0.645811
    14  C   -0.282611
    15  H    0.151152
    16  H    0.157837
    17  O   -0.555840
    18  C   -0.091689
    19  H    0.147578
    20  C   -0.478843
    21  H    0.148055
    22  H    0.190672
    23  H    0.127041
    24  C   -0.450280
    25  H    0.148820
    26  H    0.150128
    27  H    0.159459
    28  N   -0.629007
    29  H    0.406297
    30  C   -0.051429
    31  H    0.207392
    32  C    0.636635
    33  C   -0.112293
    34  H    0.164818
    35  O   -0.551897
    36  C   -0.465116
    37  H    0.159704
    38  H    0.182283
    39  H    0.145833
    40  C   -0.474872
    41  H    0.148202
    42  H    0.173486
    43  H    0.191485
    44  N   -0.572714
    45  H    0.435904
    46  C   -0.097933
    47  H    0.206676
    48  C    0.632441
    49  C   -0.309594
    50  H    0.182736
    51  H    0.192530
    52  O   -0.385390
    53  C   -0.270965
    54  H    0.197888
    55  H    0.131160
    56  C   -0.276792
    57  H    0.145974
    58  H    0.125226
    59  C   -0.138541
    60  H    0.138160
    61  H    0.144055
    62  N   -0.719502
    63  H    0.307362
    64  H    0.315296
    65  O   -0.620609
    66  H    0.477650
    67  H    0.452344
 Sum of Mulliken charges =   1.00000

 Dipole moment (field-independent basis, Debye):
    X=              4.5263    Y=             -1.3122    Z=             -5.2731  Tot=              7.0721
 Quadrupole moment (field-independent basis, Debye-Ang):
   XX=           -109.2839   YY=           -169.1445   ZZ=           -117.4083
   XY=            -19.4670   XZ=            -18.4481   YZ=             12.1189

 Normal termination of Gaussian 16 at Sun Jul 10 16:54:51 2022.
