 Gaussian 16, Revision C.01,
 Gaussian 16:  ES64L-G16RevC.01  3-Jul-2019

 ----------------------------------------------------------------------
 # B3LYP/6-31G* empiricaldispersion=gd3bj guess=read geom=check nosymm
 integral(ultrafinegrid)
 ----------------------------------------------------------------------

 ------------------------------------------------------
 Candidate Structure: Conf:304 Charge calc in gas phase
 ------------------------------------------------------
 Structure from the checkpoint file:  "conf-304.chk"
 Charge =  1 Multiplicity = 1

                          Input orientation:
 ---------------------------------------------------------------------
 Center     Atomic      Atomic             Coordinates (Angstroms)
 Number     Number       Type             X           Y           Z
 ---------------------------------------------------------------------
      1          7           0       -3.991316    0.949229    3.966163
      2          1           0       -3.057787    1.220985    4.263810
      3          1           0       -4.618353    1.191555    4.728734
      4          6           0       -4.387561    1.676814    2.758469
      5          1           0       -4.195201    2.764494    2.790508
      6          1           0       -5.459045    1.534261    2.604646
      7          6           0       -3.698539    1.077460    1.533811
      8          8           0       -4.231741    0.263864    0.793242
      9          7           0       -2.409902    1.497181    1.329345
     10          1           0       -2.019155    2.272457    1.847305
     11          6           0       -1.652662    1.013038    0.193252
     12          1           0       -2.018215    0.004583   -0.011811
     13          6           0       -0.183065    1.001436    0.575661
     14          6           0       -1.849734    1.896755   -1.055222
     15          1           0       -2.914734    1.862520   -1.307080
     16          1           0       -1.612488    2.928370   -0.769848
     17          8           0        0.364531    2.021610    1.008335
     18          6           0       -1.007386    1.511760   -2.282073
     19          1           0        0.051208    1.508212   -1.977350
     20          6           0       -1.350999    0.117847   -2.817411
     21          1           0       -2.409830    0.060021   -3.092425
     22          1           0       -0.759917   -0.113465   -3.710863
     23          1           0       -1.156205   -0.672547   -2.086559
     24          6           0       -1.174071    2.569636   -3.378426
     25          1           0       -2.215288    2.617511   -3.715176
     26          1           0       -0.896292    3.566475   -3.017308
     27          1           0       -0.554626    2.338183   -4.252489
     28          7           0        0.478255   -0.158607    0.359185
     29          1           0       -0.043770   -0.955216    0.019911
     30          6           0        1.924657   -0.297152    0.503908
     31          1           0        2.259188    0.587455    1.050552
     32          6           0        2.482465   -0.267692   -0.921164
     33          6           0        2.334830   -1.567598    1.261588
     34          1           0        1.985902   -2.425261    0.673173
     35          8           0        2.565984   -1.260926   -1.635896
     36          6           0        3.863285   -1.645040    1.367321
     37          1           0        4.258468   -0.777352    1.909582
     38          1           0        4.159482   -2.543092    1.916881
     39          1           0        4.337293   -1.686422    0.382224
     40          6           0        1.688342   -1.604089    2.649090
     41          1           0        2.034667   -0.761959    3.259501
     42          1           0        1.962115   -2.527735    3.167217
     43          1           0        0.596997   -1.557991    2.598165
     44          7           0        2.818169    0.976714   -1.392221
     45          1           0        2.792985    1.841842   -0.779593
     46          6           0        3.104152    1.089176   -2.790927
     47          1           0        2.440659    0.437510   -3.372121
     48          6           0        4.455980    0.429918   -2.949467
     49          6           0        3.090784    2.548458   -3.271020
     50          1           0        3.187299    2.602665   -4.354967
     51          1           0        2.071154    2.869903   -3.030895
     52          8           0        5.397903   -0.087915   -2.560771
     53          6           0        4.110158    3.449976   -2.536667
     54          1           0        4.916344    3.757068   -3.207083
     55          1           0        4.577960    2.855043   -1.745859
     56          6           0        3.485114    4.673129   -1.841759
     57          1           0        4.304434    5.212648   -1.351283
     58          1           0        3.039913    5.356050   -2.574249
     59          6           0        2.400236    4.345311   -0.805380
     60          1           0        2.139811    5.262796   -0.262799
     61          1           0        1.482717    4.015787   -1.307182
     62          7           0        2.765520    3.238806    0.093570
     63          1           0        3.502579    3.514813    0.740272
     64          1           0        1.940565    2.986806    0.645923
     65          8           0        4.487016    0.219959   -5.046300
     66          1           0        4.461044    0.982008   -5.651617
     67          1           0        5.291849   -0.272905   -5.289252
 ---------------------------------------------------------------------

 SCF Done:  E(RB3LYP) =  -1396.68938117     A.U. after   23 cycles

 Alpha  occ. eigenvalues --  -19.43185 -19.35815 -19.25203 -19.23061 -19.17864
 Alpha  occ. eigenvalues --  -14.49068 -14.47988 -14.44215 -14.43532 -14.38294
 Alpha  occ. eigenvalues --  -10.54060 -10.43306 -10.41578 -10.39812 -10.35182
 Alpha  occ. eigenvalues --  -10.35082 -10.34385 -10.32760 -10.32242 -10.32012
 Alpha  occ. eigenvalues --  -10.30508 -10.29186 -10.28556 -10.28164 -10.27169
 Alpha  occ. eigenvalues --  -10.26772 -10.26605 -10.26340 -10.26108  -1.33648
 Alpha  occ. eigenvalues --   -1.20844  -1.17473  -1.14873  -1.10061  -1.07824
 Alpha  occ. eigenvalues --   -1.04386  -1.00857  -1.00050  -0.95571  -0.94831
 Alpha  occ. eigenvalues --   -0.91273  -0.90231  -0.89710  -0.84647  -0.83871
 Alpha  occ. eigenvalues --   -0.81510  -0.78208  -0.77600  -0.77445  -0.76447
 Alpha  occ. eigenvalues --   -0.74734  -0.72857  -0.72720  -0.72307  -0.70306
 Alpha  occ. eigenvalues --   -0.70219  -0.68245  -0.67421  -0.67317  -0.66712
 Alpha  occ. eigenvalues --   -0.65472  -0.65113  -0.63570  -0.62592  -0.61245
 Alpha  occ. eigenvalues --   -0.60698  -0.59982  -0.59948  -0.57721  -0.57510
 Alpha  occ. eigenvalues --   -0.56833  -0.56617  -0.56239  -0.55062  -0.54690
 Alpha  occ. eigenvalues --   -0.54214  -0.53800  -0.53327  -0.53180  -0.52688
 Alpha  occ. eigenvalues --   -0.52050  -0.51775  -0.51355  -0.50784  -0.50659
 Alpha  occ. eigenvalues --   -0.50301  -0.49614  -0.48822  -0.48272  -0.47437
 Alpha  occ. eigenvalues --   -0.47322  -0.47068  -0.46595  -0.46284  -0.46152
 Alpha  occ. eigenvalues --   -0.45859  -0.45247  -0.44381  -0.44199  -0.43881
 Alpha  occ. eigenvalues --   -0.43193  -0.42770  -0.42124  -0.41845  -0.41425
 Alpha  occ. eigenvalues --   -0.40377  -0.39899  -0.37547  -0.37041  -0.36196
 Alpha  occ. eigenvalues --   -0.33022  -0.32148  -0.29483
 Alpha virt. eigenvalues --   -0.21856  -0.20638  -0.11511  -0.10817  -0.08054
 Alpha virt. eigenvalues --   -0.05762  -0.04748  -0.04602  -0.03874  -0.03070
 Alpha virt. eigenvalues --   -0.02770  -0.00870  -0.00001   0.00493   0.00870

 Mulliken charges:
               1
     1  N   -0.702043
     2  H    0.295960
     3  H    0.317581
     4  C   -0.235889
     5  H    0.122542
     6  H    0.189399
     7  C    0.616625
     8  O   -0.499762
     9  N   -0.611538
    10  H    0.335254
    11  C   -0.038561
    12  H    0.182739
    13  C    0.627543
    14  C   -0.256634
    15  H    0.177874
    16  H    0.141213
    17  O   -0.567295
    18  C   -0.103743
    19  H    0.103296
    20  C   -0.442705
    21  H    0.174561
    22  H    0.139627
    23  H    0.132812
    24  C   -0.447413
    25  H    0.169894
    26  H    0.141841
    27  H    0.130419
    28  N   -0.601903
    29  H    0.358885
    30  C   -0.051105
    31  H    0.175341
    32  C    0.629888
    33  C   -0.092685
    34  H    0.158371
    35  O   -0.515863
    36  C   -0.464373
    37  H    0.144130
    38  H    0.175499
    39  H    0.151932
    40  C   -0.452066
    41  H    0.150153
    42  H    0.170225
    43  H    0.159204
    44  N   -0.657561
    45  H    0.462069
    46  C   -0.062974
    47  H    0.263063
    48  C    0.625952
    49  C   -0.305051
    50  H    0.166968
    51  H    0.214537
    52  O   -0.207944
    53  C   -0.297599
    54  H    0.168741
    55  H    0.157580
    56  C   -0.278377
    57  H    0.164878
    58  H    0.167303
    59  C   -0.153658
    60  H    0.172751
    61  H    0.159436
    62  N   -0.830379
    63  H    0.327227
    64  H    0.397877
    65  O   -0.742704
    66  H    0.446411
    67  H    0.452222
 Sum of Mulliken charges =   1.00000

 Dipole moment (field-independent basis, Debye):
    X=             17.2896    Y=             10.1886    Z=            -10.8027  Tot=             22.7912
 Quadrupole moment (field-independent basis, Debye-Ang):
   XX=           -100.8712   YY=           -142.7977   ZZ=            -93.2207
   XY=             13.3733   XZ=            -65.4268   YZ=            -11.9449

 Normal termination of Gaussian 16 at Sun Jul 10 17:04:26 2022.
