 Gaussian 16, Revision C.01,
 Gaussian 16:  ES64L-G16RevC.01  3-Jul-2019

 ----------------------------------------------------------------------
 # B3LYP/6-31G* empiricaldispersion=gd3bj guess=read geom=check nosymm
 integral(ultrafinegrid)
 ----------------------------------------------------------------------

 ------------------------------------------------------
 Candidate Structure: Conf:288 Charge calc in gas phase
 ------------------------------------------------------
 Structure from the checkpoint file:  "conf-288.chk"
 Charge =  1 Multiplicity = 1

                          Input orientation:
 ---------------------------------------------------------------------
 Center     Atomic      Atomic             Coordinates (Angstroms)
 Number     Number       Type             X           Y           Z
 ---------------------------------------------------------------------
      1          7           0       -3.156356   -2.355991    3.755054
      2          1           0       -3.019789   -3.163193    3.149664
      3          1           0       -2.233960   -2.105743    4.105779
      4          6           0       -3.710620   -1.265763    2.982450
      5          1           0       -3.792200   -0.371976    3.613421
      6          1           0       -4.737005   -1.523483    2.684505
      7          6           0       -2.948345   -0.922540    1.699502
      8          8           0       -2.179923   -1.734220    1.164449
      9          7           0       -3.169628    0.307504    1.173108
     10          1           0       -3.826823    0.921103    1.637104
     11          6           0       -2.763054    0.685146   -0.185034
     12          1           0       -2.827439   -0.221721   -0.801653
     13          6           0       -1.280213    1.111508   -0.185218
     14          6           0       -3.672137    1.775105   -0.758676
     15          1           0       -3.857905    2.533309    0.015936
     16          1           0       -3.111051    2.295444   -1.540048
     17          8           0       -0.902120    2.242817   -0.515472
     18          6           0       -5.005471    1.277340   -1.346551
     19          1           0       -4.762382    0.558755   -2.143751
     20          6           0       -5.904610    0.561982   -0.329002
     21          1           0       -6.131140    1.215645    0.524493
     22          1           0       -6.859543    0.289773   -0.789840
     23          1           0       -5.452059   -0.358017    0.054083
     24          6           0       -5.749737    2.457771   -1.983894
     25          1           0       -6.022611    3.202547   -1.225878
     26          1           0       -5.135201    2.958908   -2.740120
     27          1           0       -6.672936    2.122140   -2.467074
     28          7           0       -0.412974    0.135461    0.187051
     29          1           0       -0.816378   -0.768601    0.467351
     30          6           0        0.984699    0.444947    0.475770
     31          1           0        1.020418    1.438468    0.942034
     32          6           0        1.670836    0.592985   -0.866824
     33          6           0        1.667048   -0.578616    1.403321
     34          1           0        1.776760   -1.519339    0.849322
     35          8           0        2.505969   -0.305227   -1.347332
     36          6           0        3.059787   -0.065469    1.799845
     37          1           0        2.969785    0.820570    2.440535
     38          1           0        3.587441   -0.834150    2.371634
     39          1           0        3.678813    0.200183    0.938195
     40          6           0        0.814840   -0.835651    2.654552
     41          1           0        0.576236    0.105759    3.164680
     42          1           0        1.382100   -1.456875    3.353993
     43          1           0       -0.118730   -1.357116    2.430215
     44          7           0        1.424136    1.573122   -1.688491
     45          1           0        0.660531    2.228974   -1.456685
     46          6           0        2.108668    1.391717   -2.970087
     47          1           0        1.362365    1.118022   -3.729243
     48          6           0        2.940887    0.157248   -2.666332
     49          6           0        2.910107    2.604901   -3.455299
     50          1           0        3.685407    2.824370   -2.716929
     51          1           0        3.415223    2.292448   -4.376936
     52          8           0        3.772024   -0.424050   -3.268933
     53          6           0        2.008510    3.812433   -3.721432
     54          1           0        1.532404    4.138300   -2.784832
     55          1           0        1.198293    3.545999   -4.409999
     56          6           0        2.775005    4.994521   -4.322147
     57          1           0        3.536881    5.353696   -3.618062
     58          1           0        3.314841    4.658688   -5.219477
     59          6           0        1.848189    6.155254   -4.699529
     60          1           0        1.305851    6.488002   -3.805510
     61          1           0        2.463313    7.008107   -5.031085
     62          7           0        0.853777    5.714745   -5.684778
     63          1           0        0.143979    6.434109   -5.807378
     64          1           0        1.300256    5.605353   -6.594817
     65          8           0        4.647128    1.525426   -0.906416
     66          1           0        5.076273    2.267000   -0.452223
     67          1           0        5.375696    0.928369   -1.139792
 ---------------------------------------------------------------------

 SCF Done:  E(RB3LYP) =  -1396.73601769     A.U. after    2 cycles

 Alpha  occ. eigenvalues --  -19.37680 -19.31217 -19.27999 -19.25677 -19.23563
 Alpha  occ. eigenvalues --  -14.54828 -14.48815 -14.47913 -14.40148 -14.39164
 Alpha  occ. eigenvalues --  -10.48315 -10.48206 -10.41913 -10.39925 -10.39743
 Alpha  occ. eigenvalues --  -10.38535 -10.35110 -10.31913 -10.31566 -10.31381
 Alpha  occ. eigenvalues --  -10.28925 -10.28667 -10.28640 -10.28151 -10.28141
 Alpha  occ. eigenvalues --  -10.28121 -10.27340 -10.26068 -10.25314  -1.29862
 Alpha  occ. eigenvalues --   -1.21677  -1.17343  -1.15068  -1.13563  -1.11955
 Alpha  occ. eigenvalues --   -1.06138  -1.04154  -0.97351  -0.96192  -0.95678
 Alpha  occ. eigenvalues --   -0.92770  -0.90811  -0.88438  -0.86293  -0.84377
 Alpha  occ. eigenvalues --   -0.80932  -0.79701  -0.79139  -0.78900  -0.76784
 Alpha  occ. eigenvalues --   -0.76693  -0.74958  -0.72858  -0.71350  -0.70338
 Alpha  occ. eigenvalues --   -0.69386  -0.68253  -0.67262  -0.66233  -0.65809
 Alpha  occ. eigenvalues --   -0.65445  -0.64357  -0.63088  -0.62144  -0.61084
 Alpha  occ. eigenvalues --   -0.60347  -0.59623  -0.59317  -0.58477  -0.57671
 Alpha  occ. eigenvalues --   -0.57105  -0.56260  -0.55736  -0.55409  -0.54591
 Alpha  occ. eigenvalues --   -0.54412  -0.53933  -0.53524  -0.53289  -0.52795
 Alpha  occ. eigenvalues --   -0.52193  -0.51852  -0.51558  -0.51057  -0.50802
 Alpha  occ. eigenvalues --   -0.50232  -0.49956  -0.49586  -0.48869  -0.47950
 Alpha  occ. eigenvalues --   -0.47414  -0.46746  -0.46316  -0.46182  -0.45870
 Alpha  occ. eigenvalues --   -0.45660  -0.45387  -0.45193  -0.44833  -0.44320
 Alpha  occ. eigenvalues --   -0.43521  -0.42867  -0.42333  -0.42257  -0.42020
 Alpha  occ. eigenvalues --   -0.41739  -0.41412  -0.40439  -0.39454  -0.37614
 Alpha  occ. eigenvalues --   -0.36517  -0.32657  -0.31520
 Alpha virt. eigenvalues --   -0.19184  -0.14194  -0.11681  -0.09146  -0.06757
 Alpha virt. eigenvalues --   -0.03796  -0.02808  -0.02138  -0.01576  -0.01240
 Alpha virt. eigenvalues --   -0.00764  -0.00269   0.00259   0.01319   0.01789

 Mulliken charges:
               1
     1  N   -0.676739
     2  H    0.321846
     3  H    0.308127
     4  C   -0.250342
     5  H    0.170108
     6  H    0.198827
     7  C    0.595283
     8  O   -0.546885
     9  N   -0.586491
    10  H    0.350677
    11  C   -0.063859
    12  H    0.193474
    13  C    0.634058
    14  C   -0.291202
    15  H    0.148322
    16  H    0.172149
    17  O   -0.553286
    18  C   -0.078247
    19  H    0.134440
    20  C   -0.460271
    21  H    0.137401
    22  H    0.170071
    23  H    0.143605
    24  C   -0.446724
    25  H    0.150246
    26  H    0.148965
    27  H    0.162059
    28  N   -0.637284
    29  H    0.408991
    30  C   -0.040590
    31  H    0.205235
    32  C    0.709000
    33  C   -0.116161
    34  H    0.168991
    35  O   -0.452352
    36  C   -0.485389
    37  H    0.154949
    38  H    0.177742
    39  H    0.173403
    40  C   -0.483313
    41  H    0.152234
    42  H    0.177045
    43  H    0.175354
    44  N   -0.594712
    45  H    0.428909
    46  C   -0.061796
    47  H    0.239659
    48  C    0.640168
    49  C   -0.269791
    50  H    0.179838
    51  H    0.185431
    52  O   -0.370724
    53  C   -0.276730
    54  H    0.133927
    55  H    0.178818
    56  C   -0.260598
    57  H    0.140313
    58  H    0.141945
    59  C   -0.144955
    60  H    0.144245
    61  H    0.138977
    62  N   -0.722952
    63  H    0.312295
    64  H    0.303142
    65  O   -0.780624
    66  H    0.419431
    67  H    0.422319
 Sum of Mulliken charges =   1.00000

 Dipole moment (field-independent basis, Debye):
    X=              3.8963    Y=              8.7738    Z=             -4.7650  Tot=             10.7176
 Quadrupole moment (field-independent basis, Debye-Ang):
   XX=           -110.2184   YY=           -143.0126   ZZ=           -137.8997
   XY=             14.7224   XZ=             -9.7339   YZ=            -27.9759

 Normal termination of Gaussian 16 at Sun Jul 10 16:55:15 2022.
