 Gaussian 16, Revision C.01,
 Gaussian 16:  ES64L-G16RevC.01  3-Jul-2019

 ----------------------------------------------------------------------
 # B3LYP/6-31G* empiricaldispersion=gd3bj guess=read geom=check nosymm
 integral(ultrafinegrid)
 ----------------------------------------------------------------------

 ------------------------------------------------------
 Candidate Structure: Conf:876 Charge calc in gas phase
 ------------------------------------------------------
 Structure from the checkpoint file:  "conf-876.chk"
 Charge =  1 Multiplicity = 1

                          Input orientation:
 ---------------------------------------------------------------------
 Center     Atomic      Atomic             Coordinates (Angstroms)
 Number     Number       Type             X           Y           Z
 ---------------------------------------------------------------------
      1          7           0       -4.037893    0.404176    2.698764
      2          1           0       -5.035897    0.317268    2.864574
      3          1           0       -3.607124    0.629363    3.591585
      4          6           0       -3.482510   -0.831332    2.141840
      5          1           0       -4.270095   -1.402316    1.637797
      6          1           0       -3.038309   -1.508461    2.882457
      7          6           0       -2.417272   -0.556208    1.082541
      8          8           0       -1.723553   -1.470955    0.611578
      9          7           0       -2.313132    0.732708    0.705175
     10          1           0       -2.958165    1.370568    1.170009
     11          6           0       -1.508494    1.160601   -0.434396
     12          1           0       -1.590140    0.372603   -1.192034
     13          6           0       -0.024678    1.224737   -0.035680
     14          6           0       -2.043778    2.477694   -0.998138
     15          1           0       -3.095026    2.298948   -1.259798
     16          1           0       -2.031749    3.236965   -0.206845
     17          8           0        0.611989    2.282470    0.071348
     18          6           0       -1.303266    3.032126   -2.232636
     19          1           0       -0.349646    3.439140   -1.880072
     20          6           0       -1.010996    1.964168   -3.295497
     21          1           0       -1.931206    1.454196   -3.608093
     22          1           0       -0.560601    2.414276   -4.187269
     23          1           0       -0.318164    1.194674   -2.928780
     24          6           0       -2.110258    4.189887   -2.832185
     25          1           0       -3.060895    3.834054   -3.247806
     26          1           0       -2.336503    4.953547   -2.079685
     27          1           0       -1.552202    4.674198   -3.641112
     28          7           0        0.550281    0.008859    0.153154
     29          1           0       -0.083380   -0.803432    0.173143
     30          6           0        1.918222   -0.100768    0.652411
     31          1           0        2.100806    0.745645    1.326785
     32          6           0        2.795224    0.117378   -0.575112
     33          6           0        2.197520   -1.412053    1.404030
     34          1           0        2.101211   -2.242183    0.693547
     35          8           0        3.321165   -0.924763   -1.149855
     36          6           0        3.628312   -1.397519    1.961659
     37          1           0        3.754339   -0.587398    2.690095
     38          1           0        3.836825   -2.339607    2.476273
     39          1           0        4.384566   -1.279042    1.179350
     40          6           0        1.177721   -1.606170    2.535359
     41          1           0        1.182254   -0.746148    3.216480
     42          1           0        1.445778   -2.492508    3.117983
     43          1           0        0.161309   -1.749579    2.160752
     44          7           0        2.891989    1.335719   -1.049700
     45          1           0        2.299367    2.012289   -0.534461
     46          6           0        3.259901    1.731262   -2.432213
     47          1           0        2.807271    0.997376   -3.112311
     48          6           0        4.778176    1.661617   -2.622699
     49          6           0        2.704470    3.124901   -2.724444
     50          1           0        1.705591    3.187036   -2.281500
     51          1           0        3.336083    3.870111   -2.228482
     52          8           0        5.527504    2.578416   -2.795469
     53          6           0        2.597349    3.403495   -4.224884
     54          1           0        1.952421    2.647087   -4.688007
     55          1           0        3.586035    3.329222   -4.694696
     56          6           0        1.996532    4.783097   -4.516398
     57          1           0        1.152448    4.970037   -3.836371
     58          1           0        2.735553    5.569350   -4.319481
     59          6           0        1.492295    4.892178   -5.959124
     60          1           0        1.274146    5.946018   -6.192392
     61          1           0        2.287196    4.576289   -6.645493
     62          7           0        0.341616    3.997236   -6.158199
     63          1           0       -0.501002    4.442439   -5.797749
     64          1           0        0.175994    3.851810   -7.152083
     65          8           0        5.190231    0.351875   -2.578829
     66          1           0        3.982059   -0.680574   -1.848148
     67          1           0        6.162265    0.316309   -2.680640
 ---------------------------------------------------------------------

 SCF Done:  E(RB3LYP) =  -1396.76514177     A.U. after    1 cycles

 Alpha  occ. eigenvalues --  -19.36671 -19.35476 -19.29009 -19.25123 -19.22176
 Alpha  occ. eigenvalues --  -14.54264 -14.48210 -14.46231 -14.42648 -14.39556
 Alpha  occ. eigenvalues --  -10.48258 -10.46888 -10.41227 -10.39202 -10.38803
 Alpha  occ. eigenvalues --  -10.37595 -10.34145 -10.31896 -10.31320 -10.30568
 Alpha  occ. eigenvalues --  -10.28737 -10.28316 -10.28245 -10.27891 -10.27761
 Alpha  occ. eigenvalues --  -10.27440 -10.26702 -10.26004 -10.25686  -1.27267
 Alpha  occ. eigenvalues --   -1.25220  -1.16956  -1.16777  -1.13724  -1.11694
 Alpha  occ. eigenvalues --   -1.05400  -1.03245  -0.98683  -0.96171  -0.94943
 Alpha  occ. eigenvalues --   -0.92469  -0.90541  -0.87620  -0.85712  -0.84192
 Alpha  occ. eigenvalues --   -0.81339  -0.79783  -0.79280  -0.78694  -0.77038
 Alpha  occ. eigenvalues --   -0.76826  -0.74714  -0.73141  -0.71778  -0.70169
 Alpha  occ. eigenvalues --   -0.69504  -0.67791  -0.67219  -0.66735  -0.65726
 Alpha  occ. eigenvalues --   -0.65114  -0.63709  -0.63432  -0.63080  -0.60900
 Alpha  occ. eigenvalues --   -0.60318  -0.60132  -0.58613  -0.58208  -0.57306
 Alpha  occ. eigenvalues --   -0.57114  -0.56648  -0.55946  -0.55615  -0.54808
 Alpha  occ. eigenvalues --   -0.54664  -0.54158  -0.53852  -0.53167  -0.52507
 Alpha  occ. eigenvalues --   -0.52089  -0.51952  -0.51324  -0.50608  -0.50570
 Alpha  occ. eigenvalues --   -0.50047  -0.49680  -0.49022  -0.48435  -0.47626
 Alpha  occ. eigenvalues --   -0.47339  -0.47216  -0.46602  -0.46358  -0.45979
 Alpha  occ. eigenvalues --   -0.45824  -0.45411  -0.45398  -0.44460  -0.44388
 Alpha  occ. eigenvalues --   -0.43285  -0.42396  -0.42316  -0.41808  -0.41682
 Alpha  occ. eigenvalues --   -0.41550  -0.41507  -0.39087  -0.38788  -0.37450
 Alpha  occ. eigenvalues --   -0.35619  -0.34270  -0.31863
 Alpha virt. eigenvalues --   -0.17692  -0.14387  -0.11059  -0.08014  -0.07114
 Alpha virt. eigenvalues --   -0.04068  -0.02502  -0.01945  -0.01816  -0.00082
 Alpha virt. eigenvalues --    0.00276   0.00617   0.01323   0.01865   0.02373

 Mulliken charges:
               1
     1  N   -0.748952
     2  H    0.335458
     3  H    0.327768
     4  C   -0.238823
     5  H    0.201241
     6  H    0.183619
     7  C    0.610692
     8  O   -0.557964
     9  N   -0.596999
    10  H    0.375591
    11  C   -0.053235
    12  H    0.191493
    13  C    0.645550
    14  C   -0.285585
    15  H    0.155903
    16  H    0.159846
    17  O   -0.556127
    18  C   -0.098219
    19  H    0.162074
    20  C   -0.484714
    21  H    0.153816
    22  H    0.193079
    23  H    0.110041
    24  C   -0.456111
    25  H    0.152886
    26  H    0.155623
    27  H    0.145573
    28  N   -0.636268
    29  H    0.407422
    30  C   -0.037168
    31  H    0.201441
    32  C    0.629301
    33  C   -0.112057
    34  H    0.168803
    35  O   -0.551925
    36  C   -0.464913
    37  H    0.160291
    38  H    0.182488
    39  H    0.146991
    40  C   -0.478096
    41  H    0.149965
    42  H    0.173945
    43  H    0.183149
    44  N   -0.582736
    45  H    0.428915
    46  C   -0.081060
    47  H    0.210835
    48  C    0.641212
    49  C   -0.329988
    50  H    0.184178
    51  H    0.187678
    52  O   -0.389613
    53  C   -0.279427
    54  H    0.174385
    55  H    0.155108
    56  C   -0.258482
    57  H    0.137993
    58  H    0.151774
    59  C   -0.156923
    60  H    0.141587
    61  H    0.149841
    62  N   -0.728042
    63  H    0.310271
    64  H    0.314525
    65  O   -0.622343
    66  H    0.480537
    67  H    0.452883
 Sum of Mulliken charges =   1.00000

 Dipole moment (field-independent basis, Debye):
    X=              5.5045    Y=              4.3154    Z=             -3.9387  Tot=              8.0271
 Quadrupole moment (field-independent basis, Debye-Ang):
   XX=           -100.7362   YY=           -157.6538   ZZ=           -119.4675
   XY=             -6.8072   XZ=            -29.9685   YZ=            -26.7313

 Normal termination of Gaussian 16 at Sun Jul 10 16:56:02 2022.
