 Gaussian 16, Revision C.01,
 Gaussian 16:  ES64L-G16RevC.01  3-Jul-2019

 ----------------------------------------------------------------------
 # B3LYP/6-31G* empiricaldispersion=gd3bj guess=read geom=check nosymm
 integral(ultrafinegrid)
 ----------------------------------------------------------------------

 ------------------------------------------------------
 Candidate Structure: Conf:981 Charge calc in gas phase
 ------------------------------------------------------
 Structure from the checkpoint file:  "conf-981.chk"
 Charge =  1 Multiplicity = 1

                          Input orientation:
 ---------------------------------------------------------------------
 Center     Atomic      Atomic             Coordinates (Angstroms)
 Number     Number       Type             X           Y           Z
 ---------------------------------------------------------------------
      1          7           0       -1.878800    3.004672    3.437706
      2          1           0       -2.267736    3.800961    3.937215
      3          1           0       -1.532442    2.349430    4.135507
      4          6           0       -2.920189    2.356202    2.652148
      5          1           0       -3.320983    3.069810    1.923523
      6          1           0       -3.782620    1.964060    3.224070
      7          6           0       -2.302956    1.166768    1.943442
      8          8           0       -1.541108    0.390542    2.536963
      9          7           0       -2.618227    0.977782    0.634905
     10          1           0       -3.210942    1.645295    0.159289
     11          6           0       -2.254642   -0.246095   -0.075849
     12          1           0       -2.310281   -1.060205    0.656025
     13          6           0       -0.783418   -0.186389   -0.497614
     14          6           0       -3.203900   -0.537763   -1.238633
     15          1           0       -3.126823    0.262597   -1.984542
     16          1           0       -2.852755   -1.450611   -1.733011
     17          8           0       -0.548918   -0.206913   -1.773019
     18          6           0       -4.673839   -0.729867   -0.818353
     19          1           0       -5.050018    0.220899   -0.413690
     20          6           0       -5.505503   -1.072107   -2.061059
     21          1           0       -5.186882   -2.030854   -2.488628
     22          1           0       -6.566860   -1.154911   -1.807951
     23          1           0       -5.402995   -0.306926   -2.838502
     24          6           0       -4.837362   -1.803251    0.264969
     25          1           0       -4.406937   -2.758461   -0.062150
     26          1           0       -4.362878   -1.521548    1.212134
     27          1           0       -5.897424   -1.974332    0.475723
     28          7           0        0.111527   -0.133085    0.454369
     29          1           0       -0.318026   -0.081057    1.401246
     30          6           0        1.567853    0.115676    0.360295
     31          1           0        1.711730    1.090590   -0.117585
     32          6           0        2.283104   -0.888998   -0.551148
     33          6           0        2.146262    0.167655    1.797290
     34          1           0        1.512800    0.881634    2.342310
     35          8           0        3.318567   -0.584516   -1.118552
     36          6           0        2.062404   -1.194724    2.497729
     37          1           0        2.701518   -1.934632    2.002812
     38          1           0        2.405949   -1.101915    3.531621
     39          1           0        1.039464   -1.589620    2.534820
     40          6           0        3.578981    0.711023    1.783232
     41          1           0        4.254535    0.045855    1.238676
     42          1           0        3.943658    0.806811    2.810047
     43          1           0        3.628762    1.697926    1.312105
     44          7           0        1.639193   -2.072218   -0.765687
     45          1           0        0.902897   -2.368511   -0.141743
     46          6           0        2.090047   -2.996226   -1.792806
     47          1           0        3.092261   -3.372366   -1.565152
     48          6           0        2.229143   -2.297098   -3.142631
     49          6           0        1.108499   -4.180846   -1.911807
     50          1           0        1.463732   -4.815800   -2.729727
     51          1           0        1.187143   -4.779795   -0.995671
     52          8           0        2.908663   -2.694040   -4.046069
     53          6           0       -0.353348   -3.779658   -2.153676
     54          1           0       -0.419126   -3.106644   -3.018095
     55          1           0       -0.734513   -3.205327   -1.294605
     56          6           0       -1.268959   -4.984609   -2.378436
     57          1           0       -0.968109   -5.525762   -3.282448
     58          1           0       -1.163332   -5.689824   -1.541382
     59          6           0       -2.739314   -4.584321   -2.519651
     60          1           0       -3.047135   -4.035942   -1.604198
     61          1           0       -2.838946   -3.875308   -3.352473
     62          7           0       -3.557153   -5.750900   -2.829444
     63          1           0       -3.593328   -6.382240   -2.031117
     64          1           0       -4.516622   -5.477612   -3.028906
     65          8           0        1.421664   -1.184117   -3.277424
     66          1           0        0.364194   -0.446855   -2.097302
     67          1           0        1.595781   -0.818737   -4.166726
 ---------------------------------------------------------------------

 SCF Done:  E(RB3LYP) =  -1396.74351075     A.U. after    1 cycles

 Alpha  occ. eigenvalues --  -19.36838 -19.33183 -19.26566 -19.26064 -19.24698
 Alpha  occ. eigenvalues --  -14.54502 -14.51415 -14.49620 -14.42197 -14.39494
 Alpha  occ. eigenvalues --  -10.48952 -10.44273 -10.43197 -10.42083 -10.39392
 Alpha  occ. eigenvalues --  -10.37895 -10.36324 -10.34028 -10.32205 -10.31979
 Alpha  occ. eigenvalues --  -10.31028 -10.30872 -10.30132 -10.30016 -10.29041
 Alpha  occ. eigenvalues --  -10.28304 -10.27731 -10.27628 -10.27507  -1.27047
 Alpha  occ. eigenvalues --   -1.22948  -1.18517  -1.17098  -1.14192  -1.12104
 Alpha  occ. eigenvalues --   -1.07616  -1.06162  -0.99426  -0.96662  -0.95615
 Alpha  occ. eigenvalues --   -0.93749  -0.91896  -0.89603  -0.87112  -0.84847
 Alpha  occ. eigenvalues --   -0.82650  -0.80946  -0.80140  -0.79421  -0.79222
 Alpha  occ. eigenvalues --   -0.77152  -0.76140  -0.74702  -0.73288  -0.72244
 Alpha  occ. eigenvalues --   -0.70960  -0.69444  -0.68715  -0.68174  -0.67591
 Alpha  occ. eigenvalues --   -0.65806  -0.64526  -0.64044  -0.62616  -0.61172
 Alpha  occ. eigenvalues --   -0.60675  -0.59397  -0.59104  -0.58870  -0.58348
 Alpha  occ. eigenvalues --   -0.58102  -0.57685  -0.57219  -0.56940  -0.55763
 Alpha  occ. eigenvalues --   -0.55571  -0.54805  -0.54448  -0.54368  -0.53915
 Alpha  occ. eigenvalues --   -0.53274  -0.52876  -0.52769  -0.52222  -0.51340
 Alpha  occ. eigenvalues --   -0.50803  -0.50426  -0.50226  -0.49942  -0.49648
 Alpha  occ. eigenvalues --   -0.48992  -0.48893  -0.48091  -0.48007  -0.46732
 Alpha  occ. eigenvalues --   -0.46321  -0.45773  -0.45146  -0.44972  -0.44757
 Alpha  occ. eigenvalues --   -0.44574  -0.44373  -0.44161  -0.43782  -0.43292
 Alpha  occ. eigenvalues --   -0.42867  -0.41013  -0.40712  -0.40481  -0.38486
 Alpha  occ. eigenvalues --   -0.37848  -0.34561  -0.31660
 Alpha virt. eigenvalues --   -0.18441  -0.12234  -0.12050  -0.10791  -0.07664
 Alpha virt. eigenvalues --   -0.05662  -0.05227  -0.04056  -0.02580  -0.01324
 Alpha virt. eigenvalues --   -0.01271  -0.00901  -0.00281   0.00407   0.00831

 Mulliken charges:
               1
     1  N   -0.714143
     2  H    0.326246
     3  H    0.326213
     4  C   -0.226928
     5  H    0.165278
     6  H    0.179191
     7  C    0.647644
     8  O   -0.547996
     9  N   -0.596947
    10  H    0.359743
    11  C   -0.082141
    12  H    0.214173
    13  C    0.632199
    14  C   -0.300902
    15  H    0.166516
    16  H    0.174729
    17  O   -0.572338
    18  C   -0.079010
    19  H    0.128658
    20  C   -0.450404
    21  H    0.152107
    22  H    0.169800
    23  H    0.155911
    24  C   -0.474032
    25  H    0.159149
    26  H    0.147792
    27  H    0.176112
    28  N   -0.626953
    29  H    0.445640
    30  C   -0.036148
    31  H    0.212821
    32  C    0.593271
    33  C   -0.135341
    34  H    0.171623
    35  O   -0.485304
    36  C   -0.475699
    37  H    0.166322
    38  H    0.189709
    39  H    0.143786
    40  C   -0.454813
    41  H    0.185704
    42  H    0.172602
    43  H    0.164082
    44  N   -0.644650
    45  H    0.347185
    46  C   -0.004354
    47  H    0.218716
    48  C    0.635182
    49  C   -0.323962
    50  H    0.199851
    51  H    0.169109
    52  O   -0.418512
    53  C   -0.281285
    54  H    0.153795
    55  H    0.096739
    56  C   -0.251474
    57  H    0.175855
    58  H    0.139018
    59  C   -0.146081
    60  H    0.103255
    61  H    0.143898
    62  N   -0.708064
    63  H    0.303116
    64  H    0.307872
    65  O   -0.629374
    66  H    0.503009
    67  H    0.443231
 Sum of Mulliken charges =   1.00000

 Dipole moment (field-independent basis, Debye):
    X=             -8.2383    Y=             -1.7429    Z=              1.3373  Tot=              8.5261
 Quadrupole moment (field-independent basis, Debye-Ang):
   XX=           -138.4812   YY=           -148.2719   ZZ=           -157.2686
   XY=             -3.6408   XZ=              4.3587   YZ=              4.3190

 Normal termination of Gaussian 16 at Sun Jul 10 16:56:03 2022.
