 Gaussian 16, Revision C.01,
 Gaussian 16:  ES64L-G16RevC.01  3-Jul-2019

 ----------------------------------------------------------------------
 # B3LYP/6-31G* empiricaldispersion=gd3bj guess=read geom=check nosymm
 integral(ultrafinegrid)
 ----------------------------------------------------------------------

 ----------------------------------------------------
 Candidate Structure: Conf:2 Charge calc in gas phase
 ----------------------------------------------------
 Structure from the checkpoint file:  "conf-2.chk"
 Charge =  1 Multiplicity = 1

                          Input orientation:
 ---------------------------------------------------------------------
 Center     Atomic      Atomic             Coordinates (Angstroms)
 Number     Number       Type             X           Y           Z
 ---------------------------------------------------------------------
      1          7           0       -8.095960   13.964997   13.308471
      2          1           0       -8.777408   13.637073   12.626459
      3          1           0       -8.532114   13.908445   14.227362
      4          6           0       -7.742074   15.337228   12.999987
      5          1           0       -7.291257   15.358551   12.002607
      6          6           0       -6.715278   15.792510   14.007049
      7          6           0       -8.928432   16.363841   12.998673
      8          1           0       -9.439146   16.284206   13.964722
      9          1           0       -8.557938   17.390883   12.910022
     10          8           0       -6.673588   15.560801   15.176305
     11          6           0       -9.866186   16.063032   11.856102
     12          6           0      -11.096545   15.437031   12.078503
     13          1           0      -11.402219   15.195446   13.093400
     14          6           0       -9.484022   16.371331   10.542397
     15          1           0       -8.523011   16.847054   10.361354
     16          6           0      -11.941633   15.138127   11.007608
     17          1           0      -12.897557   14.658062   11.193266
     18          6           0      -10.327729   16.075222    9.474088
     19          1           0      -10.025642   16.325635    8.461433
     20          6           0      -11.559769   15.458169    9.705115
     21          1           0      -12.217583   15.227491    8.872896
     22          7           0       -5.635825   16.729709   13.438252
     23          6           0       -5.955147   18.197378   13.699642
     24          1           0       -6.717024   18.243183   14.480871
     25          6           0       -6.478052   18.739659   12.356222
     26          6           0       -4.628626   18.804044   14.186509
     27          1           0       -4.031509   19.133453   13.329074
     28          1           0       -4.802779   19.668621   14.831080
     29          8           0       -6.360891   18.023207   11.348096
     30          6           0       -3.950897   17.633529   14.908427
     31          1           0       -2.877294   17.782195   15.045242
     32          1           0       -4.404632   17.466950   15.890251
     33          6           0       -4.242098   16.446452   13.993239
     34          1           0       -4.254637   15.480112   14.494574
     35          1           0       -3.569790   16.409599   13.133642
     36          7           0       -7.021333   19.948926   12.402987
     37          1           0       -7.017845   20.495253   13.262277
     38          6           0       -7.542696   20.664376   11.234633
     39          1           0       -6.865987   20.518811   10.372617
     40          6           0       -7.552842   22.121925   11.643832
     41          6           0       -8.948380   20.144385   10.845057
     42          1           0       -9.676540   20.516358   11.576694
     43          1           0       -8.927866   19.055796   10.955111
     44          8           0       -7.329621   22.506859   12.776188
     45          6           0       -9.427548   20.480652    9.423118
     46          1           0      -10.507672   20.293094    9.417870
     47          1           0       -9.305747   21.550647    9.224190
     48          6           0       -8.812476   19.660306    8.270176
     49          1           0       -9.540099   19.651212    7.449503
     50          1           0       -8.703767   18.610431    8.579762
     51          6           0       -7.490580   20.150582    7.668592
     52          1           0       -7.358476   19.659565    6.690991
     53          1           0       -7.559664   21.227633    7.474067
     54          7           0       -6.340984   19.934193    8.560756
     55          1           0       -5.486599   20.259230    8.111303
     56          1           0       -6.218451   18.937423    8.736869
     57          8           0       -7.847013   22.940296   10.624982
     58          1           0       -7.859636   23.851142   10.978471
     59          1           0       -5.661684   16.690280   12.395513
 ---------------------------------------------------------------------

 SCF Done:  E(RB3LYP) =  -1300.62617452     A.U. after    1 cycles

 Alpha  occ. eigenvalues --  -19.32138 -19.30385 -19.27015 -19.24923 -14.58485
 Alpha  occ. eigenvalues --  -14.49975 -14.43472 -14.40818 -10.47043 -10.43798
 Alpha  occ. eigenvalues --  -10.42859 -10.40230 -10.38407 -10.36744 -10.34428
 Alpha  occ. eigenvalues --  -10.33554 -10.33422 -10.31791 -10.29867 -10.29269
 Alpha  occ. eigenvalues --  -10.28836 -10.28577 -10.28524 -10.28340 -10.28167
 Alpha  occ. eigenvalues --  -10.28031 -10.26980 -10.26879  -1.23833  -1.21527
 Alpha  occ. eigenvalues --   -1.18929  -1.13248  -1.12606  -1.06562  -1.02133
 Alpha  occ. eigenvalues --   -0.97164  -0.95531  -0.95218  -0.92202  -0.89501
 Alpha  occ. eigenvalues --   -0.89026  -0.85325  -0.84713  -0.83858  -0.80088
 Alpha  occ. eigenvalues --   -0.79115  -0.77043  -0.75822  -0.74633  -0.73895
 Alpha  occ. eigenvalues --   -0.72791  -0.70602  -0.70228  -0.68940  -0.68207
 Alpha  occ. eigenvalues --   -0.66814  -0.66018  -0.64372  -0.63182  -0.61342
 Alpha  occ. eigenvalues --   -0.60661  -0.60283  -0.59792  -0.59001  -0.58664
 Alpha  occ. eigenvalues --   -0.58210  -0.57600  -0.57399  -0.57140  -0.56443
 Alpha  occ. eigenvalues --   -0.55967  -0.55474  -0.54691  -0.54448  -0.54004
 Alpha  occ. eigenvalues --   -0.53449  -0.52708  -0.52360  -0.51943  -0.51505
 Alpha  occ. eigenvalues --   -0.51164  -0.50800  -0.50536  -0.50312  -0.49854
 Alpha  occ. eigenvalues --   -0.48904  -0.48529  -0.48406  -0.47837  -0.45473
 Alpha  occ. eigenvalues --   -0.44987  -0.44480  -0.43465  -0.43166  -0.42842
 Alpha  occ. eigenvalues --   -0.42497  -0.41958  -0.41407  -0.40886  -0.38897
 Alpha  occ. eigenvalues --   -0.38693  -0.36113  -0.34471  -0.33915  -0.32697
 Alpha virt. eigenvalues --   -0.18516  -0.12655  -0.10265  -0.09722  -0.09294
 Alpha virt. eigenvalues --   -0.07165  -0.06498  -0.04600  -0.03329  -0.02493
 Alpha virt. eigenvalues --   -0.01968  -0.01603  -0.00926  -0.00709   0.00224

 Mulliken charges:
               1
     1  N   -0.698927
     2  H    0.336489
     3  H    0.325182
     4  C   -0.080337
     5  H    0.185706
     6  C    0.590735
     7  C   -0.384394
     8  H    0.173542
     9  H    0.155682
    10  O   -0.369439
    11  C    0.154612
    12  C   -0.191777
    13  H    0.139638
    14  C   -0.197195
    15  H    0.153169
    16  C   -0.125394
    17  H    0.157892
    18  C   -0.132624
    19  H    0.149206
    20  C   -0.124798
    21  H    0.157335
    22  N   -0.593150
    23  C   -0.099890
    24  H    0.220696
    25  C    0.656849
    26  C   -0.300614
    27  H    0.190962
    28  H    0.205013
    29  O   -0.553588
    30  C   -0.294465
    31  H    0.204569
    32  H    0.199461
    33  C   -0.157833
    34  H    0.231092
    35  H    0.208934
    36  N   -0.613024
    37  H    0.366861
    38  C   -0.078377
    39  H    0.281765
    40  C    0.594378
    41  C   -0.289475
    42  H    0.151517
    43  H    0.164614
    44  O   -0.476984
    45  C   -0.270532
    46  H    0.153962
    47  H    0.168349
    48  C   -0.276427
    49  H    0.155421
    50  H    0.132294
    51  C   -0.137071
    52  H    0.137657
    53  H    0.157610
    54  N   -0.739407
    55  H    0.315592
    56  H    0.312658
    57  O   -0.550622
    58  H    0.431569
    59  H    0.415334
 Sum of Mulliken charges =   1.00000

 Dipole moment (field-independent basis, Debye):
    X=            -32.3605    Y=             86.3807    Z=             58.9333  Tot=            109.4621
 Quadrupole moment (field-independent basis, Debye-Ang):
   XX=             93.9944   YY=           1418.1677   ZZ=            588.0482
   XY=           -576.0268   XZ=           -382.8655   YZ=           1048.7860

 Normal termination of Gaussian 16 at Sun Jul 10 16:54:56 2022.
