 Gaussian 16, Revision C.01,
 Gaussian 16:  ES64L-G16RevC.01  3-Jul-2019

 ----------------------------------------------------------------------
 # B3LYP/6-31G* empiricaldispersion=gd3bj guess=read geom=check nosymm
 integral(ultrafinegrid)
 ----------------------------------------------------------------------

 ------------------------------------------------------
 Candidate Structure: Conf:549 Charge calc in gas phase
 ------------------------------------------------------
 Structure from the checkpoint file:  "conf-549.chk"
 Charge =  1 Multiplicity = 1

                          Input orientation:
 ---------------------------------------------------------------------
 Center     Atomic      Atomic             Coordinates (Angstroms)
 Number     Number       Type             X           Y           Z
 ---------------------------------------------------------------------
      1          7           0       -1.783673   -3.847139    2.642401
      2          1           0       -1.421072   -4.370073    1.848189
      3          1           0       -0.977667   -3.438040    3.110125
      4          6           0       -2.681007   -2.813633    2.178466
      5          1           0       -3.032680   -2.221233    3.032099
      6          1           0       -3.574924   -3.284222    1.745196
      7          6           0       -2.111587   -1.882375    1.104368
      8          8           0       -1.142729   -2.231372    0.403177
      9          7           0       -2.700947   -0.676783    0.962671
     10          1           0       -3.459677   -0.445108    1.591777
     11          6           0       -2.488683    0.233140   -0.165933
     12          1           0       -2.369637   -0.382483   -1.066743
     13          6           0       -1.174300    1.024989   -0.101306
     14          6           0       -3.694486    1.162454   -0.332821
     15          1           0       -3.796097    1.776984    0.572424
     16          1           0       -3.458700    1.857190   -1.143968
     17          8           0       -1.045468    2.101864   -0.687889
     18          6           0       -5.023637    0.445845   -0.632795
     19          1           0       -5.274160   -0.209349    0.215498
     20          6           0       -6.143340    1.486452   -0.759526
     21          1           0       -5.957931    2.155103   -1.608831
     22          1           0       -7.111097    1.001101   -0.920918
     23          1           0       -6.221544    2.104071    0.142216
     24          6           0       -4.940346   -0.427123   -1.890905
     25          1           0       -4.634188    0.169308   -2.759505
     26          1           0       -4.229373   -1.254277   -1.780233
     27          1           0       -5.916091   -0.867830   -2.118368
     28          7           0       -0.138856    0.426743    0.556154
     29          1           0       -0.219404   -0.572350    0.734996
     30          6           0        1.207576    0.984822    0.485829
     31          1           0        1.110188    2.071329    0.566831
     32          6           0        1.679553    0.711539   -0.926235
     33          6           0        2.120749    0.475628    1.617879
     34          1           0        1.640778    0.856238    2.528305
     35          8           0        2.442544   -0.312456   -1.245323
     36          6           0        2.210603   -1.054053    1.733975
     37          1           0        2.722810   -1.499374    0.877661
     38          1           0        2.779798   -1.309599    2.632745
     39          1           0        1.230229   -1.533906    1.828889
     40          6           0        3.511003    1.116295    1.504095
     41          1           0        4.052953    0.747264    0.626142
     42          1           0        4.110896    0.867294    2.383789
     43          1           0        3.450232    2.208835    1.441722
     44          7           0        1.257027    1.391901   -1.956108
     45          1           0        0.493766    2.066494   -1.827840
     46          6           0        1.649693    0.762260   -3.217906
     47          1           0        0.746496    0.419521   -3.731210
     48          6           0        2.413363   -0.445943   -2.707995
     49          6           0        2.499069    1.666609   -4.123794
     50          1           0        3.405187    1.965768   -3.582963
     51          1           0        2.819221    1.054837   -4.975231
     52          8           0        2.978272   -1.329450   -3.245778
     53          6           0        1.719083    2.898461   -4.587437
     54          1           0        1.399450    3.499879   -3.728336
     55          1           0        0.806625    2.577596   -5.110192
     56          6           0        2.540469    3.806673   -5.506890
     57          1           0        3.508670    4.027060   -5.033882
     58          1           0        2.764864    3.293096   -6.450293
     59          6           0        1.818648    5.126014   -5.802660
     60          1           0        2.391813    5.685447   -6.559666
     61          1           0        0.839354    4.908994   -6.246964
     62          7           0        1.588923    5.870164   -4.557356
     63          1           0        2.462612    6.296979   -4.250792
     64          1           0        0.947709    6.642228   -4.728127
     65          8           0       -0.211301   -1.318259   -2.106625
     66          1           0       -0.317613   -2.023776   -2.762837
     67          1           0       -0.492467   -1.730875   -1.261852
 ---------------------------------------------------------------------

 SCF Done:  E(RB3LYP) =  -1396.74532381     A.U. after    1 cycles

 Alpha  occ. eigenvalues --  -19.37477 -19.30921 -19.25919 -19.25757 -19.25612
 Alpha  occ. eigenvalues --  -14.54871 -14.49627 -14.49492 -14.41310 -14.39295
 Alpha  occ. eigenvalues --  -10.48284 -10.47882 -10.42418 -10.41642 -10.39474
 Alpha  occ. eigenvalues --  -10.38720 -10.35736 -10.32899 -10.32318 -10.31879
 Alpha  occ. eigenvalues --  -10.29266 -10.28889 -10.28883 -10.28833 -10.28646
 Alpha  occ. eigenvalues --  -10.28610 -10.27232 -10.26597 -10.25834  -1.29631
 Alpha  occ. eigenvalues --   -1.21440  -1.17837  -1.16773  -1.11946  -1.11490
 Alpha  occ. eigenvalues --   -1.06949  -1.05607  -0.98569  -0.96231  -0.95683
 Alpha  occ. eigenvalues --   -0.92967  -0.91698  -0.88412  -0.86965  -0.84499
 Alpha  occ. eigenvalues --   -0.81091  -0.80182  -0.79956  -0.79465  -0.77435
 Alpha  occ. eigenvalues --   -0.76804  -0.75694  -0.73031  -0.71890  -0.71662
 Alpha  occ. eigenvalues --   -0.71026  -0.67895  -0.67220  -0.66696  -0.65911
 Alpha  occ. eigenvalues --   -0.64997  -0.64488  -0.63158  -0.61883  -0.61345
 Alpha  occ. eigenvalues --   -0.60558  -0.59870  -0.59780  -0.59131  -0.58173
 Alpha  occ. eigenvalues --   -0.57257  -0.56609  -0.56041  -0.55510  -0.55291
 Alpha  occ. eigenvalues --   -0.54872  -0.54759  -0.54168  -0.53648  -0.53539
 Alpha  occ. eigenvalues --   -0.53059  -0.52885  -0.51982  -0.51718  -0.50868
 Alpha  occ. eigenvalues --   -0.50423  -0.49570  -0.49256  -0.49081  -0.48545
 Alpha  occ. eigenvalues --   -0.47925  -0.47412  -0.46953  -0.46435  -0.46402
 Alpha  occ. eigenvalues --   -0.45963  -0.45769  -0.45475  -0.45237  -0.44198
 Alpha  occ. eigenvalues --   -0.43174  -0.42672  -0.42606  -0.42346  -0.42309
 Alpha  occ. eigenvalues --   -0.42268  -0.41687  -0.40989  -0.40431  -0.39325
 Alpha  occ. eigenvalues --   -0.37480  -0.33810  -0.31670
 Alpha virt. eigenvalues --   -0.19240  -0.13956  -0.11948  -0.10791  -0.05774
 Alpha virt. eigenvalues --   -0.04140  -0.03209  -0.02645  -0.02110  -0.00787
 Alpha virt. eigenvalues --   -0.00485  -0.00140   0.00398   0.01003   0.01748

 Mulliken charges:
               1
     1  N   -0.672334
     2  H    0.321608
     3  H    0.308788
     4  C   -0.251876
     5  H    0.175033
     6  H    0.202385
     7  C    0.587250
     8  O   -0.567873
     9  N   -0.585090
    10  H    0.356768
    11  C   -0.078864
    12  H    0.208412
    13  C    0.654892
    14  C   -0.299669
    15  H    0.152011
    16  H    0.184317
    17  O   -0.544283
    18  C   -0.080137
    19  H    0.117349
    20  C   -0.445230
    21  H    0.154050
    22  H    0.162952
    23  H    0.151632
    24  C   -0.454453
    25  H    0.151546
    26  H    0.137087
    27  H    0.168934
    28  N   -0.634849
    29  H    0.398040
    30  C   -0.061996
    31  H    0.213308
    32  C    0.692789
    33  C   -0.102614
    34  H    0.170406
    35  O   -0.455612
    36  C   -0.486036
    37  H    0.184125
    38  H    0.180041
    39  H    0.151690
    40  C   -0.472691
    41  H    0.162499
    42  H    0.185819
    43  H    0.160912
    44  N   -0.570672
    45  H    0.425044
    46  C   -0.064839
    47  H    0.243808
    48  C    0.636442
    49  C   -0.265945
    50  H    0.164671
    51  H    0.191399
    52  O   -0.361429
    53  C   -0.276446
    54  H    0.173341
    55  H    0.142916
    56  C   -0.258985
    57  H    0.138085
    58  H    0.149466
    59  C   -0.147936
    60  H    0.141296
    61  H    0.147032
    62  N   -0.724919
    63  H    0.301977
    64  H    0.312907
    65  O   -0.848465
    66  H    0.410923
    67  H    0.439289
 Sum of Mulliken charges =   1.00000

 Dipole moment (field-independent basis, Debye):
    X=             -0.1520    Y=              4.6805    Z=             -5.2879  Tot=              7.0635
 Quadrupole moment (field-independent basis, Debye-Ang):
   XX=           -132.9202   YY=           -148.8267   ZZ=           -127.8600
   XY=             18.8951   XZ=             -9.8504   YZ=            -22.8700

 Normal termination of Gaussian 16 at Sun Jul 10 16:54:49 2022.
