 Gaussian 16, Revision C.01,
 Gaussian 16:  ES64L-G16RevC.01  3-Jul-2019

 ----------------------------------------------------------------------
 # B3LYP/6-31G* empiricaldispersion=gd3bj guess=read geom=check nosymm
 integral(ultrafinegrid)
 ----------------------------------------------------------------------

 ------------------------------------------------------
 Candidate Structure: Conf:962 Charge calc in gas phase
 ------------------------------------------------------
 Structure from the checkpoint file:  "conf-962.chk"
 Charge =  1 Multiplicity = 1

                          Input orientation:
 ---------------------------------------------------------------------
 Center     Atomic      Atomic             Coordinates (Angstroms)
 Number     Number       Type             X           Y           Z
 ---------------------------------------------------------------------
      1          7           0       -1.062211   -2.035683   -3.444907
      2          1           0       -0.172648   -1.635411   -3.029605
      3          1           0       -0.860461   -2.752739   -4.144529
      4          6           0       -1.917362   -2.498680   -2.308651
      5          1           0       -1.317746   -3.136755   -1.658579
      6          1           0       -2.768256   -3.059550   -2.703818
      7          6           0       -2.367617   -1.190701   -1.631678
      8          8           0       -2.400987   -0.171538   -2.318398
      9          7           0       -2.642976   -1.234202   -0.317454
     10          1           0       -2.624638   -2.116636    0.178111
     11          6           0       -2.865054    0.006054    0.444169
     12          1           0       -3.659038    0.575179   -0.041250
     13          6           0       -1.616589    0.910192    0.368244
     14          6           0       -3.233832   -0.314104    1.897038
     15          1           0       -2.388307   -0.827989    2.375675
     16          1           0       -3.340133    0.647367    2.412743
     17          8           0       -1.717053    2.119889    0.286417
     18          6           0       -4.521880   -1.137681    2.085587
     19          1           0       -4.388853   -2.117276    1.597621
     20          6           0       -4.746960   -1.396028    3.580794
     21          1           0       -4.908098   -0.452863    4.116276
     22          1           0       -5.628711   -2.024926    3.739842
     23          1           0       -3.886298   -1.898035    4.037401
     24          6           0       -5.741942   -0.457787    1.453525
     25          1           0       -5.888190    0.545017    1.872735
     26          1           0       -5.647245   -0.357220    0.366699
     27          1           0       -6.649760   -1.036684    1.651194
     28          7           0       -0.413700    0.243750    0.449804
     29          1           0       -0.456399   -0.758954    0.326899
     30          6           0        0.784618    0.839738   -0.117063
     31          1           0        0.598421    1.916038   -0.166537
     32          6           0        0.941748    0.281217   -1.529255
     33          6           0        2.047957    0.584562    0.748017
     34          1           0        1.798719    1.022479    1.722319
     35          8           0        0.621134   -0.902865   -1.778661
     36          6           0        2.342246   -0.907131    0.945711
     37          1           0        2.593859   -1.394862   -0.001918
     38          1           0        3.193703   -1.030867    1.621884
     39          1           0        1.492491   -1.433557    1.394427
     40          6           0        3.271985    1.314743    0.179391
     41          1           0        3.607913    0.865210   -0.761679
     42          1           0        4.104952    1.254965    0.886143
     43          1           0        3.066038    2.379423    0.009225
     44          7           0        1.446357    1.083523   -2.471533
     45          1           0        1.736372    2.018399   -2.218083
     46          6           0        1.719770    0.607179   -3.818694
     47          1           0        0.770711    0.370622   -4.311842
     48          6           0        2.548338   -0.674887   -3.743739
     49          6           0        2.438705    1.689332   -4.648977
     50          1           0        2.565022    1.293257   -5.663143
     51          1           0        1.751837    2.541163   -4.736564
     52          8           0        3.500957   -0.856309   -3.027668
     53          6           0        3.791755    2.158679   -4.101182
     54          1           0        4.480700    1.309848   -4.031850
     55          1           0        3.680174    2.536341   -3.074452
     56          6           0        4.398542    3.263666   -4.970600
     57          1           0        4.525487    2.890051   -5.997359
     58          1           0        3.716887    4.120624   -5.034780
     59          6           0        5.746096    3.759729   -4.443797
     60          1           0        5.611216    4.145835   -3.425187
     61          1           0        6.440676    2.902502   -4.363678
     62          7           0        6.234036    4.860648   -5.274433
     63          1           0        7.071746    5.265697   -4.861446
     64          1           0        6.512892    4.507370   -6.188816
     65          8           0        2.095762   -1.595490   -4.636381
     66          1           0       -1.554554   -1.227077   -3.860304
     67          1           0        2.732521   -2.336610   -4.611228
 ---------------------------------------------------------------------

 SCF Done:  E(RB3LYP) =  -1396.77782168     A.U. after    1 cycles

 Alpha  occ. eigenvalues --  -19.32098 -19.26738 -19.26643 -19.25949 -19.21776
 Alpha  occ. eigenvalues --  -14.59057 -14.50684 -14.50047 -14.46054 -14.37338
 Alpha  occ. eigenvalues --  -10.44206 -10.44057 -10.42445 -10.40727 -10.38919
 Alpha  occ. eigenvalues --  -10.36603 -10.34477 -10.34149 -10.30530 -10.29542
 Alpha  occ. eigenvalues --  -10.29276 -10.28782 -10.27886 -10.27561 -10.26753
 Alpha  occ. eigenvalues --  -10.26654 -10.25926 -10.25863 -10.25672  -1.22649
 Alpha  occ. eigenvalues --   -1.19478  -1.17868  -1.14004  -1.13777  -1.13372
 Alpha  occ. eigenvalues --   -1.07070  -1.06584  -1.03029  -0.94403  -0.92587
 Alpha  occ. eigenvalues --   -0.91865  -0.90028  -0.89198  -0.85988  -0.85057
 Alpha  occ. eigenvalues --   -0.81305  -0.79116  -0.77857  -0.77033  -0.76036
 Alpha  occ. eigenvalues --   -0.74630  -0.74379  -0.73726  -0.73037  -0.71393
 Alpha  occ. eigenvalues --   -0.70583  -0.68937  -0.67365  -0.66866  -0.66539
 Alpha  occ. eigenvalues --   -0.65101  -0.64770  -0.63004  -0.62829  -0.61564
 Alpha  occ. eigenvalues --   -0.60282  -0.59657  -0.59492  -0.59281  -0.57252
 Alpha  occ. eigenvalues --   -0.56931  -0.56167  -0.55805  -0.55261  -0.54986
 Alpha  occ. eigenvalues --   -0.54650  -0.54513  -0.53262  -0.53095  -0.52352
 Alpha  occ. eigenvalues --   -0.51992  -0.51905  -0.50584  -0.50333  -0.50073
 Alpha  occ. eigenvalues --   -0.49985  -0.49443  -0.48402  -0.48222  -0.47922
 Alpha  occ. eigenvalues --   -0.47372  -0.46893  -0.46761  -0.45593  -0.44789
 Alpha  occ. eigenvalues --   -0.44025  -0.43813  -0.43695  -0.43224  -0.42870
 Alpha  occ. eigenvalues --   -0.42172  -0.42121  -0.41791  -0.41557  -0.41282
 Alpha  occ. eigenvalues --   -0.41063  -0.40585  -0.40369  -0.40037  -0.38660
 Alpha  occ. eigenvalues --   -0.36118  -0.34770  -0.29620
 Alpha virt. eigenvalues --   -0.13465  -0.11907  -0.10915  -0.09554  -0.08295
 Alpha virt. eigenvalues --   -0.06554  -0.04472  -0.04100  -0.03614  -0.02305
 Alpha virt. eigenvalues --   -0.01516  -0.00429   0.00528   0.00765   0.01375

 Mulliken charges:
               1
     1  N   -0.760339
     2  H    0.458995
     3  H    0.406557
     4  C   -0.280972
     5  H    0.224224
     6  H    0.239154
     7  C    0.659714
     8  O   -0.511884
     9  N   -0.633225
    10  H    0.348623
    11  C   -0.037121
    12  H    0.211545
    13  C    0.609941
    14  C   -0.308021
    15  H    0.144023
    16  H    0.188169
    17  O   -0.484784
    18  C   -0.080118
    19  H    0.106027
    20  C   -0.444439
    21  H    0.160382
    22  H    0.162090
    23  H    0.146928
    24  C   -0.452811
    25  H    0.162845
    26  H    0.143758
    27  H    0.164464
    28  N   -0.589385
    29  H    0.325799
    30  C   -0.090275
    31  H    0.196131
    32  C    0.688500
    33  C   -0.074190
    34  H    0.167594
    35  O   -0.627401
    36  C   -0.468907
    37  H    0.166131
    38  H    0.171666
    39  H    0.136936
    40  C   -0.489771
    41  H    0.175334
    42  H    0.176568
    43  H    0.142653
    44  N   -0.581992
    45  H    0.366636
    46  C   -0.014051
    47  H    0.159197
    48  C    0.609046
    49  C   -0.322511
    50  H    0.176628
    51  H    0.174058
    52  O   -0.440821
    53  C   -0.281454
    54  H    0.169856
    55  H    0.130748
    56  C   -0.250872
    57  H    0.135121
    58  H    0.156932
    59  C   -0.135530
    60  H    0.140785
    61  H    0.119448
    62  N   -0.714530
    63  H    0.307523
    64  H    0.298577
    65  O   -0.596542
    66  H    0.415904
    67  H    0.426735
 Sum of Mulliken charges =   1.00000

 Dipole moment (field-independent basis, Debye):
    X=             -0.7527    Y=             -8.7189    Z=            -11.5039  Tot=             14.4543
 Quadrupole moment (field-independent basis, Debye-Ang):
   XX=           -126.9433   YY=           -151.6656   ZZ=           -108.6236
   XY=             31.5915   XZ=            -20.9013   YZ=             19.7519

 Normal termination of Gaussian 16 at Sun Jul 10 16:56:02 2022.
