 Gaussian 16, Revision C.01,
 Gaussian 16:  ES64L-G16RevC.01  3-Jul-2019

 ----------------------------------------------------------------------
 # B3LYP/6-31G* empiricaldispersion=gd3bj guess=read geom=check nosymm
 integral(ultrafinegrid)
 ----------------------------------------------------------------------

 ------------------------------------------------------
 Candidate Structure: Conf:684 Charge calc in gas phase
 ------------------------------------------------------
 Structure from the checkpoint file:  "conf-684.chk"
 Charge =  1 Multiplicity = 1

                          Input orientation:
 ---------------------------------------------------------------------
 Center     Atomic      Atomic             Coordinates (Angstroms)
 Number     Number       Type             X           Y           Z
 ---------------------------------------------------------------------
      1          7           0       -2.944603    4.461616    0.216545
      2          1           0       -3.360730    5.301354   -0.176833
      3          1           0       -2.368761    4.764464    0.999365
      4          6           0       -3.985528    3.532213    0.674638
      5          1           0       -4.837589    3.586810   -0.012015
      6          1           0       -4.378742    3.736242    1.678796
      7          6           0       -3.515156    2.074931    0.669426
      8          8           0       -4.141314    1.187763    1.236267
      9          7           0       -2.378009    1.871631   -0.050836
     10          1           0       -1.890254    2.709044   -0.353854
     11          6           0       -1.722676    0.593138   -0.116343
     12          1           0       -2.176974   -0.043597    0.650398
     13          6           0       -0.236916    0.790239    0.172487
     14          6           0       -1.874684   -0.072986   -1.509752
     15          1           0       -1.359571    0.563039   -2.243288
     16          1           0       -1.352085   -1.040240   -1.511404
     17          8           0        0.282048    1.918713    0.162948
     18          6           0       -3.327268   -0.292370   -1.958969
     19          1           0       -3.842552    0.674377   -1.892512
     20          6           0       -3.344631   -0.742043   -3.425517
     21          1           0       -2.829113   -1.703104   -3.549872
     22          1           0       -4.372156   -0.871176   -3.780677
     23          1           0       -2.853523   -0.008739   -4.077640
     24          6           0       -4.062567   -1.293435   -1.059965
     25          1           0       -3.539259   -2.259090   -1.040654
     26          1           0       -4.161367   -0.918829   -0.037588
     27          1           0       -5.073101   -1.476164   -1.440389
     28          7           0        0.504362   -0.330680    0.342619
     29          1           0        0.046691   -1.232274    0.312554
     30          6           0        1.956862   -0.308209    0.552198
     31          1           0        2.173650    0.569245    1.173189
     32          6           0        2.600332   -0.079683   -0.826265
     33          6           0        2.463396   -1.576011    1.255592
     34          1           0        2.308011   -2.421289    0.571604
     35          8           0        3.228457   -0.898889   -1.487327
     36          6           0        3.967696   -1.456228    1.538763
     37          1           0        4.172056   -0.606131    2.201423
     38          1           0        4.324369   -2.359305    2.042477
     39          1           0        4.548058   -1.335413    0.621132
     40          6           0        1.692010   -1.824966    2.559102
     41          1           0        1.809135   -0.980957    3.249038
     42          1           0        2.081993   -2.718490    3.055150
     43          1           0        0.619913   -1.978421    2.401197
     44          7           0        2.376980    1.173283   -1.348546
     45          1           0        1.755183    1.814922   -0.835209
     46          6           0        2.568554    1.324036   -2.762632
     47          1           0        2.125241    0.504163   -3.339631
     48          6           0        4.038924    1.144832   -2.957932
     49          6           0        2.080820    2.694099   -3.288237
     50          1           0        2.556128    3.493101   -2.708930
     51          1           0        2.395489    2.808427   -4.330047
     52          8           0        5.142310    1.139364   -2.789346
     53          6           0        0.549781    2.776506   -3.177831
     54          1           0        0.246386    2.620736   -2.137925
     55          1           0        0.105505    1.959950   -3.763776
     56          6           0       -0.004013    4.122675   -3.650458
     57          1           0        0.452092    4.943717   -3.085071
     58          1           0        0.252690    4.284179   -4.707352
     59          6           0       -1.524069    4.202270   -3.471666
     60          1           0       -1.994268    3.354313   -4.006122
     61          1           0       -1.768805    4.079464   -2.409263
     62          7           0       -2.004647    5.519892   -3.883354
     63          1           0       -1.935643    5.618286   -4.895356
     64          1           0       -2.992750    5.615786   -3.658494
     65          8           0        3.816245    0.519476   -5.113880
     66          1           0        3.496876    1.042639   -5.867032
     67          1           0        4.629172    0.085035   -5.422008
 ---------------------------------------------------------------------

 SCF Done:  E(RB3LYP) =  -1396.68901390     A.U. after    1 cycles

 Alpha  occ. eigenvalues --  -19.44403 -19.33352 -19.27218 -19.24800 -19.18479
 Alpha  occ. eigenvalues --  -14.50801 -14.49216 -14.43194 -14.41327 -14.39323
 Alpha  occ. eigenvalues --  -10.54449 -10.44024 -10.43182 -10.41236 -10.35979
 Alpha  occ. eigenvalues --  -10.35808 -10.35313 -10.33013 -10.31128 -10.30337
 Alpha  occ. eigenvalues --  -10.29748 -10.29528 -10.28459 -10.28405 -10.27193
 Alpha  occ. eigenvalues --  -10.26941 -10.26757 -10.25005 -10.23674  -1.36123
 Alpha  occ. eigenvalues --   -1.19354  -1.18642  -1.16462  -1.10549  -1.08983
 Alpha  occ. eigenvalues --   -1.05495  -1.00867  -0.97107  -0.96652  -0.95966
 Alpha  occ. eigenvalues --   -0.91972  -0.90086  -0.89282  -0.84928  -0.82809
 Alpha  occ. eigenvalues --   -0.82095  -0.78216  -0.77563  -0.75716  -0.75364
 Alpha  occ. eigenvalues --   -0.74385  -0.73786  -0.72960  -0.71120  -0.70854
 Alpha  occ. eigenvalues --   -0.70026  -0.68900  -0.68271  -0.67972  -0.66382
 Alpha  occ. eigenvalues --   -0.66025  -0.65191  -0.64203  -0.63354  -0.62443
 Alpha  occ. eigenvalues --   -0.60207  -0.59494  -0.58712  -0.57653  -0.57029
 Alpha  occ. eigenvalues --   -0.56780  -0.56625  -0.56152  -0.55506  -0.54690
 Alpha  occ. eigenvalues --   -0.54572  -0.54237  -0.53533  -0.53260  -0.52560
 Alpha  occ. eigenvalues --   -0.52450  -0.51366  -0.50971  -0.50219  -0.50080
 Alpha  occ. eigenvalues --   -0.49500  -0.48904  -0.48396  -0.48234  -0.47597
 Alpha  occ. eigenvalues --   -0.47527  -0.47310  -0.46347  -0.45914  -0.45512
 Alpha  occ. eigenvalues --   -0.44982  -0.44483  -0.44305  -0.44004  -0.43588
 Alpha  occ. eigenvalues --   -0.43287  -0.42958  -0.41759  -0.41421  -0.41171
 Alpha  occ. eigenvalues --   -0.40244  -0.40094  -0.38170  -0.37786  -0.34750
 Alpha  occ. eigenvalues --   -0.33154  -0.31727  -0.31568
 Alpha virt. eigenvalues --   -0.21052  -0.20673  -0.13043  -0.10323  -0.09914
 Alpha virt. eigenvalues --   -0.05455  -0.05056  -0.03770  -0.03081  -0.02142
 Alpha virt. eigenvalues --   -0.01775  -0.00994  -0.00664   0.00219   0.00877

 Mulliken charges:
               1
     1  N   -0.753483
     2  H    0.326624
     3  H    0.323864
     4  C   -0.239995
     5  H    0.187542
     6  H    0.181258
     7  C    0.585233
     8  O   -0.510593
     9  N   -0.600966
    10  H    0.382934
    11  C   -0.071144
    12  H    0.201210
    13  C    0.641489
    14  C   -0.263794
    15  H    0.123858
    16  H    0.122735
    17  O   -0.561954
    18  C   -0.065705
    19  H    0.143968
    20  C   -0.445960
    21  H    0.141556
    22  H    0.162580
    23  H    0.128087
    24  C   -0.472962
    25  H    0.127490
    26  H    0.193673
    27  H    0.158143
    28  N   -0.610341
    29  H    0.358046
    30  C   -0.042545
    31  H    0.196210
    32  C    0.639122
    33  C   -0.112875
    34  H    0.156624
    35  O   -0.507642
    36  C   -0.467026
    37  H    0.152511
    38  H    0.174712
    39  H    0.167843
    40  C   -0.452941
    41  H    0.161165
    42  H    0.176349
    43  H    0.145887
    44  N   -0.641114
    45  H    0.416041
    46  C   -0.025170
    47  H    0.256382
    48  C    0.631629
    49  C   -0.305619
    50  H    0.192601
    51  H    0.168476
    52  O   -0.180125
    53  C   -0.304686
    54  H    0.179163
    55  H    0.153938
    56  C   -0.252223
    57  H    0.165921
    58  H    0.135172
    59  C   -0.155667
    60  H    0.116236
    61  H    0.165900
    62  N   -0.715015
    63  H    0.301095
    64  H    0.306959
    65  O   -0.775328
    66  H    0.439815
    67  H    0.444831
 Sum of Mulliken charges =   1.00000

 Dipole moment (field-independent basis, Debye):
    X=             10.0353    Y=              6.9719    Z=            -14.0806  Tot=             18.6434
 Quadrupole moment (field-independent basis, Debye-Ang):
   XX=           -122.0968   YY=           -144.9072   ZZ=            -95.5967
   XY=             -4.9159   XZ=            -33.4232   YZ=            -24.9234

 Normal termination of Gaussian 16 at Sun Jul 10 16:54:50 2022.
