 Gaussian 16, Revision C.01,
 Gaussian 16:  ES64L-G16RevC.01  3-Jul-2019

 ----------------------------------------------------------------------
 # B3LYP/6-31G* empiricaldispersion=gd3bj guess=read geom=check nosymm
 integral(ultrafinegrid)
 ----------------------------------------------------------------------

 ------------------------------------------------------
 Candidate Structure: Conf:796 Charge calc in gas phase
 ------------------------------------------------------
 Structure from the checkpoint file:  "conf-796.chk"
 Charge =  1 Multiplicity = 1

                          Input orientation:
 ---------------------------------------------------------------------
 Center     Atomic      Atomic             Coordinates (Angstroms)
 Number     Number       Type             X           Y           Z
 ---------------------------------------------------------------------
      1          7           0       -4.123358    1.461515    2.823928
      2          1           0       -4.976627    1.252274    3.332705
      3          1           0       -3.905581    2.439142    2.995892
      4          6           0       -3.023825    0.590362    3.243239
      5          1           0       -3.414786   -0.310457    3.729083
      6          1           0       -2.330470    1.047703    3.960133
      7          6           0       -2.194413    0.103171    2.057333
      8          8           0       -1.142554   -0.537863    2.223792
      9          7           0       -2.697164    0.411395    0.847743
     10          1           0       -3.575368    0.930099    0.870642
     11          6           0       -2.178824   -0.148804   -0.397214
     12          1           0       -1.887098   -1.183486   -0.181774
     13          6           0       -0.897490    0.599453   -0.803854
     14          6           0       -3.254599   -0.125515   -1.481664
     15          1           0       -4.124730   -0.655655   -1.072538
     16          1           0       -3.559054    0.912885   -1.657999
     17          8           0       -0.836473    1.373228   -1.765424
     18          6           0       -2.863108   -0.769799   -2.826372
     19          1           0       -2.128561   -0.113612   -3.307319
     20          6           0       -2.231012   -2.159348   -2.661405
     21          1           0       -2.861925   -2.815119   -2.047931
     22          1           0       -2.110598   -2.640806   -3.637630
     23          1           0       -1.233836   -2.115116   -2.206564
     24          6           0       -4.101273   -0.836713   -3.729087
     25          1           0       -4.856853   -1.512091   -3.309114
     26          1           0       -4.562147    0.150166   -3.848703
     27          1           0       -3.839160   -1.208317   -4.725154
     28          7           0        0.180711    0.301954   -0.023082
     29          1           0       -0.055422   -0.162745    0.870417
     30          6           0        1.407673    1.104224   -0.061595
     31          1           0        1.134956    2.163743   -0.173147
     32          6           0        2.166473    0.752268   -1.324741
     33          6           0        2.249351    0.919509    1.220495
     34          1           0        3.218828    1.386433    1.008705
     35          8           0        3.395738    0.277626   -1.300941
     36          6           0        1.599774    1.669649    2.391452
     37          1           0        0.637775    1.223279    2.662374
     38          1           0        2.248081    1.611537    3.270563
     39          1           0        1.445341    2.728983    2.157441
     40          6           0        2.487325   -0.558780    1.572942
     41          1           0        1.579152   -1.024682    1.970521
     42          1           0        3.248786   -0.626880    2.354875
     43          1           0        2.835640   -1.141669    0.715728
     44          7           0        1.673830    0.868108   -2.521598
     45          1           0        0.687751    1.166535   -2.625054
     46          6           0        2.568788    0.311515   -3.534404
     47          1           0        2.102351   -0.586605   -3.954490
     48          6           0        3.740088   -0.120469   -2.665868
     49          6           0        2.954952    1.309720   -4.639964
     50          1           0        2.021705    1.707170   -5.057621
     51          1           0        3.486736    2.153363   -4.187449
     52          8           0        4.773860   -0.639647   -2.896588
     53          6           0        3.784533    0.655432   -5.752935
     54          1           0        3.237642   -0.218611   -6.130173
     55          1           0        4.727440    0.278364   -5.340155
     56          6           0        4.068451    1.613810   -6.916656
     57          1           0        4.528643    1.037162   -7.729584
     58          1           0        3.131208    2.018528   -7.317917
     59          6           0        4.993395    2.780962   -6.560069
     60          1           0        4.532005    3.401290   -5.780725
     61          1           0        5.927979    2.376386   -6.126191
     62          7           0        5.183734    3.633243   -7.731989
     63          1           0        5.739875    4.450137   -7.487833
     64          1           0        5.713507    3.131162   -8.443202
     65          8           0        1.448328   -1.926403   -1.727254
     66          1           0        0.868827   -1.736847   -0.971626
     67          1           0        1.656008   -2.870882   -1.655322
 ---------------------------------------------------------------------

 SCF Done:  E(RB3LYP) =  -1396.74408394     A.U. after    1 cycles

 Alpha  occ. eigenvalues --  -19.37592 -19.31127 -19.27578 -19.26295 -19.23334
 Alpha  occ. eigenvalues --  -14.54668 -14.49174 -14.47228 -14.43350 -14.37995
 Alpha  occ. eigenvalues --  -10.48327 -10.48029 -10.42387 -10.39840 -10.39695
 Alpha  occ. eigenvalues --  -10.38865 -10.35071 -10.32735 -10.32117 -10.32114
 Alpha  occ. eigenvalues --  -10.28785 -10.28760 -10.28411 -10.28229 -10.28139
 Alpha  occ. eigenvalues --  -10.28118 -10.26522 -10.26489 -10.25443  -1.29827
 Alpha  occ. eigenvalues --   -1.21563  -1.17902  -1.14816  -1.13220  -1.11890
 Alpha  occ. eigenvalues --   -1.06496  -1.04232  -0.99431  -0.95993  -0.95062
 Alpha  occ. eigenvalues --   -0.92869  -0.91015  -0.88487  -0.86117  -0.84242
 Alpha  occ. eigenvalues --   -0.80797  -0.80174  -0.79423  -0.79247  -0.77293
 Alpha  occ. eigenvalues --   -0.76767  -0.75476  -0.72787  -0.71613  -0.70696
 Alpha  occ. eigenvalues --   -0.69062  -0.68013  -0.66658  -0.66226  -0.65639
 Alpha  occ. eigenvalues --   -0.65017  -0.64319  -0.63055  -0.61773  -0.61330
 Alpha  occ. eigenvalues --   -0.61138  -0.60828  -0.59668  -0.58395  -0.57718
 Alpha  occ. eigenvalues --   -0.56848  -0.56609  -0.55465  -0.55380  -0.55113
 Alpha  occ. eigenvalues --   -0.54799  -0.54568  -0.53849  -0.53557  -0.52855
 Alpha  occ. eigenvalues --   -0.52615  -0.52022  -0.51879  -0.51293  -0.50978
 Alpha  occ. eigenvalues --   -0.50180  -0.50008  -0.49381  -0.48715  -0.48186
 Alpha  occ. eigenvalues --   -0.47919  -0.47279  -0.46855  -0.46474  -0.46007
 Alpha  occ. eigenvalues --   -0.45672  -0.45280  -0.45121  -0.44736  -0.44166
 Alpha  occ. eigenvalues --   -0.43134  -0.42921  -0.42226  -0.42164  -0.42056
 Alpha  occ. eigenvalues --   -0.41643  -0.41254  -0.40427  -0.39774  -0.38495
 Alpha  occ. eigenvalues --   -0.36668  -0.35108  -0.30282
 Alpha virt. eigenvalues --   -0.19216  -0.14170  -0.12557  -0.09036  -0.07142
 Alpha virt. eigenvalues --   -0.03496  -0.02772  -0.02584  -0.01239  -0.01032
 Alpha virt. eigenvalues --   -0.00051   0.00425   0.01130   0.01335   0.01767

 Mulliken charges:
               1
     1  N   -0.749815
     2  H    0.337834
     3  H    0.330444
     4  C   -0.239320
     5  H    0.203508
     6  H    0.186640
     7  C    0.609975
     8  O   -0.562696
     9  N   -0.594809
    10  H    0.379037
    11  C   -0.055335
    12  H    0.182136
    13  C    0.649950
    14  C   -0.286654
    15  H    0.156198
    16  H    0.163353
    17  O   -0.550363
    18  C   -0.080923
    19  H    0.139861
    20  C   -0.464392
    21  H    0.153095
    22  H    0.161645
    23  H    0.118689
    24  C   -0.449097
    25  H    0.151718
    26  H    0.153867
    27  H    0.155692
    28  N   -0.671425
    29  H    0.422112
    30  C   -0.052053
    31  H    0.212419
    32  C    0.697145
    33  C   -0.122284
    34  H    0.169217
    35  O   -0.448177
    36  C   -0.473166
    37  H    0.173305
    38  H    0.179256
    39  H    0.153562
    40  C   -0.488578
    41  H    0.179897
    42  H    0.182977
    43  H    0.159421
    44  N   -0.587907
    45  H    0.427496
    46  C   -0.048212
    47  H    0.250975
    48  C    0.626228
    49  C   -0.274138
    50  H    0.179549
    51  H    0.170676
    52  O   -0.355042
    53  C   -0.287364
    54  H    0.149989
    55  H    0.173924
    56  C   -0.257614
    57  H    0.150998
    58  H    0.157790
    59  C   -0.135624
    60  H    0.132751
    61  H    0.121064
    62  N   -0.714494
    63  H    0.307365
    64  H    0.302969
    65  O   -0.805059
    66  H    0.418573
    67  H    0.421241
 Sum of Mulliken charges =   1.00000

 Dipole moment (field-independent basis, Debye):
    X=              1.5156    Y=              2.8065    Z=             -3.9867  Tot=              5.1056
 Quadrupole moment (field-independent basis, Debye-Ang):
   XX=           -118.8686   YY=           -158.3496   ZZ=           -121.3700
   XY=              9.0734   XZ=            -43.5273   YZ=              6.7013

 Normal termination of Gaussian 16 at Sun Jul 10 16:56:00 2022.
