 Gaussian 16, Revision C.01,
 Gaussian 16:  ES64L-G16RevC.01  3-Jul-2019

 ----------------------------------------------------------------------
 # B3LYP/6-31G* empiricaldispersion=gd3bj guess=read geom=check nosymm
 integral(ultrafinegrid)
 ----------------------------------------------------------------------

 ------------------------------------------------------
 Candidate Structure: Conf:123 Charge calc in gas phase
 ------------------------------------------------------
 Structure from the checkpoint file:  "conf-123.chk"
 Charge =  1 Multiplicity = 1

                          Input orientation:
 ---------------------------------------------------------------------
 Center     Atomic      Atomic             Coordinates (Angstroms)
 Number     Number       Type             X           Y           Z
 ---------------------------------------------------------------------
      1          7           0       -2.712419    2.034531    4.244472
      2          1           0       -2.845425    1.083918    4.584123
      3          1           0       -1.721128    2.233321    4.363513
      4          6           0       -3.064385    2.096502    2.843557
      5          1           0       -2.894335    3.113487    2.466330
      6          1           0       -4.141900    1.910191    2.736328
      7          6           0       -2.336322    1.095996    1.937549
      8          8           0       -1.682753    0.153654    2.400674
      9          7           0       -2.465214    1.295250    0.598764
     10          1           0       -3.017344    2.081067    0.279819
     11          6           0       -2.116878    0.280976   -0.400612
     12          1           0       -2.336770   -0.695634    0.046631
     13          6           0       -0.605821    0.293779   -0.679953
     14          6           0       -2.926103    0.473303   -1.682563
     15          1           0       -2.645182    1.431071   -2.138743
     16          1           0       -2.607035   -0.298699   -2.392011
     17          8           0       -0.106202    0.522358   -1.787821
     18          6           0       -4.453346    0.399477   -1.502469
     19          1           0       -4.770815    1.220937   -0.842498
     20          6           0       -5.136575    0.609212   -2.859525
     21          1           0       -4.877166   -0.199043   -3.554317
     22          1           0       -6.225833    0.618977   -2.751386
     23          1           0       -4.834265    1.557022   -3.319243
     24          6           0       -4.901453   -0.918300   -0.858717
     25          1           0       -4.559339   -1.777496   -1.449464
     26          1           0       -4.519245   -1.035122    0.161678
     27          1           0       -5.993604   -0.968195   -0.804351
     28          7           0        0.178451   -0.013049    0.379409
     29          1           0       -0.265522   -0.137050    1.297963
     30          6           0        1.611200    0.109585    0.237920
     31          1           0        1.894009    1.172877    0.202072
     32          6           0        2.004534   -0.468405   -1.105719
     33          6           0        2.365630   -0.538245    1.431904
     34          1           0        2.031719    0.048000    2.298651
     35          8           0        1.633393   -1.688357   -1.358664
     36          6           0        2.001233   -2.006072    1.680465
     37          1           0        2.375693   -2.656309    0.884548
     38          1           0        2.453884   -2.334679    2.620721
     39          1           0        0.920891   -2.155669    1.758136
     40          6           0        3.879052   -0.344869    1.282274
     41          1           0        4.279561   -0.932909    0.447298
     42          1           0        4.391293   -0.679112    2.188426
     43          1           0        4.145930    0.706541    1.121508
     44          7           0        2.814552    0.196242   -1.907625
     45          1           0        3.046918    1.135822   -1.606021
     46          6           0        2.939004   -0.032015   -3.365719
     47          1           0        1.969734   -0.421955   -3.703358
     48          6           0        4.002737   -1.096138   -3.644251
     49          6           0        3.233405    1.289747   -4.072451
     50          1           0        4.187011    1.689988   -3.704404
     51          1           0        3.397255    1.058562   -5.129819
     52          8           0        5.019212   -0.956324   -4.260605
     53          6           0        2.101833    2.314225   -3.925987
     54          1           0        1.944840    2.572628   -2.868511
     55          1           0        1.156983    1.861710   -4.254454
     56          6           0        2.366679    3.599399   -4.716312
     57          1           0        3.319539    4.044457   -4.395050
     58          1           0        2.480746    3.358050   -5.782442
     59          6           0        1.240055    4.633269   -4.545652
     60          1           0        0.288585    4.182892   -4.857673
     61          1           0        1.130014    4.871252   -3.478757
     62          7           0        1.397672    5.889188   -5.268818
     63          1           0        2.265253    6.349788   -4.999153
     64          1           0        1.460692    5.717287   -6.270737
     65          8           0        3.612041   -2.287762   -3.087461
     66          1           0        2.150025   -2.095549   -2.097700
     67          1           0        4.290914   -2.968002   -3.267679
 ---------------------------------------------------------------------

 SCF Done:  E(RB3LYP) =  -1396.74219012     A.U. after    1 cycles

 Alpha  occ. eigenvalues --  -19.36606 -19.35723 -19.29327 -19.25212 -19.23280
 Alpha  occ. eigenvalues --  -14.55278 -14.48104 -14.47593 -14.39916 -14.38496
 Alpha  occ. eigenvalues --  -10.49258 -10.47218 -10.41149 -10.39885 -10.39522
 Alpha  occ. eigenvalues --  -10.38597 -10.34710 -10.32913 -10.32051 -10.31379
 Alpha  occ. eigenvalues --  -10.29835 -10.29810 -10.28832 -10.28575 -10.28568
 Alpha  occ. eigenvalues --  -10.28229 -10.27511 -10.25793 -10.25387  -1.27584
 Alpha  occ. eigenvalues --   -1.25532  -1.17275  -1.16902  -1.14752  -1.12591
 Alpha  occ. eigenvalues --   -1.05719  -1.03868  -0.97150  -0.96042  -0.95476
 Alpha  occ. eigenvalues --   -0.93183  -0.90827  -0.88735  -0.86790  -0.84721
 Alpha  occ. eigenvalues --   -0.81809  -0.80407  -0.80144  -0.78648  -0.76758
 Alpha  occ. eigenvalues --   -0.76633  -0.75404  -0.74648  -0.73082  -0.71370
 Alpha  occ. eigenvalues --   -0.69895  -0.68822  -0.68662  -0.66892  -0.65922
 Alpha  occ. eigenvalues --   -0.65530  -0.64109  -0.63593  -0.62105  -0.61599
 Alpha  occ. eigenvalues --   -0.60647  -0.59540  -0.59010  -0.58782  -0.58505
 Alpha  occ. eigenvalues --   -0.57619  -0.57455  -0.56268  -0.55644  -0.55537
 Alpha  occ. eigenvalues --   -0.55080  -0.54482  -0.54029  -0.53459  -0.53140
 Alpha  occ. eigenvalues --   -0.52124  -0.51862  -0.51732  -0.51165  -0.50612
 Alpha  occ. eigenvalues --   -0.50119  -0.49814  -0.49767  -0.48693  -0.48239
 Alpha  occ. eigenvalues --   -0.47842  -0.47666  -0.47280  -0.46619  -0.46413
 Alpha  occ. eigenvalues --   -0.46230  -0.46018  -0.45713  -0.45411  -0.45163
 Alpha  occ. eigenvalues --   -0.45081  -0.43991  -0.42245  -0.41983  -0.41766
 Alpha  occ. eigenvalues --   -0.41611  -0.41454  -0.39983  -0.38675  -0.37309
 Alpha  occ. eigenvalues --   -0.36311  -0.32510  -0.30576
 Alpha virt. eigenvalues --   -0.17806  -0.14679  -0.11187  -0.08798  -0.08173
 Alpha virt. eigenvalues --   -0.06754  -0.02949  -0.02690  -0.02293  -0.00690
 Alpha virt. eigenvalues --   -0.00238   0.00158   0.00392   0.00583   0.00847

 Mulliken charges:
               1
     1  N   -0.671067
     2  H    0.319638
     3  H    0.305287
     4  C   -0.250930
     5  H    0.172862
     6  H    0.193650
     7  C    0.586234
     8  O   -0.543713
     9  N   -0.595295
    10  H    0.349275
    11  C   -0.075708
    12  H    0.197727
    13  C    0.662373
    14  C   -0.288168
    15  H    0.154950
    16  H    0.161334
    17  O   -0.551010
    18  C   -0.080980
    19  H    0.118370
    20  C   -0.444670
    21  H    0.150016
    22  H    0.162384
    23  H    0.148453
    24  C   -0.455906
    25  H    0.149334
    26  H    0.146546
    27  H    0.166742
    28  N   -0.647146
    29  H    0.405270
    30  C    0.014847
    31  H    0.166793
    32  C    0.658932
    33  C   -0.127828
    34  H    0.176031
    35  O   -0.551598
    36  C   -0.451787
    37  H    0.153624
    38  H    0.178139
    39  H    0.175308
    40  C   -0.467443
    41  H    0.146965
    42  H    0.191827
    43  H    0.151154
    44  N   -0.561370
    45  H    0.379600
    46  C   -0.101507
    47  H    0.224322
    48  C    0.644080
    49  C   -0.312791
    50  H    0.174474
    51  H    0.196575
    52  O   -0.390005
    53  C   -0.273980
    54  H    0.126121
    55  H    0.165545
    56  C   -0.269519
    57  H    0.135245
    58  H    0.143122
    59  C   -0.138981
    60  H    0.147511
    61  H    0.138617
    62  N   -0.697722
    63  H    0.299974
    64  H    0.302200
    65  O   -0.623182
    66  H    0.477641
    67  H    0.453214
 Sum of Mulliken charges =   1.00000

 Dipole moment (field-independent basis, Debye):
    X=              7.0726    Y=             -0.2242    Z=             -6.8072  Tot=              9.8188
 Quadrupole moment (field-independent basis, Debye-Ang):
   XX=           -123.4422   YY=           -158.8026   ZZ=           -143.4264
   XY=             -4.0020   XZ=            -14.7814   YZ=              1.1779

 Normal termination of Gaussian 16 at Sun Jul 10 16:54:56 2022.
