 Gaussian 16, Revision C.01,
 Gaussian 16:  ES64L-G16RevC.01  3-Jul-2019

 ----------------------------------------------------------------------
 # B3LYP/6-31G* empiricaldispersion=gd3bj guess=read geom=check nosymm
 integral(ultrafinegrid)
 ----------------------------------------------------------------------

 ------------------------------------------------------
 Candidate Structure: Conf:879 Charge calc in gas phase
 ------------------------------------------------------
 Structure from the checkpoint file:  "conf-879.chk"
 Charge =  1 Multiplicity = 1

                          Input orientation:
 ---------------------------------------------------------------------
 Center     Atomic      Atomic             Coordinates (Angstroms)
 Number     Number       Type             X           Y           Z
 ---------------------------------------------------------------------
      1          7           0       -3.753566    0.483719    3.170148
      2          1           0       -4.736827    0.388761    3.404809
      3          1           0       -3.264185    0.715656    4.030242
      4          6           0       -3.226672   -0.747745    2.576256
      5          1           0       -4.045033   -1.351993    2.169561
      6          1           0       -2.687091   -1.395960    3.277830
      7          6           0       -2.291002   -0.466940    1.401490
      8          8           0       -1.655171   -1.377883    0.850353
      9          7           0       -2.235478    0.824614    1.020784
     10          1           0       -2.839858    1.443274    1.560435
     11          6           0       -1.646631    1.271172   -0.237723
     12          1           0       -1.855613    0.495251   -0.985929
     13          6           0       -0.113942    1.350912   -0.130617
     14          6           0       -2.250338    2.604265   -0.678833
     15          1           0       -1.972429    3.376421    0.049130
     16          1           0       -1.769562    2.892243   -1.621114
     17          8           0        0.524117    2.396938   -0.330785
     18          6           0       -3.777470    2.589137   -0.872759
     19          1           0       -4.251598    2.369681    0.094823
     20          6           0       -4.246565    3.980953   -1.314466
     21          1           0       -3.821200    4.243932   -2.290960
     22          1           0       -5.336917    4.015671   -1.406025
     23          1           0       -3.943537    4.752581   -0.597600
     24          6           0       -4.226610    1.515313   -1.871287
     25          1           0       -3.734379    1.653702   -2.842521
     26          1           0       -4.004773    0.501298   -1.519871
     27          1           0       -5.307042    1.572463   -2.038143
     28          7           0        0.493520    0.178475    0.160844
     29          1           0       -0.122467   -0.630641    0.332775
     30          6           0        1.897274    0.119449    0.554358
     31          1           0        2.133513    1.067716    1.056424
     32          6           0        2.757018    0.139784   -0.709720
     33          6           0        2.156940   -1.025051    1.557085
     34          1           0        1.488234   -0.777404    2.392392
     35          8           0        3.488151   -0.897774   -1.006341
     36          6           0        1.765372   -2.422371    1.053465
     37          1           0        2.359379   -2.726556    0.187982
     38          1           0        1.945083   -3.150373    1.850662
     39          1           0        0.703950   -2.490458    0.796303
     40          6           0        3.595515   -0.981353    2.091914
     41          1           0        4.320554   -1.293628    1.335053
     42          1           0        3.692776   -1.664290    2.940661
     43          1           0        3.867714    0.021603    2.441527
     44          7           0        2.699515    1.212709   -1.454995
     45          1           0        2.055591    1.941593   -1.080974
     46          6           0        3.149858    1.382037   -2.855556
     47          1           0        2.919903    0.446603   -3.385030
     48          6           0        4.666984    1.565750   -2.954576
     49          6           0        2.373525    2.546815   -3.476367
     50          1           0        2.653740    2.607212   -4.531968
     51          1           0        1.313752    2.266080   -3.447458
     52          8           0        5.250196    2.445823   -3.517257
     53          6           0        2.593597    3.892300   -2.758738
     54          1           0        3.416208    4.431431   -3.237402
     55          1           0        2.905389    3.741167   -1.718559
     56          6           0        1.333797    4.764021   -2.713848
     57          1           0        1.110793    5.182245   -3.703045
     58          1           0        0.474517    4.138959   -2.432071
     59          6           0        1.457117    5.897189   -1.689876
     60          1           0        2.298980    6.547624   -1.958200
     61          1           0        0.547254    6.518808   -1.741115
     62          7           0        1.726798    5.339966   -0.358363
     63          1           0        1.837556    6.092194    0.318293
     64          1           0        0.931381    4.779306   -0.055941
     65          8           0        5.304828    0.509910   -2.350122
     66          1           0        4.193939   -0.670275   -1.663751
     67          1           0        6.271312    0.621147   -2.448348
 ---------------------------------------------------------------------

 SCF Done:  E(RB3LYP) =  -1396.76045224     A.U. after    1 cycles

 Alpha  occ. eigenvalues --  -19.36515 -19.35240 -19.28774 -19.25457 -19.22499
 Alpha  occ. eigenvalues --  -14.54063 -14.48122 -14.46429 -14.43071 -14.38432
 Alpha  occ. eigenvalues --  -10.48169 -10.46732 -10.41486 -10.39377 -10.39137
 Alpha  occ. eigenvalues --  -10.37812 -10.34504 -10.32264 -10.31512 -10.30845
 Alpha  occ. eigenvalues --  -10.28413 -10.28116 -10.28099 -10.27952 -10.27358
 Alpha  occ. eigenvalues --  -10.27252 -10.26366 -10.25716 -10.25274  -1.27114
 Alpha  occ. eigenvalues --   -1.25024  -1.17048  -1.16715  -1.14093  -1.11581
 Alpha  occ. eigenvalues --   -1.05490  -1.03568  -0.99046  -0.95465  -0.94841
 Alpha  occ. eigenvalues --   -0.92281  -0.90519  -0.87140  -0.85869  -0.84167
 Alpha  occ. eigenvalues --   -0.80951  -0.79915  -0.79406  -0.79093  -0.76625
 Alpha  occ. eigenvalues --   -0.76203  -0.74667  -0.73825  -0.72285  -0.70266
 Alpha  occ. eigenvalues --   -0.69540  -0.68459  -0.67210  -0.66270  -0.65496
 Alpha  occ. eigenvalues --   -0.64426  -0.64089  -0.63126  -0.61984  -0.61110
 Alpha  occ. eigenvalues --   -0.60562  -0.59790  -0.58304  -0.58102  -0.57624
 Alpha  occ. eigenvalues --   -0.57058  -0.56596  -0.55551  -0.55423  -0.54873
 Alpha  occ. eigenvalues --   -0.54571  -0.54162  -0.53841  -0.53237  -0.52578
 Alpha  occ. eigenvalues --   -0.52336  -0.52001  -0.51722  -0.51243  -0.50250
 Alpha  occ. eigenvalues --   -0.49757  -0.49572  -0.48789  -0.48376  -0.47723
 Alpha  occ. eigenvalues --   -0.47552  -0.47062  -0.46669  -0.46335  -0.46039
 Alpha  occ. eigenvalues --   -0.45462  -0.45288  -0.45109  -0.44561  -0.43923
 Alpha  occ. eigenvalues --   -0.42906  -0.41961  -0.41600  -0.41572  -0.41446
 Alpha  occ. eigenvalues --   -0.41266  -0.40876  -0.39937  -0.38938  -0.37938
 Alpha  occ. eigenvalues --   -0.35995  -0.34603  -0.30800
 Alpha virt. eigenvalues --   -0.17744  -0.13994  -0.11250  -0.08376  -0.07013
 Alpha virt. eigenvalues --   -0.03805  -0.02438  -0.02172  -0.01701   0.00457
 Alpha virt. eigenvalues --    0.00785   0.01082   0.01388   0.01856   0.02286

 Mulliken charges:
               1
     1  N   -0.752379
     2  H    0.336421
     3  H    0.328884
     4  C   -0.238523
     5  H    0.202111
     6  H    0.184622
     7  C    0.602964
     8  O   -0.557111
     9  N   -0.595175
    10  H    0.382039
    11  C   -0.064540
    12  H    0.191940
    13  C    0.635224
    14  C   -0.288084
    15  H    0.154182
    16  H    0.158051
    17  O   -0.554496
    18  C   -0.084143
    19  H    0.131016
    20  C   -0.444856
    21  H    0.147966
    22  H    0.160840
    23  H    0.148002
    24  C   -0.456039
    25  H    0.145738
    26  H    0.146688
    27  H    0.165006
    28  N   -0.641575
    29  H    0.420362
    30  C   -0.069389
    31  H    0.212183
    32  C    0.647131
    33  C   -0.104414
    34  H    0.162144
    35  O   -0.556037
    36  C   -0.489469
    37  H    0.168102
    38  H    0.174028
    39  H    0.187284
    40  C   -0.469449
    41  H    0.161624
    42  H    0.179608
    43  H    0.154484
    44  N   -0.584349
    45  H    0.454651
    46  C   -0.115018
    47  H    0.212836
    48  C    0.648684
    49  C   -0.295225
    50  H    0.191441
    51  H    0.161929
    52  O   -0.386431
    53  C   -0.293846
    54  H    0.177197
    55  H    0.173249
    56  C   -0.279312
    57  H    0.149279
    58  H    0.139373
    59  C   -0.140147
    60  H    0.150350
    61  H    0.129205
    62  N   -0.739304
    63  H    0.306710
    64  H    0.310837
    65  O   -0.625396
    66  H    0.476884
    67  H    0.453439
 Sum of Mulliken charges =   1.00000

 Dipole moment (field-independent basis, Debye):
    X=              4.6959    Y=              3.7825    Z=             -0.7186  Tot=              6.0724
 Quadrupole moment (field-independent basis, Debye-Ang):
   XX=            -99.8721   YY=           -159.6697   ZZ=           -136.7092
   XY=             -9.2380   XZ=            -29.9449   YZ=             -5.3969

 Normal termination of Gaussian 16 at Sun Jul 10 16:56:02 2022.
