 Gaussian 16, Revision C.01,
 Gaussian 16:  ES64L-G16RevC.01  3-Jul-2019

 ----------------------------------------------------------------------
 # B3LYP/6-31G* empiricaldispersion=gd3 guess=read geom=check nosymm in
 tegral(ultrafinegrid)
 ----------------------------------------------------------------------

 ------------------------------------------------------
 Candidate Structure: Conf:234 Charge calc in gas phase
 ------------------------------------------------------
 Structure from the checkpoint file:  "conf-234.chk"
 Charge =  1 Multiplicity = 1

                          Input orientation:
 ---------------------------------------------------------------------
 Center     Atomic      Atomic             Coordinates (Angstroms)
 Number     Number       Type             X           Y           Z
 ---------------------------------------------------------------------
      1          7           0       -3.493135   -1.310547    2.940576
      2          1           0       -3.517083   -0.440120    2.208400
      3          1           0       -4.086562   -2.097250    2.649975
      4          1           0       -3.758407   -1.002179    3.885789
      5          6           0       -1.986677   -1.599986    2.826900
      6          1           0       -1.877214   -2.484138    2.194308
      7          6           0       -1.528206   -0.395057    1.955125
      8          6           0       -1.266818   -1.789536    4.186006
      9          1           0       -1.922413   -1.494456    5.012292
     10          1           0       -0.391829   -1.136406    4.208153
     11          8           0       -2.464982    0.317053    1.456743
     12          6           0       -0.798996   -3.248449    4.360963
     13          1           0       -1.629631   -3.958849    4.375381
     14          1           0       -0.245316   -3.360232    5.300485
     15          6           0        0.119297   -3.589984    3.193490
     16          8           0        0.173138   -4.902155    2.937955
     17          8           0        0.698243   -2.715364    2.530157
     18          7           0       -0.245350   -0.238607    1.732447
     19          1           0        0.456733   -0.926717    2.072077
     20          6           0        0.249870    0.715569    0.729190
     21          1           0       -0.249392    1.679273    0.852839
     22          6           0        1.760750    0.822944    0.981868
     23          6           0       -0.016143    0.153375   -0.719082
     24          1           0       -1.072581    0.315650   -0.952212
     25          1           0        0.598267    0.720497   -1.424579
     26          8           0        2.351416   -0.020043    1.690121
     27          6           0        0.310887   -1.324542   -0.726338
     28          6           0        1.640080   -1.762810   -0.688324
     29          1           0        2.446000   -1.060706   -0.853536
     30          6           0       -0.710830   -2.265953   -0.532175
     31          1           0       -1.745461   -1.945109   -0.603294
     32          6           0        1.946129   -3.079525   -0.351584
     33          1           0        2.981355   -3.382393   -0.244108
     34          6           0       -0.414541   -3.588227   -0.209297
     35          1           0       -1.189515   -4.322993   -0.031384
     36          8           0        1.151757   -5.235875    0.522003
     37          1           0        0.666729   -5.116486    2.054589
     38          6           0        0.917391   -3.965514   -0.061448
     39          7           0        2.369271    1.828550    0.332887
     40          1           0        1.904692    2.526914   -0.253762
     41          6           0        3.817452    2.043852    0.405643
     42          1           0        4.172367    1.930895    1.429530
     43          6           0        4.072160    3.462811   -0.092479
     44          6           0        4.573502    1.035938   -0.544706
     45          1           0        4.825455    0.152459    0.049733
     46          1           0        3.850831    0.727509   -1.309135
     47          8           0        5.219863    3.966017    0.263595
     48          6           0        5.833128    1.618199   -1.245608
     49          1           0        6.499696    0.794887   -1.522547
     50          1           0        6.355370    2.260606   -0.534251
     51          6           0        5.457281    2.425112   -2.535022
     52          1           0        5.602283    1.782086   -3.410171
     53          1           0        4.397148    2.694691   -2.504043
     54          6           0        6.272758    3.719843   -2.774556
     55          1           0        7.309018    3.600553   -2.448297
     56          1           0        6.260382    3.985057   -3.835714
     57          7           0        5.690602    4.898312   -1.993245
     58          1           0        6.179716    5.778280   -2.192566
     59          1           0        5.642336    4.622341   -0.836947
     60          1           0        4.670083    4.985246   -2.164929
     61          8           0        3.260936    3.963350   -0.934008
     62          1           0        2.074937   -5.555105    0.344786
 ---------------------------------------------------------------------

 SCF Done:  E(RB3LYP) =  -1526.28064791     A.U. after   13 cycles

 Alpha  occ. eigenvalues --  -19.30008 -19.28146 -19.26890 -19.24348 -19.20142
 Alpha  occ. eigenvalues --  -19.19058 -19.18564 -14.57584 -14.48416 -14.47898
 Alpha  occ. eigenvalues --  -14.44138 -10.42914 -10.42822 -10.40037 -10.37565
 Alpha  occ. eigenvalues --  -10.36377 -10.34823 -10.34092 -10.33647 -10.32218
 Alpha  occ. eigenvalues --  -10.31994 -10.30128 -10.29457 -10.28918 -10.28858
 Alpha  occ. eigenvalues --  -10.28654 -10.28549 -10.28389 -10.26947 -10.26489
 Alpha  occ. eigenvalues --  -10.25667  -1.18990  -1.17986  -1.15700  -1.11854
 Alpha  occ. eigenvalues --   -1.11207  -1.10660  -1.10494  -1.05192  -1.03239
 Alpha  occ. eigenvalues --   -1.01661  -1.00132  -0.95361  -0.93738  -0.89475
 Alpha  occ. eigenvalues --   -0.87481  -0.85944  -0.84594  -0.83838  -0.81898
 Alpha  occ. eigenvalues --   -0.78460  -0.77804  -0.76005  -0.72403  -0.72255
 Alpha  occ. eigenvalues --   -0.71737  -0.70876  -0.69886  -0.68500  -0.68088
 Alpha  occ. eigenvalues --   -0.67467  -0.66731  -0.65019  -0.64468  -0.63433
 Alpha  occ. eigenvalues --   -0.62872  -0.61643  -0.60546  -0.59867  -0.59730
 Alpha  occ. eigenvalues --   -0.58373  -0.57885  -0.57599  -0.56582  -0.56114
 Alpha  occ. eigenvalues --   -0.55538  -0.55053  -0.54631  -0.54105  -0.53833
 Alpha  occ. eigenvalues --   -0.53722  -0.52950  -0.52536  -0.51755  -0.51713
 Alpha  occ. eigenvalues --   -0.51458  -0.50925  -0.50186  -0.49626  -0.49002
 Alpha  occ. eigenvalues --   -0.48634  -0.48331  -0.47992  -0.47934  -0.47060
 Alpha  occ. eigenvalues --   -0.46299  -0.45927  -0.45356  -0.44987  -0.44128
 Alpha  occ. eigenvalues --   -0.43959  -0.43445  -0.42503  -0.41730  -0.41357
 Alpha  occ. eigenvalues --   -0.41181  -0.41032  -0.40073  -0.38566  -0.38057
 Alpha  occ. eigenvalues --   -0.35013  -0.34620  -0.34052  -0.33704  -0.32581
 Alpha  occ. eigenvalues --   -0.32469  -0.32047
 Alpha virt. eigenvalues --   -0.12752  -0.10259  -0.10122  -0.09643  -0.09312
 Alpha virt. eigenvalues --   -0.06782  -0.05982  -0.05075  -0.04165  -0.03323
 Alpha virt. eigenvalues --   -0.01738  -0.01314  -0.00803   0.00910   0.01522

 Mulliken charges:
               1
     1  N   -0.787908
     2  H    0.447544
     3  H    0.405132
     4  H    0.401155
     5  C   -0.085309
     6  H    0.227746
     7  C    0.640368
     8  C   -0.305302
     9  H    0.165518
    10  H    0.220229
    11  O   -0.585211
    12  C   -0.356782
    13  H    0.182242
    14  H    0.216940
    15  C    0.599703
    16  O   -0.600821
    17  O   -0.491028
    18  N   -0.611537
    19  H    0.456198
    20  C   -0.061528
    21  H    0.197423
    22  C    0.639181
    23  C   -0.382505
    24  H    0.182659
    25  H    0.177970
    26  O   -0.547846
    27  C    0.153934
    28  C   -0.167240
    29  H    0.164019
    30  C   -0.201935
    31  H    0.132524
    32  C   -0.150138
    33  H    0.147352
    34  C   -0.165622
    35  H    0.146422
    36  O   -0.693754
    37  H    0.471199
    38  C    0.350331
    39  N   -0.633481
    40  H    0.357671
    41  C    0.007114
    42  H    0.191331
    43  C    0.587658
    44  C   -0.295832
    45  H    0.169346
    46  H    0.145573
    47  O   -0.618996
    48  C   -0.290788
    49  H    0.146096
    50  H    0.188680
    51  C   -0.304355
    52  H    0.160192
    53  H    0.178374
    54  C   -0.163483
    55  H    0.189064
    56  H    0.178379
    57  N   -0.784180
    58  H    0.369916
    59  H    0.448408
    60  H    0.390862
    61  O   -0.584652
    62  H    0.435780
 Sum of Mulliken charges =   1.00000

 Dipole moment (field-independent basis, Debye):
    X=             -0.1207    Y=             -3.9928    Z=              4.6448  Tot=              6.1263
 Quadrupole moment (field-independent basis, Debye-Ang):
   XX=            -85.0348   YY=           -122.5854   ZZ=           -128.2893
   XY=             42.3195   XZ=            -68.3999   YZ=            -41.6011

 Normal termination of Gaussian 16 at Fri Jul  8 13:27:28 2022.
