 Gaussian 16, Revision C.01,
 Gaussian 16:  ES64L-G16RevC.01  3-Jul-2019

 -------------------------------------------------------------------
 # B3LYP/6-31G* guess=read geom=check nosymm integral(ultrafinegrid)
 -------------------------------------------------------------------

 ------------------------------------------------------
 Candidate Structure: Conf:883 Charge calc in gas phase
 ------------------------------------------------------
 Structure from the checkpoint file:  "conf-883.chk"
 Charge =  1 Multiplicity = 1

                          Input orientation:
 ---------------------------------------------------------------------
 Center     Atomic      Atomic             Coordinates (Angstroms)
 Number     Number       Type             X           Y           Z
 ---------------------------------------------------------------------
      1          7           0       -7.093289   -0.242703    5.947560
      2          1           0       -6.603450   -0.702879    6.720376
      3          1           0       -6.771069    0.776168    5.897560
      4          1           0       -8.102218   -0.316831    6.103437
      5          6           0       -6.656675   -0.740203    4.580755
      6          1           0       -6.242603   -1.744615    4.687182
      7          6           0       -5.583570    0.315333    4.194516
      8          6           0       -7.876835   -0.738541    3.626773
      9          1           0       -8.663848   -1.349983    4.089696
     10          1           0       -8.254885    0.288934    3.554622
     11          8           0       -5.662276    1.414060    4.774776
     12          6           0       -7.551522   -1.280768    2.249680
     13          6           0       -7.258797   -0.413549    1.188948
     14          1           0       -7.298689    0.662280    1.346198
     15          6           0       -7.513281   -2.664356    2.029502
     16          1           0       -7.758664   -3.351086    2.837859
     17          6           0       -6.909300   -0.917122   -0.064254
     18          1           0       -6.641415   -0.237830   -0.868139
     19          6           0       -7.179568   -3.169647    0.772922
     20          1           0       -7.160357   -4.243591    0.611799
     21          6           0       -6.871157   -2.296703   -0.271585
     22          1           0       -6.598803   -2.690295   -1.246220
     23          7           0       -4.693014   -0.025975    3.277927
     24          1           0       -4.761225   -0.905099    2.755690
     25          6           0       -3.757635    0.908381    2.651230
     26          1           0       -4.283531    1.846431    2.437912
     27          6           0       -3.359964    0.230734    1.323085
     28          6           0       -2.546998    1.268635    3.549274
     29          1           0       -1.948271    0.369035    3.741611
     30          1           0       -2.942998    1.637741    4.505376
     31          8           0       -3.762211   -0.904884    1.061975
     32          8           0       -1.788377    2.257575    2.901006
     33          7           0       -2.605275    0.995645    0.498647
     34          1           0       -2.177623    1.813141    0.941103
     35          6           0       -2.256057    0.575256   -0.857278
     36          1           0       -2.600437   -0.460617   -0.944094
     37          6           0       -0.746890    0.614670   -1.162435
     38          6           0       -3.025424    1.424671   -1.891979
     39          1           0       -2.846288    1.020071   -2.888246
     40          1           0       -2.648184    2.458383   -1.879651
     41          8           0       -0.364912    0.750430   -2.334973
     42          8           0       -4.426858    1.384552   -1.670843
     43          1           0       -4.581681    1.800373   -0.808237
     44          7           0        0.079885    0.479996   -0.117098
     45          1           0       -0.228527    0.448438    0.876432
     46          6           0        1.515040    0.688645   -0.216548
     47          1           0        1.712106    1.746793   -0.445161
     48          6           0        2.120249   -0.162709   -1.330510
     49          6           0        2.178869    0.337519    1.139138
     50          1           0        2.086191   -0.743758    1.295051
     51          1           0        3.238020    0.603588    1.100935
     52          8           0        1.846764   -1.368133   -1.449855
     53          6           0        1.508359    1.088436    2.329989
     54          8           0        2.175248    1.863219    3.003852
     55          8           0        0.250467    0.792679    2.466746
     56          7           0        3.004745    0.476558   -2.131325
     57          1           0        3.258687    1.434313   -1.919024
     58          6           0        3.757868   -0.174342   -3.181994
     59          1           0        3.684811   -1.251006   -3.019960
     60          6           0        5.222983    0.235171   -3.052828
     61          6           0        3.275923    0.183021   -4.618748
     62          1           0        3.780602   -0.502931   -5.309615
     63          1           0        3.642001    1.187623   -4.865223
     64          8           0        5.604767    1.230400   -2.483207
     65          6           0        1.757474    0.190788   -4.862326
     66          1           0        1.603556    0.463678   -5.915355
     67          1           0        1.281157    0.973432   -4.263948
     68          6           0        0.968350   -1.086363   -4.547642
     69          1           0        0.881341   -1.231183   -3.473734
     70          1           0       -0.052671   -0.978548   -4.928252
     71          7           0        1.548690   -2.305131   -5.148430
     72          1           0        1.645602   -2.310710   -6.156178
     73          7           0        2.026773   -3.479566   -3.186322
     74          1           0        2.087450   -4.381441   -2.735028
     75          1           0        1.983668   -2.643675   -2.568528
     76          7           0        2.150784   -4.540087   -5.237870
     77          1           0        1.943303   -4.578919   -6.224527
     78          1           0        2.711910   -5.287777   -4.857067
     79          6           0        1.905773   -3.424302   -4.510437
     80          8           0        6.035060   -0.623518   -3.703574
     81          1           0       -0.851489    1.872699    2.840965
     82          1           0        6.943924   -0.274483   -3.619196
 ---------------------------------------------------------------------

 SCF Done:  E(RB3LYP) =  -2166.25792952     A.U. after    1 cycles

 Alpha  occ. eigenvalues --  -19.28370 -19.24850 -19.22628 -19.20812 -19.20656
 Alpha  occ. eigenvalues --  -19.19853 -19.17437 -19.17175 -19.12289 -19.10595
 Alpha  occ. eigenvalues --  -14.58623 -14.50438 -14.50278 -14.48304 -14.47266
 Alpha  occ. eigenvalues --  -14.44764 -14.43081 -14.40172 -10.46318 -10.41536
 Alpha  occ. eigenvalues --  -10.40675 -10.39346 -10.37353 -10.36688 -10.34550
 Alpha  occ. eigenvalues --  -10.32976 -10.32831 -10.32342 -10.31332 -10.29652
 Alpha  occ. eigenvalues --  -10.29592 -10.29388 -10.29378 -10.29187 -10.28824
 Alpha  occ. eigenvalues --  -10.28586 -10.27962 -10.27880 -10.27709 -10.27298
 Alpha  occ. eigenvalues --  -10.26971 -10.26890 -10.22669  -1.19222  -1.17417
 Alpha  occ. eigenvalues --   -1.14598  -1.12336  -1.12190  -1.11622  -1.10370
 Alpha  occ. eigenvalues --   -1.08908  -1.07999  -1.05531  -1.04302  -1.03989
 Alpha  occ. eigenvalues --   -1.03626  -1.02369  -1.01435  -0.99663  -0.97635
 Alpha  occ. eigenvalues --   -0.95607  -0.95093  -0.91114  -0.89488  -0.85821
 Alpha  occ. eigenvalues --   -0.85353  -0.83716  -0.82894  -0.82175  -0.80573
 Alpha  occ. eigenvalues --   -0.79194  -0.77927  -0.76037  -0.72896  -0.72723
 Alpha  occ. eigenvalues --   -0.72151  -0.71977  -0.71694  -0.71381  -0.70853
 Alpha  occ. eigenvalues --   -0.69163  -0.68713  -0.67832  -0.67183  -0.67000
 Alpha  occ. eigenvalues --   -0.66794  -0.65625  -0.64494  -0.63893  -0.63610
 Alpha  occ. eigenvalues --   -0.62697  -0.61449  -0.60228  -0.59607  -0.59280
 Alpha  occ. eigenvalues --   -0.58494  -0.58247  -0.57818  -0.57325  -0.57048
 Alpha  occ. eigenvalues --   -0.56819  -0.56201  -0.55199  -0.55143  -0.54752
 Alpha  occ. eigenvalues --   -0.54693  -0.54264  -0.54181  -0.53676  -0.53323
 Alpha  occ. eigenvalues --   -0.52557  -0.51896  -0.51508  -0.51104  -0.50546
 Alpha  occ. eigenvalues --   -0.50409  -0.50012  -0.49929  -0.49358  -0.49193
 Alpha  occ. eigenvalues --   -0.49016  -0.48615  -0.48102  -0.48048  -0.47551
 Alpha  occ. eigenvalues --   -0.47099  -0.46550  -0.45545  -0.45194  -0.44825
 Alpha  occ. eigenvalues --   -0.44342  -0.44073  -0.44029  -0.43840  -0.43181
 Alpha  occ. eigenvalues --   -0.43042  -0.42624  -0.42599  -0.41886  -0.40820
 Alpha  occ. eigenvalues --   -0.40541  -0.40315  -0.39637  -0.39469  -0.38795
 Alpha  occ. eigenvalues --   -0.38413  -0.38043  -0.36593  -0.36453  -0.34953
 Alpha  occ. eigenvalues --   -0.34749  -0.34423  -0.33992  -0.33296  -0.33216
 Alpha  occ. eigenvalues --   -0.33141  -0.31137  -0.30765  -0.30473  -0.27233
 Alpha  occ. eigenvalues --   -0.27028  -0.24525
 Alpha virt. eigenvalues --   -0.10893  -0.10154  -0.09655  -0.09527  -0.08589
 Alpha virt. eigenvalues --   -0.07593  -0.07024  -0.06022  -0.05430  -0.04699
 Alpha virt. eigenvalues --   -0.03905  -0.02852  -0.01866  -0.01363  -0.00888

 Mulliken charges:
               1
     1  N   -0.755757
     2  H    0.415428
     3  H    0.433224
     4  H    0.409265
     5  C   -0.107390
     6  H    0.212963
     7  C    0.652872
     8  C   -0.383723
     9  H    0.174411
    10  H    0.187585
    11  O   -0.547161
    12  C    0.148698
    13  C   -0.184918
    14  H    0.135565
    15  C   -0.186453
    16  H    0.126431
    17  C   -0.113119
    18  H    0.173844
    19  C   -0.121129
    20  H    0.149836
    21  C   -0.114733
    22  H    0.151899
    23  N   -0.606054
    24  H    0.383145
    25  C   -0.077045
    26  H    0.188054
    27  C    0.603621
    28  C   -0.017636
    29  H    0.159895
    30  H    0.147978
    31  O   -0.534376
    32  O   -0.663391
    33  N   -0.643742
    34  H    0.367391
    35  C   -0.078853
    36  H    0.205997
    37  C    0.632214
    38  C   -0.025971
    39  H    0.170152
    40  H    0.136626
    41  O   -0.582474
    42  O   -0.616040
    43  H    0.391000
    44  N   -0.629495
    45  H    0.395686
    46  C   -0.043544
    47  H    0.158768
    48  C    0.674368
    49  C   -0.377199
    50  H    0.163800
    51  H    0.159408
    52  O   -0.583255
    53  C    0.587880
    54  O   -0.511908
    55  O   -0.657242
    56  N   -0.587856
    57  H    0.361220
    58  C   -0.048487
    59  H    0.173020
    60  C    0.588228
    61  C   -0.279500
    62  H    0.151951
    63  H    0.171294
    64  O   -0.443880
    65  C   -0.297294
    66  H    0.148138
    67  H    0.216540
    68  C   -0.181064
    69  H    0.227705
    70  H    0.190229
    71  N   -0.600767
    72  H    0.349998
    73  N   -0.794969
    74  H    0.365306
    75  H    0.455095
    76  N   -0.769664
    77  H    0.372389
    78  H    0.376306
    79  C    0.808670
    80  O   -0.567566
    81  H    0.452066
    82  H    0.427493
 Sum of Mulliken charges =   1.00000

 Dipole moment (field-independent basis, Debye):
    X=            -16.1504    Y=            -17.1003    Z=             -5.1178  Tot=             24.0717
 Quadrupole moment (field-independent basis, Debye-Ang):
   XX=            -46.7161   YY=           -199.3292   ZZ=            -64.1671
   XY=            -11.7351   XZ=           -191.4744   YZ=             26.0135

 Normal termination of Gaussian 16 at Thu May 26 21:39:21 2022.
