 Gaussian 16, Revision C.01,
 Gaussian 16:  ES64L-G16RevC.01  3-Jul-2019

 -------------------------------------------------------------------
 # B3LYP/6-31G* guess=read geom=check nosymm integral(ultrafinegrid)
 -------------------------------------------------------------------

 ------------------------------------------------------
 Candidate Structure: Conf:669 Charge calc in gas phase
 ------------------------------------------------------
 Structure from the checkpoint file:  "conf-669.chk"
 Charge =  1 Multiplicity = 1

                          Input orientation:
 ---------------------------------------------------------------------
 Center     Atomic      Atomic             Coordinates (Angstroms)
 Number     Number       Type             X           Y           Z
 ---------------------------------------------------------------------
      1          7           0       -7.580154   -0.499144    3.900114
      2          1           0       -7.709064   -1.336407    4.474094
      3          1           0       -7.612654    0.346641    4.529486
      4          1           0       -8.299303   -0.485258    3.164388
      5          6           0       -6.189016   -0.398945    3.310811
      6          1           0       -5.772953   -1.397158    3.177446
      7          6           0       -5.421709    0.436792    4.355469
      8          6           0       -6.259894    0.335921    1.955365
      9          1           0       -6.643487    1.350609    2.120267
     10          1           0       -5.224621    0.415689    1.615948
     11          8           0       -6.091588    1.174934    5.099595
     12          6           0       -7.108501   -0.421975    0.958939
     13          6           0       -6.585723   -1.559994    0.322939
     14          1           0       -5.552605   -1.840994    0.517883
     15          6           0       -8.435136   -0.044724    0.700521
     16          1           0       -8.835673    0.865378    1.146914
     17          6           0       -7.380145   -2.300989   -0.550189
     18          1           0       -6.965038   -3.175058   -1.044479
     19          6           0       -9.231581   -0.793613   -0.173308
     20          1           0      -10.253873   -0.484553   -0.372980
     21          6           0       -8.704903   -1.923828   -0.796487
     22          1           0       -9.318972   -2.505316   -1.478277
     23          7           0       -4.104506    0.286458    4.313464
     24          1           0       -3.749998   -0.368176    3.583922
     25          6           0       -3.174839    1.200082    4.968078
     26          1           0       -3.791007    1.935809    5.497709
     27          6           0       -2.429385    1.978020    3.851724
     28          6           0       -2.290741    0.486620    6.019247
     29          1           0       -2.931434   -0.230529    6.553383
     30          1           0       -1.950139    1.228321    6.750270
     31          8           0       -3.042905    2.367826    2.853209
     32          8           0       -1.125331   -0.130408    5.508598
     33          7           0       -1.113547    2.215209    4.063447
     34          1           0       -0.644789    1.551459    4.685409
     35          6           0       -0.304961    2.933757    3.080798
     36          1           0       -0.972693    3.654846    2.598564
     37          6           0        0.236460    1.953167    2.019813
     38          6           0        0.834581    3.689202    3.758791
     39          1           0        1.491466    4.102420    2.979639
     40          1           0        1.439721    2.987947    4.351365
     41          8           0        1.442294    1.690281    1.936372
     42          8           0        0.253170    4.706310    4.559063
     43          1           0        0.955604    5.099572    5.097866
     44          7           0       -0.703291    1.388880    1.218031
     45          1           0       -1.670061    1.623348    1.442447
     46          6           0       -0.462891    0.072261    0.591426
     47          1           0        0.263815   -0.445440    1.226698
     48          6           0        0.163715    0.244425   -0.804771
     49          6           0       -1.749814   -0.747469    0.560011
     50          1           0       -2.510587   -0.266104   -0.062619
     51          1           0       -1.541145   -1.713017    0.085174
     52          8           0       -0.378873   -0.104122   -1.849734
     53          6           0       -2.315454   -0.986092    1.975199
     54          8           0       -3.561513   -1.208584    2.063733
     55          8           0       -1.512362   -0.897263    2.938891
     56          7           0        1.402937    0.825490   -0.773334
     57          1           0        1.775212    1.088127    0.143242
     58          6           0        2.168009    0.996888   -1.983792
     59          1           0        1.737004    0.290268   -2.707445
     60          6           0        3.638843    0.616557   -1.809485
     61          6           0        2.083633    2.413391   -2.586875
     62          1           0        2.674437    2.393950   -3.510113
     63          1           0        2.574703    3.113338   -1.891975
     64          8           0        4.554161    1.190085   -2.365167
     65          6           0        0.653401    2.882662   -2.862901
     66          1           0        0.091324    2.921668   -1.923053
     67          1           0        0.127244    2.160308   -3.497899
     68          6           0        0.587340    4.279891   -3.487068
     69          1           0       -0.450179    4.618258   -3.564167
     70          1           0        1.119468    5.019242   -2.880039
     71          7           0        1.141854    4.355847   -4.859344
     72          1           0        0.547660    4.012056   -5.604043
     73          7           0        3.314514    4.998925   -4.315776
     74          1           0        4.156256    5.499548   -4.564564
     75          1           0        3.330503    4.463365   -3.456909
     76          7           0        2.582664    5.109639   -6.509218
     77          1           0        1.828189    5.229811   -7.170247
     78          1           0        3.525906    5.172391   -6.865721
     79          6           0        2.343063    4.807414   -5.219783
     80          8           0        3.807012   -0.438708   -0.997091
     81          1           0       -1.346690   -0.622923    4.678289
     82          1           0        4.765796   -0.621171   -0.962481
 ---------------------------------------------------------------------

 SCF Done:  E(RB3LYP) =  -2166.27014115     A.U. after    1 cycles

 Alpha  occ. eigenvalues --  -19.27479 -19.22060 -19.20403 -19.19748 -19.18523
 Alpha  occ. eigenvalues --  -19.18002 -19.17848 -19.17450 -19.13788 -19.13657
 Alpha  occ. eigenvalues --  -14.54576 -14.53668 -14.53631 -14.53236 -14.42097
 Alpha  occ. eigenvalues --  -14.41741 -14.41408 -14.41045 -10.49929 -10.40189
 Alpha  occ. eigenvalues --  -10.36866 -10.36327 -10.34919 -10.34577 -10.34575
 Alpha  occ. eigenvalues --  -10.34056 -10.32011 -10.31801 -10.29642 -10.29340
 Alpha  occ. eigenvalues --  -10.29125 -10.28928 -10.28905 -10.28449 -10.28336
 Alpha  occ. eigenvalues --  -10.27471 -10.27256 -10.26586 -10.26213 -10.25873
 Alpha  occ. eigenvalues --  -10.25819 -10.25411 -10.22920  -1.18596  -1.18222
 Alpha  occ. eigenvalues --   -1.12765  -1.10248  -1.09556  -1.09462  -1.09045
 Alpha  occ. eigenvalues --   -1.08173  -1.07398  -1.07152  -1.07001  -1.06367
 Alpha  occ. eigenvalues --   -1.05509  -0.99634  -0.99196  -0.98300  -0.97765
 Alpha  occ. eigenvalues --   -0.97054  -0.92864  -0.91325  -0.87657  -0.86132
 Alpha  occ. eigenvalues --   -0.83915  -0.82532  -0.81495  -0.81315  -0.80818
 Alpha  occ. eigenvalues --   -0.79298  -0.78556  -0.75745  -0.74019  -0.73228
 Alpha  occ. eigenvalues --   -0.72257  -0.70954  -0.70491  -0.69301  -0.68544
 Alpha  occ. eigenvalues --   -0.68203  -0.67625  -0.67095  -0.66881  -0.66583
 Alpha  occ. eigenvalues --   -0.65747  -0.65276  -0.64177  -0.63774  -0.63219
 Alpha  occ. eigenvalues --   -0.61351  -0.60878  -0.60254  -0.59302  -0.59181
 Alpha  occ. eigenvalues --   -0.58094  -0.57679  -0.56903  -0.56589  -0.56430
 Alpha  occ. eigenvalues --   -0.56239  -0.55470  -0.54783  -0.54377  -0.54057
 Alpha  occ. eigenvalues --   -0.53388  -0.52771  -0.52624  -0.52331  -0.51878
 Alpha  occ. eigenvalues --   -0.51598  -0.50796  -0.50398  -0.49443  -0.49157
 Alpha  occ. eigenvalues --   -0.49011  -0.48872  -0.48697  -0.48201  -0.47809
 Alpha  occ. eigenvalues --   -0.47497  -0.47082  -0.46942  -0.46916  -0.46570
 Alpha  occ. eigenvalues --   -0.46139  -0.46055  -0.45763  -0.45402  -0.45064
 Alpha  occ. eigenvalues --   -0.44666  -0.44477  -0.44176  -0.44029  -0.43275
 Alpha  occ. eigenvalues --   -0.42894  -0.42624  -0.42574  -0.41781  -0.41084
 Alpha  occ. eigenvalues --   -0.40811  -0.40033  -0.39678  -0.39501  -0.38883
 Alpha  occ. eigenvalues --   -0.37545  -0.36170  -0.35165  -0.34141  -0.33698
 Alpha  occ. eigenvalues --   -0.33076  -0.32304  -0.32273  -0.31950  -0.31694
 Alpha  occ. eigenvalues --   -0.31565  -0.30953  -0.30387  -0.29611  -0.29120
 Alpha  occ. eigenvalues --   -0.28625  -0.27710
 Alpha virt. eigenvalues --   -0.14138  -0.09576  -0.08244  -0.07853  -0.07321
 Alpha virt. eigenvalues --   -0.05810  -0.05454  -0.05107  -0.05019  -0.04634
 Alpha virt. eigenvalues --   -0.04140  -0.03737  -0.03088  -0.00564   0.00245

 Mulliken charges:
               1
     1  N   -0.750307
     2  H    0.406317
     3  H    0.415400
     4  H    0.396807
     5  C   -0.121073
     6  H    0.232488
     7  C    0.633564
     8  C   -0.371631
     9  H    0.169852
    10  H    0.237149
    11  O   -0.562324
    12  C    0.123581
    13  C   -0.188538
    14  H    0.187986
    15  C   -0.228974
    16  H    0.133844
    17  C   -0.129737
    18  H    0.151459
    19  C   -0.126536
    20  H    0.147336
    21  C   -0.127031
    22  H    0.148771
    23  N   -0.604899
    24  H    0.416462
    25  C   -0.116250
    26  H    0.205206
    27  C    0.630439
    28  C   -0.040993
    29  H    0.146191
    30  H    0.157203
    31  O   -0.559967
    32  O   -0.652461
    33  N   -0.587764
    34  H    0.377478
    35  C   -0.086805
    36  H    0.191004
    37  C    0.629718
    38  C   -0.027944
    39  H    0.131360
    40  H    0.147284
    41  O   -0.552292
    42  O   -0.617340
    43  H    0.400776
    44  N   -0.616699
    45  H    0.373940
    46  C   -0.061628
    47  H    0.202942
    48  C    0.629404
    49  C   -0.390435
    50  H    0.159311
    51  H    0.180621
    52  O   -0.538866
    53  C    0.620407
    54  O   -0.624479
    55  O   -0.596307
    56  N   -0.630948
    57  H    0.380450
    58  C   -0.045508
    59  H    0.210318
    60  C    0.590040
    61  C   -0.289284
    62  H    0.145003
    63  H    0.142016
    64  O   -0.482659
    65  C   -0.262821
    66  H    0.192266
    67  H    0.179532
    68  C   -0.190211
    69  H    0.200744
    70  H    0.186044
    71  N   -0.581115
    72  H    0.368073
    73  N   -0.749586
    74  H    0.384310
    75  H    0.404805
    76  N   -0.758821
    77  H    0.385397
    78  H    0.386927
    79  C    0.810802
    80  O   -0.542739
    81  H    0.439840
    82  H    0.424102
 Sum of Mulliken charges =   1.00000

 Dipole moment (field-independent basis, Debye):
    X=             -4.7002    Y=             17.5100    Z=            -16.0133  Tot=             24.1891
 Quadrupole moment (field-independent basis, Debye-Ang):
   XX=            -69.3261   YY=           -149.3501   ZZ=            -99.3489
   XY=             73.3180   XZ=            -92.9195   YZ=           -107.3192

 Normal termination of Gaussian 16 at Thu May 26 21:39:20 2022.
