 Gaussian 16, Revision C.01,
 Gaussian 16:  ES64L-G16RevC.01  3-Jul-2019

 -------------------------------------------------------------------
 # B3LYP/6-31G* guess=read geom=check nosymm integral(ultrafinegrid)
 -------------------------------------------------------------------

 ------------------------------------------------------
 Candidate Structure: Conf:472 Charge calc in gas phase
 ------------------------------------------------------
 Structure from the checkpoint file:  "conf-472.chk"
 Charge =  1 Multiplicity = 1

                          Input orientation:
 ---------------------------------------------------------------------
 Center     Atomic      Atomic             Coordinates (Angstroms)
 Number     Number       Type             X           Y           Z
 ---------------------------------------------------------------------
      1          7           0       -8.236632    1.357617    4.399627
      2          1           0       -8.260095    1.717758    5.354832
      3          1           0       -8.051061    2.147622    3.772568
      4          1           0       -9.125132    0.916185    4.159512
      5          6           0       -7.122952    0.414740    4.204289
      6          1           0       -6.999347   -0.202650    5.098077
      7          6           0       -5.860522    1.222151    3.940803
      8          6           0       -7.395403   -0.504119    3.007723
      9          1           0       -7.551065    0.118872    2.123003
     10          1           0       -6.503652   -1.104188    2.817389
     11          8           0       -5.907994    2.347384    3.477586
     12          6           0       -8.592886   -1.385306    3.243031
     13          6           0       -8.532952   -2.417695    4.178218
     14          1           0       -7.602478   -2.587436    4.709351
     15          6           0       -9.796004   -1.151356    2.584775
     16          1           0       -9.862867   -0.337236    1.869743
     17          6           0       -9.641833   -3.220485    4.426529
     18          1           0       -9.567703   -4.024543    5.150048
     19          6           0      -10.915173   -1.939740    2.839073
     20          1           0      -11.842793   -1.736989    2.316789
     21          6           0      -10.839448   -2.980873    3.759076
     22          1           0      -11.707371   -3.600076    3.955079
     23          7           0       -4.675438    0.586683    4.218784
     24          1           0       -4.733450   -0.410821    4.342855
     25          6           0       -3.492670    1.005023    3.503231
     26          1           0       -3.432134    2.093793    3.546554
     27          6           0       -3.490871    0.536417    2.057626
     28          6           0       -2.222787    0.325318    4.188940
     29          1           0       -2.522755   -0.749965    4.223302
     30          1           0       -2.282033    0.651472    5.248591
     31          8           0       -4.024190   -0.508812    1.721452
     32          8           0       -1.095102    0.538754    3.630665
     33          7           0       -2.789103    1.328398    1.205855
     34          1           0       -2.267063    2.113904    1.561372
     35          6           0       -2.275324    0.752308   -0.013764
     36          1           0       -2.516579   -0.309464    0.018086
     37          6           0       -0.779628    1.007721    0.066504
     38          6           0       -2.862021    1.357072   -1.267270
     39          1           0       -2.359484    0.935184   -2.148386
     40          1           0       -2.690001    2.438902   -1.250643
     41          8           0       -0.371648    2.157900    0.260715
     42          8           0       -4.251361    1.042801   -1.264359
     43          1           0       -4.677029    1.552662   -1.957535
     44          7           0        0.049047   -0.038043   -0.024126
     45          1           0       -0.338691   -0.970837   -0.024465
     46          6           0        1.427317    0.145494    0.405898
     47          1           0        1.431579    0.996918    1.093604
     48          6           0        2.338201    0.477489   -0.770837
     49          6           0        1.869117   -1.090158    1.196267
     50          1           0        1.948637   -1.978934    0.571994
     51          1           0        2.832882   -0.907742    1.671091
     52          8           0        3.320210   -0.184951   -1.065542
     53          6           0        0.744575   -1.213311    2.190134
     54          8           0       -0.166182   -2.000872    2.122221
     55          8           0        0.817760   -0.207780    3.083026
     56          7           0        1.984981    1.569491   -1.500088
     57          1           0        1.281147    2.191769   -1.127250
     58          6           0        2.919086    2.034122   -2.504357
     59          1           0        3.073086    1.231238   -3.233767
     60          6           0        4.252519    2.338324   -1.842792
     61          6           0        2.369656    3.279238   -3.203216
     62          1           0        2.281302    4.080392   -2.464921
     63          1           0        1.361919    3.035861   -3.548534
     64          8           0        4.395204    2.808205   -0.744825
     65          6           0        3.210185    3.746037   -4.382933
     66          1           0        3.339309    2.917949   -5.083389
     67          1           0        4.205928    4.040825   -4.047726
     68          6           0        2.558424    4.907102   -5.111198
     69          1           0        1.569329    4.599456   -5.461567
     70          1           0        2.418142    5.752097   -4.426208
     71          7           0        3.386899    5.300295   -6.268209
     72          1           0        4.381893    5.211036   -6.122611
     73          7           0        1.839313    6.901969   -6.970070
     74          1           0        1.481474    7.442060   -7.740683
     75          1           0        1.153638    6.479990   -6.367413
     76          7           0        3.943321    6.740842   -7.989383
     77          1           0        4.659644    6.085597   -8.269758
     78          1           0        3.606645    7.334317   -8.731358
     79          6           0        3.038039    6.306493   -7.083143
     80          8           0        5.289315    2.070288   -2.673200
     81          1           0        0.012101   -0.200811    3.616969
     82          1           0        6.081846    2.318092   -2.183205
 ---------------------------------------------------------------------

 SCF Done:  E(RB3LYP) =  -2166.12650070     A.U. after    1 cycles

 Alpha  occ. eigenvalues --  -19.25754 -19.20849 -19.19707 -19.18413 -19.15609
 Alpha  occ. eigenvalues --  -19.15369 -19.13147 -19.11514 -19.11146 -19.01941
 Alpha  occ. eigenvalues --  -14.58410 -14.55798 -14.55107 -14.54971 -14.41948
 Alpha  occ. eigenvalues --  -14.40100 -14.39698 -14.37230 -10.51594 -10.37828
 Alpha  occ. eigenvalues --  -10.37697 -10.37293 -10.36389 -10.32130 -10.32114
 Alpha  occ. eigenvalues --  -10.31216 -10.30579 -10.29700 -10.29496 -10.29317
 Alpha  occ. eigenvalues --  -10.28965 -10.28570 -10.27678 -10.27430 -10.27330
 Alpha  occ. eigenvalues --  -10.27257 -10.27166 -10.26981 -10.25810 -10.25598
 Alpha  occ. eigenvalues --  -10.23199 -10.20212 -10.20131  -1.20252  -1.16886
 Alpha  occ. eigenvalues --   -1.15178  -1.11752  -1.09296  -1.08787  -1.08553
 Alpha  occ. eigenvalues --   -1.07861  -1.07388  -1.06282  -1.05990  -1.05312
 Alpha  occ. eigenvalues --   -0.98674  -0.98216  -0.97814  -0.96545  -0.94911
 Alpha  occ. eigenvalues --   -0.94634  -0.93093  -0.93028  -0.90029  -0.86285
 Alpha  occ. eigenvalues --   -0.83983  -0.82992  -0.82308  -0.81563  -0.79307
 Alpha  occ. eigenvalues --   -0.78646  -0.77139  -0.77100  -0.74681  -0.73640
 Alpha  occ. eigenvalues --   -0.72440  -0.72326  -0.71758  -0.70954  -0.69217
 Alpha  occ. eigenvalues --   -0.68526  -0.68239  -0.67632  -0.67153  -0.66018
 Alpha  occ. eigenvalues --   -0.64816  -0.63765  -0.63066  -0.62602  -0.62436
 Alpha  occ. eigenvalues --   -0.61500  -0.60982  -0.60532  -0.60126  -0.60111
 Alpha  occ. eigenvalues --   -0.58922  -0.57635  -0.57103  -0.56842  -0.56086
 Alpha  occ. eigenvalues --   -0.54546  -0.54153  -0.54020  -0.53759  -0.53035
 Alpha  occ. eigenvalues --   -0.52698  -0.52359  -0.52229  -0.51302  -0.50918
 Alpha  occ. eigenvalues --   -0.50603  -0.50439  -0.49710  -0.49646  -0.49439
 Alpha  occ. eigenvalues --   -0.48559  -0.47730  -0.47561  -0.47515  -0.47333
 Alpha  occ. eigenvalues --   -0.47024  -0.46880  -0.46067  -0.45389  -0.45166
 Alpha  occ. eigenvalues --   -0.44509  -0.44312  -0.44118  -0.43974  -0.43830
 Alpha  occ. eigenvalues --   -0.43472  -0.42674  -0.42569  -0.42436  -0.42330
 Alpha  occ. eigenvalues --   -0.41603  -0.41335  -0.40932  -0.39180  -0.38287
 Alpha  occ. eigenvalues --   -0.37737  -0.37688  -0.37572  -0.36734  -0.35848
 Alpha  occ. eigenvalues --   -0.35409  -0.33729  -0.33682  -0.33201  -0.32693
 Alpha  occ. eigenvalues --   -0.31783  -0.31311  -0.30961  -0.30616  -0.30105
 Alpha  occ. eigenvalues --   -0.28213  -0.27011  -0.26831  -0.26439  -0.24701
 Alpha  occ. eigenvalues --   -0.19058  -0.17256
 Alpha virt. eigenvalues --   -0.16583  -0.11050  -0.09922  -0.08819  -0.07520
 Alpha virt. eigenvalues --   -0.07220  -0.06307  -0.06147  -0.05686  -0.05428
 Alpha virt. eigenvalues --   -0.02535  -0.02351  -0.02231  -0.01249  -0.00657

 Mulliken charges:
               1
     1  N   -0.715445
     2  H    0.422838
     3  H    0.412984
     4  H    0.406316
     5  C   -0.153142
     6  H    0.210458
     7  C    0.635014
     8  C   -0.391129
     9  H    0.186775
    10  H    0.248433
    11  O   -0.513430
    12  C    0.149804
    13  C   -0.183232
    14  H    0.145347
    15  C   -0.216474
    16  H    0.134532
    17  C   -0.124512
    18  H    0.160137
    19  C   -0.123063
    20  H    0.154186
    21  C   -0.125442
    22  H    0.158656
    23  N   -0.562355
    24  H    0.331259
    25  C   -0.141454
    26  H    0.154282
    27  C    0.655651
    28  C    0.099263
    29  H    0.030891
    30  H    0.038632
    31  O   -0.557632
    32  O   -0.685970
    33  N   -0.581170
    34  H    0.353301
    35  C   -0.059531
    36  H    0.196644
    37  C    0.633025
    38  C   -0.021436
    39  H    0.113616
    40  H    0.125919
    41  O   -0.574769
    42  O   -0.608372
    43  H    0.387395
    44  N   -0.606057
    45  H    0.359232
    46  C   -0.104099
    47  H    0.241881
    48  C    0.645713
    49  C   -0.334811
    50  H    0.159107
    51  H    0.181282
    52  O   -0.527412
    53  C    0.555082
    54  O   -0.501250
    55  O   -0.562821
    56  N   -0.633413
    57  H    0.360997
    58  C    0.011306
    59  H    0.184548
    60  C    0.592931
    61  C   -0.321548
    62  H    0.176571
    63  H    0.163426
    64  O   -0.449634
    65  C   -0.306943
    66  H    0.181207
    67  H    0.173626
    68  C   -0.168341
    69  H    0.182786
    70  H    0.197754
    71  N   -0.584726
    72  H    0.375798
    73  N   -0.725090
    74  H    0.386016
    75  H    0.398453
    76  N   -0.726347
    77  H    0.389567
    78  H    0.380598
    79  C    0.775024
    80  O   -0.576740
    81  H    0.434684
    82  H    0.414844
 Sum of Mulliken charges =   1.00000

 Dipole moment (field-independent basis, Debye):
    X=            -14.3157    Y=             29.5471    Z=            -26.8888  Tot=             42.4379
 Quadrupole moment (field-independent basis, Debye-Ang):
   XX=             53.9728   YY=            -73.6682   ZZ=             41.0180
   XY=             67.0815   XZ=           -216.6041   YZ=           -209.3428

 Normal termination of Gaussian 16 at Thu May 26 21:39:18 2022.
