 Gaussian 16, Revision C.01,
 Gaussian 16:  ES64L-G16RevC.01  3-Jul-2019

 -------------------------------------------------------------------
 # B3LYP/6-31G* guess=read geom=check nosymm integral(ultrafinegrid)
 -------------------------------------------------------------------

 ------------------------------------------------------
 Candidate Structure: Conf:304 Charge calc in gas phase
 ------------------------------------------------------
 Structure from the checkpoint file:  "conf-304.chk"
 Charge =  1 Multiplicity = 1

                          Input orientation:
 ---------------------------------------------------------------------
 Center     Atomic      Atomic             Coordinates (Angstroms)
 Number     Number       Type             X           Y           Z
 ---------------------------------------------------------------------
      1          7           0       -8.859725   -0.669182    1.544226
      2          1           0       -9.655719   -0.931676    2.129502
      3          1           0       -8.975983    0.316371    1.137354
      4          1           0       -8.779856   -1.343247    0.776970
      5          6           0       -7.554653   -0.520715    2.310193
      6          1           0       -7.804655   -0.538087    3.374118
      7          6           0       -7.100825    0.908373    1.885832
      8          6           0       -6.567247   -1.662501    1.968217
      9          1           0       -7.149616   -2.588172    1.861971
     10          1           0       -6.097492   -1.445162    1.002726
     11          8           0       -7.886431    1.560646    1.180271
     12          6           0       -5.515264   -1.865355    3.043994
     13          6           0       -4.203190   -1.410256    2.863685
     14          1           0       -3.901178   -0.915922    1.944352
     15          6           0       -5.857617   -2.505619    4.245205
     16          1           0       -6.867940   -2.884771    4.392508
     17          6           0       -3.253328   -1.574632    3.876492
     18          1           0       -2.254337   -1.185452    3.712696
     19          6           0       -4.906505   -2.681577    5.248422
     20          1           0       -5.181325   -3.187014    6.169839
     21          6           0       -3.602021   -2.211661    5.066443
     22          1           0       -2.863698   -2.345115    5.851883
     23          7           0       -5.915002    1.349873    2.308014
     24          1           0       -5.288834    0.683825    2.754518
     25          6           0       -5.284526    2.487023    1.641633
     26          1           0       -6.046117    3.260963    1.514729
     27          6           0       -4.850968    2.047784    0.218469
     28          6           0       -4.138596    3.039219    2.540611
     29          1           0       -3.539498    2.198107    2.903687
     30          1           0       -4.608048    3.548597    3.390848
     31          8           0       -4.970984    0.886416   -0.182169
     32          8           0       -3.316446    3.954712    1.844658
     33          7           0       -4.415303    3.073654   -0.551697
     34          1           0       -4.067356    3.880396   -0.030005
     35          6           0       -4.016598    2.903817   -1.947321
     36          1           0       -4.589033    2.065186   -2.352680
     37          6           0       -2.517176    2.568100   -2.012360
     38          6           0       -4.332965    4.179873   -2.744496
     39          1           0       -3.880139    5.046289   -2.238141
     40          1           0       -5.416472    4.326348   -2.756790
     41          8           0       -1.690236    3.421532   -2.386588
     42          8           0       -3.907432    4.071136   -4.084283
     43          1           0       -2.935890    4.077247   -4.053181
     44          7           0       -2.173626    1.348263   -1.566870
     45          1           0       -2.918454    0.734867   -1.246585
     46          6           0       -0.794223    1.033910   -1.241179
     47          1           0       -0.307031    1.997969   -1.105337
     48          6           0       -0.051953    0.397924   -2.430324
     49          6           0       -0.712868    0.344536    0.123833
     50          1           0       -1.221767   -0.623774    0.126164
     51          1           0        0.335139    0.158912    0.390740
     52          8           0       -0.600184    0.072182   -3.470682
     53          6           0       -1.362513    1.266623    1.187011
     54          8           0       -2.124406    0.742197    2.015289
     55          8           0       -1.100032    2.521122    1.092763
     56          7           0        1.307629    0.373959   -2.249132
     57          1           0        1.673776    0.703319   -1.365597
     58          6           0        2.235179    0.353655   -3.364588
     59          1           0        1.651373    0.026673   -4.233271
     60          6           0        3.370472   -0.659141   -3.204497
     61          6           0        2.813293    1.764967   -3.621160
     62          1           0        3.634439    1.671632   -4.336673
     63          1           0        3.265143    2.113614   -2.680753
     64          8           0        4.348478   -0.676036   -3.917000
     65          6           0        1.767780    2.792136   -4.124987
     66          1           0        0.754140    2.377652   -4.094268
     67          1           0        1.961472    3.017588   -5.179572
     68          6           0        1.771381    4.132762   -3.368905
     69          1           0        2.803320    4.443354   -3.180382
     70          1           0        1.293785    4.907304   -3.981481
     71          7           0        1.056819    4.043073   -2.084854
     72          1           0        0.078987    3.718061   -2.143403
     73          7           0        2.527419    5.385777   -0.866064
     74          1           0        2.863262    5.712306    0.028085
     75          1           0        2.816204    5.914642   -1.675005
     76          7           0        0.775329    4.311799    0.204370
     77          1           0        0.066963    3.554847    0.335086
     78          1           0        0.949342    4.877372    1.023339
     79          6           0        1.434234    4.585262   -0.923659
     80          8           0        3.170363   -1.534381   -2.197167
     81          1           0       -2.459950    3.484241    1.652194
     82          1           0        3.934711   -2.142628   -2.213810
 ---------------------------------------------------------------------

 SCF Done:  E(RB3LYP) =  -2166.28253904     A.U. after    1 cycles

 Alpha  occ. eigenvalues --  -19.26967 -19.25783 -19.21900 -19.21114 -19.20994
 Alpha  occ. eigenvalues --  -19.20436 -19.20419 -19.19273 -19.17707 -19.16384
 Alpha  occ. eigenvalues --  -14.58434 -14.49150 -14.47874 -14.47552 -14.46769
 Alpha  occ. eigenvalues --  -14.44810 -14.44271 -14.43920 -10.44642 -10.42297
 Alpha  occ. eigenvalues --  -10.39455 -10.39315 -10.38048 -10.37748 -10.36523
 Alpha  occ. eigenvalues --  -10.35056 -10.33275 -10.32312 -10.32309 -10.31813
 Alpha  occ. eigenvalues --  -10.31527 -10.31156 -10.30503 -10.30279 -10.29386
 Alpha  occ. eigenvalues --  -10.28004 -10.27966 -10.27588 -10.27464 -10.27026
 Alpha  occ. eigenvalues --  -10.26977 -10.26864 -10.26637  -1.18246  -1.17836
 Alpha  occ. eigenvalues --   -1.13392  -1.12811  -1.12590  -1.12054  -1.11227
 Alpha  occ. eigenvalues --   -1.10088  -1.08729  -1.08083  -1.07787  -1.04572
 Alpha  occ. eigenvalues --   -1.02383  -1.01853  -1.01357  -1.00825  -1.00581
 Alpha  occ. eigenvalues --   -1.00408  -0.94987  -0.91108  -0.88961  -0.87021
 Alpha  occ. eigenvalues --   -0.85718  -0.84083  -0.83285  -0.82748  -0.81761
 Alpha  occ. eigenvalues --   -0.78068  -0.78051  -0.75594  -0.74416  -0.73313
 Alpha  occ. eigenvalues --   -0.72666  -0.71555  -0.71408  -0.71041  -0.70213
 Alpha  occ. eigenvalues --   -0.69628  -0.68941  -0.67948  -0.67557  -0.66864
 Alpha  occ. eigenvalues --   -0.66607  -0.66549  -0.66216  -0.64292  -0.62802
 Alpha  occ. eigenvalues --   -0.62193  -0.61665  -0.61225  -0.60402  -0.59709
 Alpha  occ. eigenvalues --   -0.59206  -0.58709  -0.58134  -0.57902  -0.57192
 Alpha  occ. eigenvalues --   -0.56881  -0.56548  -0.56425  -0.55770  -0.55574
 Alpha  occ. eigenvalues --   -0.54949  -0.54726  -0.54351  -0.53908  -0.53740
 Alpha  occ. eigenvalues --   -0.52410  -0.52277  -0.51929  -0.51798  -0.51400
 Alpha  occ. eigenvalues --   -0.51270  -0.51056  -0.50662  -0.50490  -0.50152
 Alpha  occ. eigenvalues --   -0.49785  -0.49434  -0.49038  -0.48647  -0.48299
 Alpha  occ. eigenvalues --   -0.48107  -0.47839  -0.47017  -0.46825  -0.46669
 Alpha  occ. eigenvalues --   -0.46160  -0.45685  -0.45220  -0.44385  -0.44343
 Alpha  occ. eigenvalues --   -0.43630  -0.43415  -0.43086  -0.42750  -0.42544
 Alpha  occ. eigenvalues --   -0.42336  -0.40666  -0.40233  -0.39818  -0.39381
 Alpha  occ. eigenvalues --   -0.38809  -0.38471  -0.37362  -0.36819  -0.35920
 Alpha  occ. eigenvalues --   -0.35414  -0.35041  -0.34272  -0.33745  -0.33505
 Alpha  occ. eigenvalues --   -0.33327  -0.33248  -0.32735  -0.32527  -0.32444
 Alpha  occ. eigenvalues --   -0.32140  -0.29963
 Alpha virt. eigenvalues --   -0.11705  -0.09778  -0.09113  -0.09004  -0.08739
 Alpha virt. eigenvalues --   -0.08253  -0.06517  -0.06123  -0.05914  -0.04954
 Alpha virt. eigenvalues --   -0.04792  -0.02517  -0.02419  -0.01660  -0.00425

 Mulliken charges:
               1
     1  N   -0.764719
     2  H    0.411105
     3  H    0.437532
     4  H    0.413567
     5  C   -0.105780
     6  H    0.225817
     7  C    0.660305
     8  C   -0.398678
     9  H    0.170472
    10  H    0.219079
    11  O   -0.541632
    12  C    0.142971
    13  C   -0.232218
    14  H    0.185099
    15  C   -0.179444
    16  H    0.119782
    17  C   -0.123311
    18  H    0.176168
    19  C   -0.123989
    20  H    0.152624
    21  C   -0.125632
    22  H    0.154043
    23  N   -0.591416
    24  H    0.378180
    25  C   -0.106718
    26  H    0.207052
    27  C    0.637258
    28  C   -0.053348
    29  H    0.188594
    30  H    0.150248
    31  O   -0.562995
    32  O   -0.677518
    33  N   -0.600206
    34  H    0.367960
    35  C   -0.095056
    36  H    0.199466
    37  C    0.651832
    38  C   -0.028379
    39  H    0.132078
    40  H    0.163929
    41  O   -0.584299
    42  O   -0.615903
    43  H    0.409242
    44  N   -0.570923
    45  H    0.370195
    46  C   -0.078918
    47  H    0.146507
    48  C    0.629675
    49  C   -0.378536
    50  H    0.172864
    51  H    0.160354
    52  O   -0.503803
    53  C    0.616315
    54  O   -0.552037
    55  O   -0.634355
    56  N   -0.586946
    57  H    0.325972
    58  C   -0.078045
    59  H    0.228327
    60  C    0.589854
    61  C   -0.279317
    62  H    0.196545
    63  H    0.133159
    64  O   -0.452707
    65  C   -0.296843
    66  H    0.189645
    67  H    0.173393
    68  C   -0.167245
    69  H    0.163771
    70  H    0.183011
    71  N   -0.638609
    72  H    0.428514
    73  N   -0.761286
    74  H    0.368881
    75  H    0.374947
    76  N   -0.806325
    77  H    0.447552
    78  H    0.356631
    79  C    0.780398
    80  O   -0.558437
    81  H    0.443666
    82  H    0.421000
 Sum of Mulliken charges =   1.00000

 Dipole moment (field-independent basis, Debye):
    X=            -16.9936    Y=              6.8447    Z=              6.3799  Tot=             19.3994
 Quadrupole moment (field-independent basis, Debye-Ang):
   XX=             -8.4946   YY=           -175.0548   ZZ=           -233.2867
   XY=             71.7469   XZ=            -67.2649   YZ=            -25.5162

 Normal termination of Gaussian 16 at Thu May 26 21:39:35 2022.
