 Gaussian 16, Revision C.01,
 Gaussian 16:  ES64L-G16RevC.01  3-Jul-2019

 -------------------------------------------------------------------
 # B3LYP/6-31G* guess=read geom=check nosymm integral(ultrafinegrid)
 -------------------------------------------------------------------

 -----------------------------------------------------
 Candidate Structure: Conf:34 Charge calc in gas phase
 -----------------------------------------------------
 Structure from the checkpoint file:  "conf-34.chk"
 Charge =  1 Multiplicity = 1

                          Input orientation:
 ---------------------------------------------------------------------
 Center     Atomic      Atomic             Coordinates (Angstroms)
 Number     Number       Type             X           Y           Z
 ---------------------------------------------------------------------
      1          7           0       -6.240220    4.249940    5.127848
      2          1           0       -5.664247    4.746244    5.811987
      3          1           0       -6.459720    4.908042    4.293541
      4          1           0       -7.091019    3.919135    5.589757
      5          6           0       -5.495541    3.153301    4.388703
      6          1           0       -4.564811    2.945334    4.919695
      7          6           0       -5.228962    3.834933    3.011408
      8          6           0       -6.376768    1.883883    4.318155
      9          1           0       -6.684986    1.639333    5.345089
     10          1           0       -7.285354    2.119291    3.750218
     11          8           0       -5.884024    4.876307    2.782666
     12          6           0       -5.665052    0.697060    3.700564
     13          6           0       -6.014242    0.238952    2.425324
     14          1           0       -6.816520    0.726820    1.876680
     15          6           0       -4.633645    0.051276    4.397464
     16          1           0       -4.366943    0.376353    5.402163
     17          6           0       -5.331010   -0.830277    1.846722
     18          1           0       -5.602135   -1.164860    0.850198
     19          6           0       -3.949649   -1.015880    3.816715
     20          1           0       -3.149150   -1.503661    4.365788
     21          6           0       -4.291948   -1.454377    2.536008
     22          1           0       -3.739485   -2.263904    2.068641
     23          7           0       -4.343359    3.275415    2.214179
     24          1           0       -3.923062    2.342158    2.384839
     25          6           0       -4.082815    3.652264    0.824878
     26          1           0       -5.033075    3.743886    0.286392
     27          6           0       -3.270706    2.453802    0.249162
     28          6           0       -3.319319    4.985274    0.683106
     29          1           0       -2.373505    4.910088    1.246778
     30          1           0       -3.906279    5.803917    1.111602
     31          8           0       -3.086311    1.460565    1.004037
     32          8           0       -3.082943    5.279752   -0.689165
     33          7           0       -2.869037    2.640955   -0.992151
     34          1           0       -3.025544    4.375752   -1.134452
     35          6           0       -2.233161    1.479391   -1.584799
     36          1           0       -2.888874    0.599215   -1.503904
     37          6           0       -0.896418    1.124372   -0.922517
     38          6           0       -1.977474    1.707106   -3.082270
     39          1           0       -1.329941    0.903180   -3.468869
     40          1           0       -1.443642    2.662809   -3.207704
     41          8           0       -0.030799    1.985772   -0.660639
     42          8           0       -3.235503    1.717315   -3.733999
     43          1           0       -3.080046    1.853567   -4.680811
     44          7           0       -0.648822   -0.182605   -0.718395
     45          1           0       -1.430808   -0.830286   -0.683338
     46          6           0        0.587219   -0.650823   -0.108034
     47          1           0        0.600149   -0.380008    0.957277
     48          6           0        1.812966   -0.031088   -0.823391
     49          6           0        0.713589   -2.180213   -0.260309
     50          1           0        0.765352   -2.412403   -1.331981
     51          1           0        1.649505   -2.520215    0.190329
     52          8           0        1.934934   -0.097094   -2.041677
     53          6           0       -0.437227   -2.970052    0.328127
     54          8           0       -1.610357   -2.646376    0.284057
     55          8           0       -0.021099   -4.118981    0.888099
     56          7           0        2.748817    0.489910    0.008898
     57          1           0        2.584033    0.522850    1.007942
     58          6           0        4.037121    1.012773   -0.419531
     59          1           0        4.401655    0.409308   -1.257637
     60          6           0        4.990502    0.839757    0.759403
     61          6           0        3.986480    2.510670   -0.842399
     62          1           0        4.969289    2.965798   -0.677652
     63          1           0        3.284472    3.010338   -0.164437
     64          8           0        4.638682    0.624519    1.899241
     65          6           0        3.568962    2.721955   -2.313985
     66          1           0        2.925705    1.900284   -2.646717
     67          1           0        4.456656    2.697018   -2.955849
     68          6           0        2.839644    4.049588   -2.553560
     69          1           0        3.396946    4.888868   -2.116522
     70          1           0        2.752881    4.229017   -3.634423
     71          7           0        1.511104    3.983010   -1.943144
     72          1           0        1.156220    3.069048   -1.651800
     73          7           0        1.009683    6.257750   -2.071747
     74          1           0        0.364705    7.009186   -1.873538
     75          1           0        1.623905    6.386590   -2.861832
     76          7           0       -0.367022    4.791020   -0.890346
     77          1           0       -0.540481    3.809091   -0.641198
     78          1           0       -1.220069    5.365232   -0.922796
     79          6           0        0.703207    5.007781   -1.651104
     80          8           0        6.274135    0.990276    0.387139
     81          1           0       -0.817523   -4.599187    1.187433
     82          1           0        6.820522    0.897019    1.191306
 ---------------------------------------------------------------------

 SCF Done:  E(RB3LYP) =  -2166.26245602     A.U. after    2 cycles

 Alpha  occ. eigenvalues --  -19.28260 -19.28186 -19.24214 -19.22872 -19.22806
 Alpha  occ. eigenvalues --  -19.20130 -19.19645 -19.19538 -19.19173 -19.15304
 Alpha  occ. eigenvalues --  -14.57354 -14.47490 -14.46021 -14.45666 -14.44035
 Alpha  occ. eigenvalues --  -14.43584 -14.43374 -14.34109 -10.42415 -10.41074
 Alpha  occ. eigenvalues --  -10.40764 -10.40577 -10.38479 -10.36853 -10.36186
 Alpha  occ. eigenvalues --  -10.32511 -10.32386 -10.32364 -10.32126 -10.30971
 Alpha  occ. eigenvalues --  -10.29758 -10.29451 -10.29001 -10.28860 -10.28603
 Alpha  occ. eigenvalues --  -10.27767 -10.27335 -10.27334 -10.27287 -10.26860
 Alpha  occ. eigenvalues --  -10.26624 -10.26218 -10.26101  -1.19305  -1.19254
 Alpha  occ. eigenvalues --   -1.16550  -1.12000  -1.11162  -1.11010  -1.10681
 Alpha  occ. eigenvalues --   -1.10306  -1.10173  -1.07390  -1.06935  -1.05980
 Alpha  occ. eigenvalues --   -1.01908  -1.00958  -1.00692  -1.00094  -0.98624
 Alpha  occ. eigenvalues --   -0.94303  -0.92690  -0.90208  -0.88921  -0.87315
 Alpha  occ. eigenvalues --   -0.84254  -0.84085  -0.82233  -0.82043  -0.79886
 Alpha  occ. eigenvalues --   -0.77881  -0.77231  -0.76518  -0.73585  -0.72519
 Alpha  occ. eigenvalues --   -0.71438  -0.71047  -0.70554  -0.69997  -0.69316
 Alpha  occ. eigenvalues --   -0.68402  -0.67961  -0.67532  -0.66798  -0.66396
 Alpha  occ. eigenvalues --   -0.66049  -0.65202  -0.64497  -0.63156  -0.60586
 Alpha  occ. eigenvalues --   -0.60399  -0.60082  -0.59739  -0.58860  -0.58537
 Alpha  occ. eigenvalues --   -0.58170  -0.57797  -0.57466  -0.57279  -0.57055
 Alpha  occ. eigenvalues --   -0.56834  -0.56265  -0.55936  -0.55697  -0.55008
 Alpha  occ. eigenvalues --   -0.54756  -0.54101  -0.53922  -0.53724  -0.53587
 Alpha  occ. eigenvalues --   -0.53074  -0.52865  -0.52158  -0.51126  -0.51024
 Alpha  occ. eigenvalues --   -0.50432  -0.49908  -0.49764  -0.49619  -0.49354
 Alpha  occ. eigenvalues --   -0.49285  -0.48890  -0.48470  -0.48039  -0.47881
 Alpha  occ. eigenvalues --   -0.47818  -0.47193  -0.46878  -0.46734  -0.46120
 Alpha  occ. eigenvalues --   -0.45703  -0.45211  -0.44645  -0.43931  -0.43432
 Alpha  occ. eigenvalues --   -0.43251  -0.42972  -0.42616  -0.42309  -0.41922
 Alpha  occ. eigenvalues --   -0.41716  -0.40367  -0.40346  -0.40041  -0.39107
 Alpha  occ. eigenvalues --   -0.38132  -0.37821  -0.36748  -0.36483  -0.35983
 Alpha  occ. eigenvalues --   -0.35358  -0.34689  -0.34015  -0.33262  -0.33001
 Alpha  occ. eigenvalues --   -0.32786  -0.32535  -0.32413  -0.32031  -0.30938
 Alpha  occ. eigenvalues --   -0.29273  -0.26872
 Alpha virt. eigenvalues --   -0.09941  -0.09135  -0.08611  -0.08137  -0.07803
 Alpha virt. eigenvalues --   -0.07686  -0.06939  -0.05906  -0.05057  -0.04044
 Alpha virt. eigenvalues --   -0.03019  -0.01137  -0.00431  -0.00403  -0.00038

 Mulliken charges:
               1
     1  N   -0.765139
     2  H    0.407899
     3  H    0.434303
     4  H    0.405538
     5  C   -0.101285
     6  H    0.210851
     7  C    0.647801
     8  C   -0.382317
     9  H    0.172523
    10  H    0.182660
    11  O   -0.561742
    12  C    0.148909
    13  C   -0.172244
    14  H    0.138295
    15  C   -0.185960
    16  H    0.119070
    17  C   -0.102274
    18  H    0.153829
    19  C   -0.121611
    20  H    0.140858
    21  C   -0.110747
    22  H    0.158504
    23  N   -0.613198
    24  H    0.390223
    25  C   -0.083619
    26  H    0.191407
    27  C    0.577628
    28  C   -0.014422
    29  H    0.113877
    30  H    0.159147
    31  O   -0.622872
    32  O   -0.667697
    33  N   -0.596947
    34  H    0.424325
    35  C   -0.059378
    36  H    0.149913
    37  C    0.666690
    38  C   -0.023405
    39  H    0.131490
    40  H    0.108266
    41  O   -0.612930
    42  O   -0.609509
    43  H    0.396254
    44  N   -0.603585
    45  H    0.381606
    46  C   -0.021496
    47  H    0.164129
    48  C    0.644459
    49  C   -0.394666
    50  H    0.226635
    51  H    0.196001
    52  O   -0.535646
    53  C    0.597157
    54  O   -0.468262
    55  O   -0.545758
    56  N   -0.613886
    57  H    0.352588
    58  C   -0.033738
    59  H    0.203930
    60  C    0.573684
    61  C   -0.277040
    62  H    0.172220
    63  H    0.163587
    64  O   -0.460322
    65  C   -0.332614
    66  H    0.214016
    67  H    0.167006
    68  C   -0.143185
    69  H    0.167954
    70  H    0.167970
    71  N   -0.636398
    72  H    0.416356
    73  N   -0.757652
    74  H    0.373648
    75  H    0.369694
    76  N   -0.817181
    77  H    0.416888
    78  H    0.382906
    79  C    0.775504
    80  O   -0.557866
    81  H    0.421465
    82  H    0.426925
 Sum of Mulliken charges =   1.00000

 Dipole moment (field-independent basis, Debye):
    X=             -7.6140    Y=             15.3903    Z=             11.9821  Tot=             20.9381
 Quadrupole moment (field-independent basis, Debye-Ang):
   XX=           -118.6948   YY=           -140.9720   ZZ=           -136.8380
   XY=            -26.3744   XZ=           -106.0681   YZ=             29.8409

 Normal termination of Gaussian 16 at Thu May 26 21:38:21 2022.
