 Gaussian 16, Revision C.01,
 Gaussian 16:  ES64L-G16RevC.01  3-Jul-2019

 -------------------------------------------------------------------
 # B3LYP/6-31G* guess=read geom=check nosymm integral(ultrafinegrid)
 -------------------------------------------------------------------

 ------------------------------------------------------
 Candidate Structure: Conf:123 Charge calc in gas phase
 ------------------------------------------------------
 Structure from the checkpoint file:  "conf-123.chk"
 Charge =  1 Multiplicity = 1

                          Input orientation:
 ---------------------------------------------------------------------
 Center     Atomic      Atomic             Coordinates (Angstroms)
 Number     Number       Type             X           Y           Z
 ---------------------------------------------------------------------
      1          7           0       -7.020845   -2.227583    3.703938
      2          1           0       -4.420836   -1.388635    6.154201
      3          1           0       -7.416653   -1.719386    4.495547
      4          1           0       -7.692943   -2.955739    3.469971
      5          6           0       -6.847721   -1.315392    2.560273
      6          1           0       -6.688772   -1.952810    1.679658
      7          6           0       -5.535554   -0.529903    2.742650
      8          6           0       -8.050967   -0.380083    2.262541
      9          1           0       -8.954296   -0.950123    2.515508
     10          1           0       -8.016655    0.479877    2.940770
     11          8           0       -5.343957    0.579750    2.232029
     12          6           0       -8.161087    0.088715    0.823504
     13          6           0       -7.818259    1.392623    0.446185
     14          1           0       -7.440261    2.079795    1.196748
     15          6           0       -8.633690   -0.789339   -0.162217
     16          1           0       -8.924932   -1.801591    0.113911
     17          6           0       -7.946873    1.807968   -0.879790
     18          1           0       -7.686961    2.828026   -1.151330
     19          6           0       -8.755830   -0.380837   -1.490792
     20          1           0       -9.130919   -1.075509   -2.237636
     21          6           0       -8.413675    0.922968   -1.853476
     22          1           0       -8.519510    1.248696   -2.884795
     23          7           0       -4.593721   -1.176672    3.470632
     24          1           0       -4.878077   -2.081205    3.838424
     25          6           0       -3.310055   -0.583837    3.844103
     26          1           0       -3.494752    0.476261    4.059318
     27          6           0       -2.287269   -0.654776    2.693216
     28          6           0       -2.770130   -1.246945    5.117526
     29          1           0       -1.772776   -0.854770    5.322785
     30          1           0       -2.663380   -2.330848    4.959003
     31          8           0       -1.220381   -1.264195    2.781291
     32          8           0       -3.564343   -0.944868    6.249871
     33          7           0       -2.647678    0.033755    1.574455
     34          1           0       -3.547935    0.521391    1.573547
     35          6           0       -1.791957   -0.015973    0.405013
     36          1           0       -1.353884   -1.020398    0.376390
     37          6           0       -0.619051    0.982670    0.498150
     38          6           0       -2.574407    0.190711   -0.895680
     39          1           0       -3.077082    1.163435   -0.892510
     40          1           0       -3.342867   -0.588994   -0.971192
     41          8           0       -0.680497    2.141162    0.071247
     42          8           0       -1.719942    0.166150   -2.042622
     43          1           0       -0.924668   -0.367421   -1.857220
     44          7           0        0.518242    0.475214    1.041278
     45          1           0        0.451459   -0.479775    1.381037
     46          6           0        1.799632    0.947124    0.554061
     47          1           0        1.784248    2.039645    0.565752
     48          6           0        1.940344    0.479670   -0.932682
     49          6           0        2.932925    0.450890    1.469994
     50          1           0        2.588354    0.476479    2.510057
     51          1           0        3.199092   -0.593708    1.263458
     52          8           0        1.157404   -0.343351   -1.416110
     53          6           0        4.190680    1.291246    1.384561
     54          8           0        4.393865    2.185522    0.582044
     55          8           0        5.075364    0.942560    2.326984
     56          7           0        2.935625    1.063317   -1.634395
     57          1           0        3.570997    1.671749   -1.119143
     58          6           0        3.267997    0.682290   -3.006336
     59          1           0        2.907924   -0.346676   -3.141023
     60          6           0        4.784592    0.626379   -3.216448
     61          6           0        2.598835    1.586525   -4.065162
     62          1           0        3.153702    1.485347   -5.002819
     63          1           0        2.707689    2.628416   -3.737219
     64          8           0        5.324401    0.767284   -4.287965
     65          6           0        1.118669    1.232730   -4.274638
     66          1           0        0.647725    1.017872   -3.313799
     67          1           0        1.043853    0.302610   -4.852247
     68          6           0        0.301927    2.291401   -5.027177
     69          1           0        0.755099    2.515576   -5.996412
     70          1           0       -0.708819    1.917702   -5.232023
     71          7           0        0.210263    3.586629   -4.324692
     72          1           0        0.543168    4.407591   -4.811244
     73          7           0       -1.121922    2.876686   -2.533509
     74          1           0       -1.153186    2.826263   -1.506180
     75          1           0       -1.309658    1.963086   -2.941180
     76          7           0       -0.177891    4.980900   -2.519128
     77          1           0        0.619906    5.558173   -2.741363
     78          1           0       -0.652091    5.169786   -1.647009
     79          6           0       -0.358490    3.785991   -3.125456
     80          8           0        5.455249    0.358164   -2.074579
     81          1           0        5.860240    1.514732    2.222734
     82          1           0        6.400528    0.308111   -2.316461
 ---------------------------------------------------------------------

 SCF Done:  E(RB3LYP) =  -2166.29832476     A.U. after    1 cycles

 Alpha  occ. eigenvalues --  -19.30109 -19.29403 -19.25157 -19.24902 -19.23553
 Alpha  occ. eigenvalues --  -19.23174 -19.22790 -19.21557 -19.20694 -19.20143
 Alpha  occ. eigenvalues --  -14.51021 -14.50558 -14.48043 -14.46459 -14.45768
 Alpha  occ. eigenvalues --  -14.44458 -14.44247 -14.41008 -10.46480 -10.43374
 Alpha  occ. eigenvalues --  -10.41885 -10.39638 -10.39450 -10.37393 -10.36850
 Alpha  occ. eigenvalues --  -10.35169 -10.34575 -10.34361 -10.33386 -10.32981
 Alpha  occ. eigenvalues --  -10.31511 -10.31302 -10.30692 -10.30692 -10.29518
 Alpha  occ. eigenvalues --  -10.29239 -10.25931 -10.25338 -10.24480 -10.24412
 Alpha  occ. eigenvalues --  -10.24355 -10.24291 -10.24085  -1.21428  -1.20303
 Alpha  occ. eigenvalues --   -1.15223  -1.14898  -1.13909  -1.12526  -1.12413
 Alpha  occ. eigenvalues --   -1.11633  -1.11536  -1.11283  -1.09022  -1.04652
 Alpha  occ. eigenvalues --   -1.03227  -1.03069  -1.02409  -1.01290  -1.00659
 Alpha  occ. eigenvalues --   -0.97275  -0.91272  -0.90928  -0.89809  -0.86386
 Alpha  occ. eigenvalues --   -0.86189  -0.84096  -0.83128  -0.81019  -0.79715
 Alpha  occ. eigenvalues --   -0.79634  -0.77994  -0.76833  -0.74833  -0.73117
 Alpha  occ. eigenvalues --   -0.73092  -0.71872  -0.71693  -0.71295  -0.69600
 Alpha  occ. eigenvalues --   -0.68784  -0.68240  -0.67994  -0.66839  -0.66008
 Alpha  occ. eigenvalues --   -0.65885  -0.64278  -0.63880  -0.63607  -0.62995
 Alpha  occ. eigenvalues --   -0.62546  -0.61778  -0.60971  -0.60827  -0.60137
 Alpha  occ. eigenvalues --   -0.59727  -0.58881  -0.58464  -0.58254  -0.57698
 Alpha  occ. eigenvalues --   -0.57593  -0.57139  -0.56911  -0.56527  -0.56280
 Alpha  occ. eigenvalues --   -0.55900  -0.55347  -0.54970  -0.54584  -0.54109
 Alpha  occ. eigenvalues --   -0.53827  -0.52822  -0.52506  -0.52259  -0.51456
 Alpha  occ. eigenvalues --   -0.51149  -0.50997  -0.50968  -0.50725  -0.50514
 Alpha  occ. eigenvalues --   -0.50177  -0.49662  -0.49158  -0.48908  -0.48710
 Alpha  occ. eigenvalues --   -0.48083  -0.47859  -0.47521  -0.47389  -0.47150
 Alpha  occ. eigenvalues --   -0.46847  -0.46443  -0.46061  -0.45311  -0.45109
 Alpha  occ. eigenvalues --   -0.44710  -0.44189  -0.43440  -0.43159  -0.42524
 Alpha  occ. eigenvalues --   -0.41372  -0.41197  -0.40998  -0.40311  -0.39961
 Alpha  occ. eigenvalues --   -0.39737  -0.39278  -0.38954  -0.38375  -0.38089
 Alpha  occ. eigenvalues --   -0.37297  -0.36999  -0.36453  -0.35829  -0.35450
 Alpha  occ. eigenvalues --   -0.34902  -0.34609  -0.33627  -0.33231  -0.32226
 Alpha  occ. eigenvalues --   -0.30334  -0.29394
 Alpha virt. eigenvalues --   -0.11318  -0.10282  -0.09728  -0.08925  -0.08499
 Alpha virt. eigenvalues --   -0.07350  -0.06911  -0.06276  -0.05415  -0.05333
 Alpha virt. eigenvalues --   -0.03313  -0.02039  -0.01829  -0.01333  -0.01276

 Mulliken charges:
               1
     1  N   -0.748239
     2  H    0.394034
     3  H    0.316386
     4  H    0.324469
     5  C   -0.072098
     6  H    0.181453
     7  C    0.618481
     8  C   -0.361285
     9  H    0.150852
    10  H    0.160138
    11  O   -0.551837
    12  C    0.168432
    13  C   -0.161521
    14  H    0.138379
    15  C   -0.186097
    16  H    0.118879
    17  C   -0.136162
    18  H    0.127901
    19  C   -0.128642
    20  H    0.136335
    21  C   -0.131438
    22  H    0.132768
    23  N   -0.606919
    24  H    0.359679
    25  C   -0.075943
    26  H    0.196453
    27  C    0.629599
    28  C   -0.054053
    29  H    0.179035
    30  H    0.146569
    31  O   -0.540707
    32  O   -0.604521
    33  N   -0.630506
    34  H    0.388833
    35  C   -0.101162
    36  H    0.180792
    37  C    0.645478
    38  C   -0.028168
    39  H    0.160584
    40  H    0.170069
    41  O   -0.568607
    42  O   -0.672768
    43  H    0.441651
    44  N   -0.580303
    45  H    0.368718
    46  C   -0.055282
    47  H    0.202456
    48  C    0.612469
    49  C   -0.395462
    50  H    0.225692
    51  H    0.213993
    52  O   -0.555702
    53  C    0.613133
    54  O   -0.481827
    55  O   -0.543344
    56  N   -0.621705
    57  H    0.388565
    58  C   -0.054260
    59  H    0.215856
    60  C    0.578942
    61  C   -0.261005
    62  H    0.192249
    63  H    0.134743
    64  O   -0.441985
    65  C   -0.299692
    66  H    0.175647
    67  H    0.174661
    68  C   -0.172776
    69  H    0.186346
    70  H    0.191395
    71  N   -0.597555
    72  H    0.361856
    73  N   -0.783738
    74  H    0.414616
    75  H    0.406953
    76  N   -0.758922
    77  H    0.370778
    78  H    0.385447
    79  C    0.789719
    80  O   -0.565344
    81  H    0.430014
    82  H    0.428078
 Sum of Mulliken charges =   1.00000

 Dipole moment (field-independent basis, Debye):
    X=             -1.2164    Y=              8.5493    Z=             -5.9144  Tot=             10.4666
 Quadrupole moment (field-independent basis, Debye-Ang):
   XX=           -149.5058   YY=           -185.5059   ZZ=           -197.4077
   XY=             33.3202   XZ=            -19.2105   YZ=            -46.2189

 Normal termination of Gaussian 16 at Thu May 26 21:38:01 2022.
