 Gaussian 16, Revision C.01,
 Gaussian 16:  ES64L-G16RevC.01  3-Jul-2019

 -------------------------------------------------------------------
 # B3LYP/6-31G* guess=read geom=check nosymm integral(ultrafinegrid)
 -------------------------------------------------------------------

 -----------------------------------------------------
 Candidate Structure: Conf:90 Charge calc in gas phase
 -----------------------------------------------------
 Structure from the checkpoint file:  "conf-90.chk"
 Charge =  1 Multiplicity = 1

                          Input orientation:
 ---------------------------------------------------------------------
 Center     Atomic      Atomic             Coordinates (Angstroms)
 Number     Number       Type             X           Y           Z
 ---------------------------------------------------------------------
      1          7           0       -6.762986   -0.749506    5.513850
      2          1           0       -6.215437   -0.801139    6.376800
      3          1           0       -7.210695    0.213818    5.455955
      4          1           0       -7.445819   -1.520335    5.509664
      5          6           0       -5.904139   -0.757713    4.271160
      6          1           0       -4.934499   -1.188719    4.527635
      7          6           0       -5.805519    0.751456    3.912439
      8          6           0       -6.594655   -1.580587    3.157153
      9          1           0       -7.482275   -1.032576    2.818570
     10          1           0       -5.901760   -1.613557    2.309553
     11          8           0       -6.633126    1.508318    4.451565
     12          6           0       -6.973534   -2.973897    3.614630
     13          6           0       -6.005492   -3.983505    3.725600
     14          1           0       -4.979265   -3.785685    3.423028
     15          6           0       -8.295893   -3.259107    3.991321
     16          1           0       -9.069556   -2.502764    3.864750
     17          6           0       -6.352388   -5.247092    4.201256
     18          1           0       -5.595397   -6.022766    4.270573
     19          6           0       -8.642449   -4.525870    4.473196
     20          1           0       -9.672003   -4.735238    4.748299
     21          6           0       -7.670400   -5.519461    4.580687
     22          1           0       -7.937658   -6.505692    4.948032
     23          7           0       -4.864327    1.079445    3.045568
     24          1           0       -4.271136    0.385831    2.568182
     25          6           0       -4.620117    2.404940    2.474046
     26          1           0       -5.549296    2.801450    2.048800
     27          6           0       -3.573750    2.160894    1.352266
     28          6           0       -4.112111    3.422857    3.525996
     29          1           0       -3.152388    3.056310    3.931377
     30          1           0       -4.830828    3.474824    4.349111
     31          8           0       -3.255387    0.949356    1.120513
     32          8           0       -4.009623    4.707660    2.971659
     33          7           0       -3.102310    3.253646    0.791751
     34          1           0       -3.484404    4.583527    2.149218
     35          6           0       -2.155711    3.113914   -0.306757
     36          1           0       -2.526500    2.331081   -1.002518
     37          6           0       -0.704769    2.683466    0.001347
     38          6           0       -2.157824    4.461978   -1.034609
     39          1           0       -1.537742    4.457907   -1.932166
     40          1           0       -1.782683    5.245754   -0.367817
     41          8           0        0.254961    3.283780   -0.505107
     42          8           0       -3.505299    4.757927   -1.436407
     43          1           0       -4.039735    4.502816   -0.653509
     44          7           0       -0.578211    1.566813    0.749945
     45          1           0       -1.448791    1.065961    0.966641
     46          6           0        0.709985    0.904097    0.961878
     47          1           0        1.469842    1.679183    1.086973
     48          6           0        1.045475    0.048795   -0.283364
     49          6           0        0.617322    0.032280    2.215023
     50          1           0        0.344327    0.666949    3.067469
     51          1           0       -0.164180   -0.722643    2.097630
     52          8           0        0.826484   -1.155826   -0.324242
     53          6           0        1.881603   -0.715247    2.590833
     54          8           0        1.911233   -1.700482    3.289785
     55          8           0        2.996712   -0.124942    2.096306
     56          7           0        1.532095    0.768567   -1.337987
     57          1           0        1.591943    1.777252   -1.224839
     58          6           0        1.716355    0.171225   -2.646186
     59          1           0        1.255931   -0.823458   -2.573334
     60          6           0        3.184595   -0.083011   -3.010598
     61          6           0        1.044181    0.976283   -3.779123
     62          1           0        1.107874    0.379220   -4.694353
     63          1           0        1.625202    1.888211   -3.969619
     64          8           0        3.593658   -0.123758   -4.150744
     65          6           0       -0.403839    1.358038   -3.454263
     66          1           0       -0.396174    2.035008   -2.594548
     67          1           0       -0.982608    0.469151   -3.170723
     68          6           0       -1.097167    2.069688   -4.620077
     69          1           0       -0.448417    2.855913   -5.025748
     70          1           0       -1.319103    1.357827   -5.426150
     71          7           0       -2.346211    2.693236   -4.143176
     72          1           0       -2.607145    2.526120   -3.178065
     73          7           0       -2.846586    3.810850   -6.110085
     74          1           0       -3.255049    4.594156   -6.597636
     75          1           0       -2.334954    3.135687   -6.658112
     76          7           0       -3.944195    4.364954   -4.131479
     77          1           0       -3.888088    4.473422   -3.097099
     78          1           0       -4.556099    4.988770   -4.638311
     79          6           0       -3.049235    3.628335   -4.791956
     80          8           0        3.963251   -0.295856   -1.934268
     81          1           0        3.750879   -0.671646    2.387932
     82          1           0        4.855585   -0.492418   -2.278848
 ---------------------------------------------------------------------

 SCF Done:  E(RB3LYP) =  -2166.25717100     A.U. after    3 cycles

 Alpha  occ. eigenvalues --  -19.25828 -19.25003 -19.24115 -19.24027 -19.20163
 Alpha  occ. eigenvalues --  -19.18849 -19.18760 -19.17907 -19.17840 -19.17829
 Alpha  occ. eigenvalues --  -14.57582 -14.50953 -14.50165 -14.48591 -14.46280
 Alpha  occ. eigenvalues --  -14.42156 -14.41989 -14.36658 -10.46464 -10.40847
 Alpha  occ. eigenvalues --  -10.38723 -10.38306 -10.37530 -10.35477 -10.34862
 Alpha  occ. eigenvalues --  -10.34601 -10.33449 -10.32631 -10.31132 -10.30938
 Alpha  occ. eigenvalues --  -10.30597 -10.30097 -10.30010 -10.29945 -10.29556
 Alpha  occ. eigenvalues --  -10.29484 -10.29352 -10.29210 -10.28982 -10.28934
 Alpha  occ. eigenvalues --  -10.28751 -10.27554 -10.26406  -1.16854  -1.16540
 Alpha  occ. eigenvalues --   -1.15706  -1.14960  -1.11495  -1.10939  -1.10310
 Alpha  occ. eigenvalues --   -1.09463  -1.08482  -1.07766  -1.06641  -1.05912
 Alpha  occ. eigenvalues --   -1.04345  -1.02747  -1.02687  -0.99288  -0.98684
 Alpha  occ. eigenvalues --   -0.96518  -0.94549  -0.91513  -0.89706  -0.86096
 Alpha  occ. eigenvalues --   -0.85597  -0.84863  -0.83900  -0.83032  -0.80534
 Alpha  occ. eigenvalues --   -0.78707  -0.77730  -0.76634  -0.74948  -0.72615
 Alpha  occ. eigenvalues --   -0.72431  -0.71912  -0.71322  -0.70872  -0.70443
 Alpha  occ. eigenvalues --   -0.69989  -0.69043  -0.68641  -0.68095  -0.66733
 Alpha  occ. eigenvalues --   -0.65821  -0.65244  -0.64466  -0.63980  -0.63376
 Alpha  occ. eigenvalues --   -0.62987  -0.61642  -0.60986  -0.60586  -0.59920
 Alpha  occ. eigenvalues --   -0.59484  -0.58447  -0.57905  -0.57451  -0.57057
 Alpha  occ. eigenvalues --   -0.56434  -0.56250  -0.56000  -0.55397  -0.55154
 Alpha  occ. eigenvalues --   -0.54688  -0.54509  -0.54099  -0.53607  -0.52993
 Alpha  occ. eigenvalues --   -0.52509  -0.52355  -0.52312  -0.51845  -0.51629
 Alpha  occ. eigenvalues --   -0.51522  -0.50372  -0.50200  -0.50014  -0.49778
 Alpha  occ. eigenvalues --   -0.49548  -0.49281  -0.48302  -0.47911  -0.47653
 Alpha  occ. eigenvalues --   -0.46995  -0.46686  -0.46337  -0.45983  -0.45894
 Alpha  occ. eigenvalues --   -0.45452  -0.44929  -0.44752  -0.44558  -0.44439
 Alpha  occ. eigenvalues --   -0.44396  -0.43542  -0.43285  -0.42744  -0.42541
 Alpha  occ. eigenvalues --   -0.42275  -0.42026  -0.41425  -0.39915  -0.38888
 Alpha  occ. eigenvalues --   -0.38850  -0.37890  -0.36839  -0.36593  -0.36068
 Alpha  occ. eigenvalues --   -0.35663  -0.35155  -0.35145  -0.34508  -0.33982
 Alpha  occ. eigenvalues --   -0.32720  -0.32393  -0.31621  -0.31097  -0.30959
 Alpha  occ. eigenvalues --   -0.30226  -0.28952
 Alpha virt. eigenvalues --   -0.11663  -0.11256  -0.10380  -0.09016  -0.08235
 Alpha virt. eigenvalues --   -0.06820  -0.05909  -0.05518  -0.04162  -0.03996
 Alpha virt. eigenvalues --   -0.03228  -0.03001  -0.02653  -0.02028  -0.01211

 Mulliken charges:
               1
     1  N   -0.753576
     2  H    0.412245
     3  H    0.426033
     4  H    0.401197
     5  C   -0.109407
     6  H    0.210561
     7  C    0.657696
     8  C   -0.385552
     9  H    0.189645
    10  H    0.209651
    11  O   -0.551161
    12  C    0.140801
    13  C   -0.182456
    14  H    0.149338
    15  C   -0.228561
    16  H    0.148000
    17  C   -0.123220
    18  H    0.166074
    19  C   -0.121224
    20  H    0.163581
    21  C   -0.124661
    22  H    0.165721
    23  N   -0.621038
    24  H    0.368349
    25  C   -0.058681
    26  H    0.180184
    27  C    0.557915
    28  C   -0.012460
    29  H    0.114009
    30  H    0.159747
    31  O   -0.642496
    32  O   -0.632046
    33  N   -0.593596
    34  H    0.407324
    35  C   -0.099859
    36  H    0.121652
    37  C    0.629117
    38  C   -0.034728
    39  H    0.141647
    40  H    0.175663
    41  O   -0.566089
    42  O   -0.664539
    43  H    0.419498
    44  N   -0.630886
    45  H    0.393127
    46  C   -0.051261
    47  H    0.194197
    48  C    0.637970
    49  C   -0.377396
    50  H    0.185520
    51  H    0.194286
    52  O   -0.524143
    53  C    0.605520
    54  O   -0.462156
    55  O   -0.567196
    56  N   -0.617812
    57  H    0.364854
    58  C   -0.059390
    59  H    0.214486
    60  C    0.598504
    61  C   -0.286512
    62  H    0.177515
    63  H    0.159403
    64  O   -0.463917
    65  C   -0.333472
    66  H    0.184197
    67  H    0.169931
    68  C   -0.134993
    69  H    0.183226
    70  H    0.174307
    71  N   -0.625539
    72  H    0.382532
    73  N   -0.761544
    74  H    0.378451
    75  H    0.385358
    76  N   -0.793938
    77  H    0.435597
    78  H    0.362322
    79  C    0.811833
    80  O   -0.549570
    81  H    0.417270
    82  H    0.419018
 Sum of Mulliken charges =   1.00000

 Dipole moment (field-independent basis, Debye):
    X=            -25.5629    Y=              1.3899    Z=             -1.6305  Tot=             25.6525
 Quadrupole moment (field-independent basis, Debye-Ang):
   XX=            -70.5890   YY=           -213.8728   ZZ=            -73.4804
   XY=             28.8981   XZ=            -52.0830   YZ=           -105.3041

 Normal termination of Gaussian 16 at Thu May 26 21:38:31 2022.
