 Gaussian 16, Revision C.01,
 Gaussian 16:  ES64L-G16RevC.01  3-Jul-2019

 -------------------------------------------------------------------
 # B3LYP/6-31G* guess=read geom=check nosymm integral(ultrafinegrid)
 -------------------------------------------------------------------

 ------------------------------------------------------
 Candidate Structure: Conf:156 Charge calc in gas phase
 ------------------------------------------------------
 Structure from the checkpoint file:  "conf-156.chk"
 Charge =  1 Multiplicity = 1

                          Input orientation:
 ---------------------------------------------------------------------
 Center     Atomic      Atomic             Coordinates (Angstroms)
 Number     Number       Type             X           Y           Z
 ---------------------------------------------------------------------
      1          7           0       -7.370345    2.794832    3.243839
      2          1           0       -4.954802    0.425118    5.310055
      3          1           0       -7.806639    2.214980    3.961214
      4          1           0       -8.124066    3.290026    2.774159
      5          6           0       -6.438553    3.743883    3.871842
      6          1           0       -6.417238    4.652454    3.256982
      7          6           0       -4.991016    3.208205    3.842565
      8          6           0       -6.809266    4.170189    5.321473
      9          1           0       -6.006975    4.815964    5.690434
     10          1           0       -7.724029    4.772149    5.272060
     11          8           0       -4.070718    3.801130    4.392276
     12          6           0       -7.020519    2.992686    6.251025
     13          6           0       -8.311818    2.517337    6.521866
     14          1           0       -9.171665    3.039375    6.106390
     15          6           0       -5.928351    2.320871    6.828563
     16          1           0       -4.920795    2.685388    6.648257
     17          6           0       -8.513099    1.401170    7.339222
     18          1           0       -9.523431    1.056504    7.542097
     19          6           0       -6.127521    1.203117    7.641879
     20          1           0       -5.270099    0.700084    8.080450
     21          6           0       -7.420965    0.737976    7.897248
     22          1           0       -7.573708   -0.128329    8.534520
     23          7           0       -4.829164    2.040326    3.143761
     24          1           0       -5.693001    1.646104    2.772820
     25          6           0       -3.595516    1.276849    3.188121
     26          1           0       -2.920078    1.838380    3.845845
     27          6           0       -2.888698    1.168472    1.832084
     28          6           0       -3.806318   -0.116680    3.818501
     29          1           0       -2.877734   -0.682462    3.730636
     30          1           0       -4.584472   -0.660289    3.256085
     31          8           0       -1.975931    0.347820    1.660726
     32          8           0       -4.106263   -0.033289    5.193603
     33          7           0       -3.275746    2.048014    0.876303
     34          1           0       -4.137304    2.551851    1.058746
     35          6           0       -2.890393    1.921842   -0.530532
     36          1           0       -2.918936    0.856835   -0.800078
     37          6           0       -1.456264    2.431372   -0.806334
     38          6           0       -3.896519    2.689926   -1.390529
     39          1           0       -3.688014    2.484290   -2.448481
     40          1           0       -3.769128    3.769395   -1.229301
     41          8           0       -1.249883    3.352148   -1.626276
     42          8           0       -5.188119    2.246218   -1.002660
     43          1           0       -5.846637    2.736117   -1.517940
     44          7           0       -0.495273    1.804720   -0.121158
     45          1           0       -0.810751    1.044628    0.498826
     46          6           0        0.916680    2.113290   -0.222988
     47          1           0        1.022144    3.182228   -0.430328
     48          6           0        1.563139    1.335037   -1.406975
     49          6           0        1.601985    1.814841    1.131428
     50          1           0        0.883845    1.963749    1.945326
     51          1           0        1.927074    0.769938    1.205170
     52          8           0        0.923058    0.539347   -2.086285
     53          6           0        2.796881    2.706863    1.403654
     54          8           0        3.274359    3.497806    0.608312
     55          8           0        3.268901    2.532074    2.641486
     56          7           0        2.875131    1.634801   -1.628170
     57          1           0        3.328317    2.269042   -0.971293
     58          6           0        3.761448    0.762880   -2.389354
     59          1           0        3.232863   -0.181719   -2.560393
     60          6           0        4.981054    0.455688   -1.515290
     61          6           0        4.177444    1.347574   -3.761843
     62          1           0        5.016225    0.760506   -4.144882
     63          1           0        4.559207    2.363604   -3.596626
     64          8           0        5.186717    0.940009   -0.424756
     65          6           0        3.019353    1.343281   -4.790465
     66          1           0        2.128646    0.911794   -4.320429
     67          1           0        3.264648    0.676267   -5.624984
     68          6           0        2.686532    2.711285   -5.410037
     69          1           0        3.553031    3.110480   -5.943785
     70          1           0        1.881826    2.615177   -6.147447
     71          7           0        2.296903    3.747294   -4.440290
     72          1           0        3.013773    4.387344   -4.128960
     73          7           0        0.153994    2.902174   -4.048527
     74          1           0       -0.628988    2.912440   -3.391784
     75          1           0        0.412768    1.984705   -4.382758
     76          7           0        0.864616    4.772089   -2.914387
     77          1           0        1.527727    5.511031   -2.733529
     78          1           0        0.087575    4.628840   -2.267483
     79          6           0        1.125106    3.792544   -3.791715
     80          8           0        5.802594   -0.425873   -2.112878
     81          1           0        4.050092    3.109439    2.745520
     82          1           0        6.551501   -0.584534   -1.506061
 ---------------------------------------------------------------------

 SCF Done:  E(RB3LYP) =  -2166.30518663     A.U. after    1 cycles

 Alpha  occ. eigenvalues --  -19.29842 -19.29817 -19.24768 -19.24465 -19.24414
 Alpha  occ. eigenvalues --  -19.24002 -19.22570 -19.21416 -19.20281 -19.18273
 Alpha  occ. eigenvalues --  -14.51350 -14.49835 -14.49139 -14.46448 -14.46172
 Alpha  occ. eigenvalues --  -14.45473 -14.43116 -14.39935 -10.46649 -10.43079
 Alpha  occ. eigenvalues --  -10.42447 -10.40492 -10.39653 -10.38088 -10.35732
 Alpha  occ. eigenvalues --  -10.35369 -10.34920 -10.34642 -10.33763 -10.33462
 Alpha  occ. eigenvalues --  -10.31373 -10.30613 -10.30585 -10.30414 -10.29925
 Alpha  occ. eigenvalues --  -10.29861 -10.25693 -10.25323 -10.24836 -10.24744
 Alpha  occ. eigenvalues --  -10.24634 -10.24502 -10.24411  -1.21138  -1.20895
 Alpha  occ. eigenvalues --   -1.15618  -1.14997  -1.14161  -1.13042  -1.12159
 Alpha  occ. eigenvalues --   -1.12001  -1.11819  -1.10296  -1.07844  -1.05098
 Alpha  occ. eigenvalues --   -1.03703  -1.03065  -1.02786  -1.02067  -0.99555
 Alpha  occ. eigenvalues --   -0.96454  -0.91815  -0.91117  -0.90167  -0.86793
 Alpha  occ. eigenvalues --   -0.86445  -0.83794  -0.82754  -0.81161  -0.80115
 Alpha  occ. eigenvalues --   -0.80040  -0.78048  -0.77071  -0.74477  -0.73518
 Alpha  occ. eigenvalues --   -0.72935  -0.72191  -0.71838  -0.71077  -0.70017
 Alpha  occ. eigenvalues --   -0.68842  -0.68387  -0.67900  -0.67385  -0.66116
 Alpha  occ. eigenvalues --   -0.65355  -0.64108  -0.63951  -0.63510  -0.63024
 Alpha  occ. eigenvalues --   -0.62347  -0.61831  -0.60804  -0.60596  -0.60033
 Alpha  occ. eigenvalues --   -0.59832  -0.59016  -0.58706  -0.58451  -0.58061
 Alpha  occ. eigenvalues --   -0.57888  -0.57443  -0.57029  -0.56599  -0.56400
 Alpha  occ. eigenvalues --   -0.55915  -0.55652  -0.54901  -0.54416  -0.54076
 Alpha  occ. eigenvalues --   -0.53469  -0.53294  -0.52525  -0.51898  -0.51770
 Alpha  occ. eigenvalues --   -0.51508  -0.51393  -0.51078  -0.50787  -0.50405
 Alpha  occ. eigenvalues --   -0.49803  -0.49406  -0.49150  -0.48980  -0.48795
 Alpha  occ. eigenvalues --   -0.48336  -0.47915  -0.47733  -0.47524  -0.47128
 Alpha  occ. eigenvalues --   -0.46761  -0.46179  -0.45899  -0.45880  -0.45728
 Alpha  occ. eigenvalues --   -0.44450  -0.43477  -0.43209  -0.43039  -0.42272
 Alpha  occ. eigenvalues --   -0.41991  -0.41421  -0.41199  -0.40079  -0.39737
 Alpha  occ. eigenvalues --   -0.39348  -0.39068  -0.38866  -0.38517  -0.38056
 Alpha  occ. eigenvalues --   -0.37613  -0.36829  -0.36395  -0.36285  -0.35755
 Alpha  occ. eigenvalues --   -0.34815  -0.34497  -0.33871  -0.31729  -0.31091
 Alpha  occ. eigenvalues --   -0.30825  -0.29933
 Alpha virt. eigenvalues --   -0.11405  -0.10156  -0.09541  -0.09425  -0.08471
 Alpha virt. eigenvalues --   -0.07363  -0.06894  -0.06628  -0.06144  -0.04494
 Alpha virt. eigenvalues --   -0.03528  -0.02370  -0.02020  -0.01661  -0.01187

 Mulliken charges:
               1
     1  N   -0.761054
     2  H    0.400103
     3  H    0.324132
     4  H    0.319255
     5  C   -0.071564
     6  H    0.167622
     7  C    0.610250
     8  C   -0.358335
     9  H    0.188568
    10  H    0.147712
    11  O   -0.521247
    12  C    0.145178
    13  C   -0.201243
    14  H    0.129883
    15  C   -0.219533
    16  H    0.170318
    17  C   -0.125124
    18  H    0.143963
    19  C   -0.138864
    20  H    0.157289
    21  C   -0.127490
    22  H    0.146234
    23  N   -0.655850
    24  H    0.363735
    25  C   -0.066762
    26  H    0.221283
    27  C    0.627147
    28  C   -0.031055
    29  H    0.184203
    30  H    0.127494
    31  O   -0.564775
    32  O   -0.616805
    33  N   -0.601459
    34  H    0.368264
    35  C   -0.071886
    36  H    0.205393
    37  C    0.644757
    38  C   -0.056046
    39  H    0.148665
    40  H    0.154993
    41  O   -0.601803
    42  O   -0.622187
    43  H    0.413791
    44  N   -0.600257
    45  H    0.411135
    46  C   -0.054538
    47  H    0.185048
    48  C    0.594468
    49  C   -0.400678
    50  H    0.223969
    51  H    0.220942
    52  O   -0.526759
    53  C    0.618010
    54  O   -0.486963
    55  O   -0.542273
    56  N   -0.621206
    57  H    0.385174
    58  C   -0.066769
    59  H    0.214144
    60  C    0.582609
    61  C   -0.269814
    62  H    0.194588
    63  H    0.136915
    64  O   -0.457549
    65  C   -0.300730
    66  H    0.179841
    67  H    0.181884
    68  C   -0.184954
    69  H    0.192450
    70  H    0.194528
    71  N   -0.589470
    72  H    0.358072
    73  N   -0.754425
    74  H    0.404239
    75  H    0.379485
    76  N   -0.779437
    77  H    0.367325
    78  H    0.414974
    79  C    0.790819
    80  O   -0.555689
    81  H    0.432208
    82  H    0.431536
 Sum of Mulliken charges =   1.00000

 Dipole moment (field-independent basis, Debye):
    X=              0.1992    Y=             14.8131    Z=            -10.2935  Tot=             18.0395
 Quadrupole moment (field-independent basis, Debye-Ang):
   XX=           -105.1714   YY=           -192.1952   ZZ=           -181.0749
   XY=             -8.3936   XZ=            -53.6684   YZ=            -35.9258

 Normal termination of Gaussian 16 at Thu May 26 21:38:01 2022.
