 Gaussian 16, Revision C.01,
 Gaussian 16:  ES64L-G16RevC.01  3-Jul-2019

 -------------------------------------------------------------------
 # B3LYP/6-31G* guess=read geom=check nosymm integral(ultrafinegrid)
 -------------------------------------------------------------------

 ------------------------------------------------------
 Candidate Structure: Conf:231 Charge calc in gas phase
 ------------------------------------------------------
 Structure from the checkpoint file:  "conf-231.chk"
 Charge =  1 Multiplicity = 1

                          Input orientation:
 ---------------------------------------------------------------------
 Center     Atomic      Atomic             Coordinates (Angstroms)
 Number     Number       Type             X           Y           Z
 ---------------------------------------------------------------------
      1          7           0       -5.704317   -2.732791   -4.556796
      2          1           0       -5.012882   -3.178159   -5.165613
      3          1           0       -5.740051   -3.271526   -3.637579
      4          1           0       -6.608380   -2.699413   -5.048247
      5          6           0       -5.275627   -1.365540   -4.079023
      6          1           0       -4.531654   -0.975787   -4.776740
      7          6           0       -4.681726   -1.672459   -2.676888
      8          6           0       -6.505751   -0.428563   -3.999967
      9          1           0       -7.144355   -0.764066   -3.174174
     10          1           0       -6.134060    0.564657   -3.726019
     11          8           0       -4.994808   -2.764648   -2.170292
     12          6           0       -7.291981   -0.385003   -5.294045
     13          6           0       -6.828431    0.350037   -6.395681
     14          1           0       -5.922191    0.945714   -6.306298
     15          6           0       -8.475184   -1.129391   -5.426879
     16          1           0       -8.875016   -1.667132   -4.568300
     17          6           0       -7.531504    0.341526   -7.599309
     18          1           0       -7.168048    0.925061   -8.440139
     19          6           0       -9.177972   -1.141514   -6.636317
     20          1           0      -10.098593   -1.711576   -6.719177
     21          6           0       -8.705358   -0.408005   -7.723631
     22          1           0       -9.252611   -0.409887   -8.661439
     23          7           0       -3.933610   -0.730467   -2.124153
     24          1           0       -3.761812    0.161922   -2.584952
     25          6           0       -3.311014   -0.823490   -0.811946
     26          1           0       -3.994858   -1.305564   -0.110184
     27          6           0       -2.953775    0.580423   -0.380195
     28          6           0       -1.948984   -1.692582   -0.815951
     29          1           0       -1.352383   -1.272455   -1.657264
     30          1           0       -2.283473   -2.701953   -1.130393
     31          8           0       -3.018938    1.534252   -1.194773
     32          8           0       -1.339515   -1.666685    0.389170
     33          7           0       -2.495225    0.633279    0.882180
     34          1           0       -2.199821   -0.318148    1.202026
     35          6           0       -1.658547    1.732330    1.349071
     36          1           0       -2.084406    2.673945    0.998359
     37          6           0       -0.214269    1.674586    0.787316
     38          6           0       -1.648691    1.773662    2.879351
     39          1           0       -2.680446    1.925894    3.230203
     40          1           0       -1.039832    2.633949    3.196680
     41          8           0        0.425096    2.732512    0.659991
     42          8           0       -1.112930    0.546343    3.339113
     43          1           0       -1.276971    0.468216    4.290445
     44          7           0        0.250647    0.451017    0.494105
     45          1           0       -0.384169   -0.422098    0.489344
     46          6           0        1.577083    0.283711   -0.047200
     47          1           0        2.256597    0.981466    0.452833
     48          6           0        1.606334    0.626135   -1.552094
     49          6           0        2.046723   -1.167553    0.206224
     50          1           0        1.235860   -1.868730   -0.010932
     51          1           0        2.895526   -1.413196   -0.445414
     52          8           0        0.590082    0.734936   -2.244949
     53          6           0        2.501121   -1.436264    1.630802
     54          8           0        2.343170   -2.476303    2.221983
     55          8           0        3.180126   -0.385054    2.161757
     56          7           0        2.851048    0.840271   -2.056282
     57          1           0        3.666427    0.647593   -1.482326
     58          6           0        3.124167    0.977482   -3.479853
     59          1           0        2.385907    0.383680   -4.031808
     60          6           0        4.505231    0.372822   -3.723253
     61          6           0        3.070251    2.430409   -4.021890
     62          1           0        3.383797    2.390375   -5.069823
     63          1           0        3.814727    3.041283   -3.494020
     64          8           0        5.271161    0.043672   -2.843817
     65          6           0        1.675364    3.079531   -3.942222
     66          1           0        0.919491    2.319021   -4.155995
     67          1           0        1.587719    3.840303   -4.725537
     68          6           0        1.364318    3.733862   -2.577436
     69          1           0        1.981105    3.312161   -1.777598
     70          1           0        1.572781    4.805361   -2.636992
     71          7           0       -0.048088    3.557226   -2.220232
     72          1           0       -0.346682    2.580198   -2.222768
     73          7           0       -0.213162    5.594191   -1.101541
     74          1           0       -0.776933    6.199865   -0.521087
     75          1           0        0.769789    5.601642   -0.866054
     76          7           0       -2.043725    4.158791   -1.206215
     77          1           0       -2.412178    3.195695   -1.296084
     78          1           0       -2.469598    4.693759   -0.461599
     79          6           0       -0.751613    4.404792   -1.473481
     80          8           0        4.780981    0.265883   -5.035251
     81          1           0        3.447648   -0.664132    3.057693
     82          1           0        5.680776   -0.106941   -5.110177
 ---------------------------------------------------------------------

 SCF Done:  E(RB3LYP) =  -2166.24866790     A.U. after    2 cycles

 Alpha  occ. eigenvalues --  -19.28501 -19.24391 -19.24244 -19.23019 -19.20982
 Alpha  occ. eigenvalues --  -19.20879 -19.20164 -19.18342 -19.17152 -19.10164
 Alpha  occ. eigenvalues --  -14.57838 -14.47957 -14.47374 -14.47039 -14.46359
 Alpha  occ. eigenvalues --  -14.44323 -14.41815 -14.39289 -10.43676 -10.41107
 Alpha  occ. eigenvalues --  -10.40979 -10.39228 -10.36864 -10.36851 -10.36498
 Alpha  occ. eigenvalues --  -10.34019 -10.33118 -10.32755 -10.32027 -10.31627
 Alpha  occ. eigenvalues --  -10.30379 -10.30351 -10.30146 -10.29834 -10.29794
 Alpha  occ. eigenvalues --  -10.29759 -10.29695 -10.29665 -10.29470 -10.28114
 Alpha  occ. eigenvalues --  -10.27769 -10.26656 -10.26018  -1.19540  -1.16860
 Alpha  occ. eigenvalues --   -1.15088  -1.12343  -1.11889  -1.11763  -1.11357
 Alpha  occ. eigenvalues --   -1.10613  -1.08754  -1.07946  -1.06041  -1.03711
 Alpha  occ. eigenvalues --   -1.01717  -1.00934  -1.00515  -1.00228  -0.97181
 Alpha  occ. eigenvalues --   -0.97007  -0.96580  -0.91947  -0.89124  -0.86381
 Alpha  occ. eigenvalues --   -0.85457  -0.85341  -0.84204  -0.82985  -0.80712
 Alpha  occ. eigenvalues --   -0.78167  -0.77980  -0.75045  -0.73879  -0.72395
 Alpha  occ. eigenvalues --   -0.71877  -0.71275  -0.70946  -0.70480  -0.70220
 Alpha  occ. eigenvalues --   -0.69527  -0.69091  -0.68523  -0.66619  -0.66184
 Alpha  occ. eigenvalues --   -0.65835  -0.65623  -0.65210  -0.63443  -0.63133
 Alpha  occ. eigenvalues --   -0.61871  -0.61316  -0.61145  -0.60291  -0.59939
 Alpha  occ. eigenvalues --   -0.59155  -0.58039  -0.57652  -0.57149  -0.56904
 Alpha  occ. eigenvalues --   -0.56528  -0.56135  -0.55742  -0.55700  -0.55274
 Alpha  occ. eigenvalues --   -0.55065  -0.54687  -0.54080  -0.53485  -0.52949
 Alpha  occ. eigenvalues --   -0.52879  -0.52732  -0.52461  -0.51992  -0.51540
 Alpha  occ. eigenvalues --   -0.51383  -0.50880  -0.50387  -0.50012  -0.49733
 Alpha  occ. eigenvalues --   -0.49418  -0.49390  -0.49235  -0.48662  -0.47996
 Alpha  occ. eigenvalues --   -0.47468  -0.46816  -0.46672  -0.46216  -0.46125
 Alpha  occ. eigenvalues --   -0.45200  -0.44944  -0.44798  -0.44176  -0.43976
 Alpha  occ. eigenvalues --   -0.43889  -0.43470  -0.43329  -0.43044  -0.42698
 Alpha  occ. eigenvalues --   -0.41440  -0.40567  -0.40099  -0.39710  -0.39137
 Alpha  occ. eigenvalues --   -0.38975  -0.37282  -0.36887  -0.36555  -0.36342
 Alpha  occ. eigenvalues --   -0.36158  -0.35641  -0.35130  -0.34786  -0.34215
 Alpha  occ. eigenvalues --   -0.33876  -0.33420  -0.31778  -0.30276  -0.30164
 Alpha  occ. eigenvalues --   -0.25400  -0.24722
 Alpha virt. eigenvalues --   -0.12145  -0.11698  -0.09314  -0.08841  -0.08587
 Alpha virt. eigenvalues --   -0.07947  -0.06419  -0.05993  -0.04555  -0.03832
 Alpha virt. eigenvalues --   -0.03522  -0.02730  -0.01700  -0.01025  -0.00900

 Mulliken charges:
               1
     1  N   -0.753203
     2  H    0.411681
     3  H    0.428691
     4  H    0.401275
     5  C   -0.111452
     6  H    0.204017
     7  C    0.659097
     8  C   -0.381558
     9  H    0.194974
    10  H    0.201083
    11  O   -0.545989
    12  C    0.139789
    13  C   -0.181075
    14  H    0.140347
    15  C   -0.227009
    16  H    0.151819
    17  C   -0.122901
    18  H    0.163096
    19  C   -0.120678
    20  H    0.166070
    21  C   -0.124485
    22  H    0.166663
    23  N   -0.600138
    24  H    0.356056
    25  C   -0.108417
    26  H    0.196222
    27  C    0.626829
    28  C    0.032829
    29  H    0.079872
    30  H    0.109636
    31  O   -0.620739
    32  O   -0.655668
    33  N   -0.598360
    34  H    0.391658
    35  C   -0.074009
    36  H    0.131996
    37  C    0.626886
    38  C   -0.034125
    39  H    0.137472
    40  H    0.144989
    41  O   -0.607762
    42  O   -0.607001
    43  H    0.408232
    44  N   -0.623497
    45  H    0.431186
    46  C   -0.069608
    47  H    0.199136
    48  C    0.626980
    49  C   -0.402443
    50  H    0.229702
    51  H    0.176454
    52  O   -0.562085
    53  C    0.600084
    54  O   -0.443709
    55  O   -0.569649
    56  N   -0.607436
    57  H    0.363122
    58  C   -0.029880
    59  H    0.195092
    60  C    0.583565
    61  C   -0.282256
    62  H    0.178877
    63  H    0.155290
    64  O   -0.456237
    65  C   -0.288680
    66  H    0.175442
    67  H    0.160259
    68  C   -0.159498
    69  H    0.200666
    70  H    0.166158
    71  N   -0.592834
    72  H    0.396014
    73  N   -0.749387
    74  H    0.360189
    75  H    0.381048
    76  N   -0.778939
    77  H    0.425445
    78  H    0.347061
    79  C    0.783398
    80  O   -0.560407
    81  H    0.415540
    82  H    0.429125
 Sum of Mulliken charges =   1.00000

 Dipole moment (field-independent basis, Debye):
    X=            -16.7886    Y=              8.3256    Z=            -21.8264  Tot=             28.7675
 Quadrupole moment (field-independent basis, Debye-Ang):
   XX=            -83.9946   YY=           -186.0824   ZZ=           -105.7145
   XY=             33.0508   XZ=             90.4673   YZ=             33.9488

 Normal termination of Gaussian 16 at Thu May 26 21:38:21 2022.
