 Gaussian 16, Revision C.01,
 Gaussian 16:  ES64L-G16RevC.01  3-Jul-2019

 -------------------------------------------------------------------
 # B3LYP/6-31G* guess=read geom=check nosymm integral(ultrafinegrid)
 -------------------------------------------------------------------

 ------------------------------------------------------
 Candidate Structure: Conf:961 Charge calc in gas phase
 ------------------------------------------------------
 Structure from the checkpoint file:  "conf-961.chk"
 Charge =  1 Multiplicity = 1

                          Input orientation:
 ---------------------------------------------------------------------
 Center     Atomic      Atomic             Coordinates (Angstroms)
 Number     Number       Type             X           Y           Z
 ---------------------------------------------------------------------
      1          7           0       -4.486170   -2.916919    4.049363
      2          1           0       -3.218575   -1.544025    3.146992
      3          1           0       -4.495019   -2.533984    4.996292
      4          1           0       -4.224400   -3.897876    4.146855
      5          6           0       -5.862825   -2.820638    3.496636
      6          1           0       -5.871249   -3.411883    2.572987
      7          6           0       -5.981543   -1.327154    3.163042
      8          6           0       -6.986130   -3.307887    4.431067
      9          1           0       -7.006185   -2.651036    5.307783
     10          1           0       -7.944563   -3.164253    3.915936
     11          8           0       -6.370821   -0.504593    3.982807
     12          6           0       -6.822471   -4.756106    4.839249
     13          6           0       -7.223465   -5.790696    3.980839
     14          1           0       -7.693978   -5.545448    3.030578
     15          6           0       -6.235401   -5.099729    6.064978
     16          1           0       -5.937132   -4.312558    6.754467
     17          6           0       -7.041439   -7.127533    4.334555
     18          1           0       -7.366190   -7.914005    3.658559
     19          6           0       -6.050887   -6.436896    6.423447
     20          1           0       -5.601286   -6.681491    7.382102
     21          6           0       -6.452035   -7.454928    5.557814
     22          1           0       -6.314382   -8.495850    5.836810
     23          7           0       -5.454544   -0.985273    1.946166
     24          1           0       -5.055812   -1.723791    1.375743
     25          6           0       -4.748662    0.274508    1.780879
     26          1           0       -5.428776    1.117621    1.943658
     27          6           0       -4.181166    0.290093    0.365485
     28          6           0       -3.572500    0.355745    2.808350
     29          1           0       -4.013085    0.483896    3.804263
     30          1           0       -2.949473    1.232729    2.598980
     31          8           0       -4.001241   -0.754326   -0.271309
     32          8           0       -2.740506   -0.782075    2.741267
     33          7           0       -3.812367    1.500514   -0.122296
     34          1           0       -3.887098    2.341806    0.438699
     35          6           0       -3.107334    1.644286   -1.393666
     36          1           0       -3.530110    0.913275   -2.091849
     37          6           0       -1.602664    1.342574   -1.198504
     38          6           0       -3.309459    3.068969   -1.918447
     39          1           0       -4.375159    3.246370   -2.088095
     40          1           0       -2.785329    3.175220   -2.879182
     41          8           0       -0.744911    2.243039   -1.288528
     42          8           0       -2.874749    4.026917   -0.968409
     43          1           0       -1.916935    3.860028   -0.877204
     44          7           0       -1.311511    0.065490   -0.897559
     45          1           0       -2.100313   -0.577727   -0.813342
     46          6           0       -0.002239   -0.360466   -0.383502
     47          1           0        0.408354    0.459856    0.213140
     48          6           0        0.977256   -0.630928   -1.548855
     49          6           0       -0.168560   -1.594622    0.498771
     50          1           0       -0.986808   -1.432774    1.214358
     51          1           0       -0.406547   -2.478168   -0.100526
     52          8           0        1.352858   -1.750584   -1.870042
     53          6           0        1.096634   -1.859721    1.285004
     54          8           0        1.999826   -1.066887    1.442812
     55          8           0        1.091712   -3.093197    1.831868
     56          7           0        1.386023    0.496668   -2.194666
     57          1           0        0.950015    1.377649   -1.929289
     58          6           0        2.220869    0.419483   -3.375675
     59          1           0        1.680810   -0.050707   -4.207876
     60          6           0        3.477275   -0.422030   -3.092847
     61          6           0        2.666558    1.845231   -3.750473
     62          1           0        3.308393    2.210558   -2.938919
     63          1           0        1.775899    2.487814   -3.773469
     64          8           0        4.233460   -0.229985   -2.171863
     65          6           0        3.411113    1.920291   -5.091226
     66          1           0        2.728472    1.716432   -5.927792
     67          1           0        4.181924    1.143622   -5.143867
     68          6           0        4.124657    3.254932   -5.319575
     69          1           0        4.825168    3.441873   -4.498405
     70          1           0        4.685103    3.230710   -6.262419
     71          7           0        3.162794    4.376554   -5.351355
     72          1           0        2.225219    4.165635   -5.671557
     73          7           0        4.703820    6.064599   -4.935111
     74          1           0        4.921596    6.950566   -4.500646
     75          1           0        5.479675    5.489575   -5.230276
     76          7           0        2.438594    6.537705   -4.922760
     77          1           0        1.486370    6.236595   -4.769424
     78          1           0        2.612758    7.532883   -4.934492
     79          6           0        3.436970    5.650617   -5.073123
     80          8           0        3.696623   -1.321650   -4.076839
     81          1           0        1.923591   -3.173669    2.336052
     82          1           0        4.497283   -1.821283   -3.825145
 ---------------------------------------------------------------------

 SCF Done:  E(RB3LYP) =  -2166.27670078     A.U. after    1 cycles

 Alpha  occ. eigenvalues --  -19.27152 -19.24558 -19.21857 -19.21651 -19.21187
 Alpha  occ. eigenvalues --  -19.20270 -19.19406 -19.18964 -19.18808 -19.17325
 Alpha  occ. eigenvalues --  -14.55336 -14.55252 -14.55086 -14.44760 -14.44479
 Alpha  occ. eigenvalues --  -14.43043 -14.41121 -14.39648 -10.51626 -10.39521
 Alpha  occ. eigenvalues --  -10.38423 -10.37924 -10.37372 -10.37130 -10.35617
 Alpha  occ. eigenvalues --  -10.34064 -10.32816 -10.32426 -10.31912 -10.31563
 Alpha  occ. eigenvalues --  -10.30921 -10.30745 -10.29957 -10.29524 -10.28511
 Alpha  occ. eigenvalues --  -10.25790 -10.24241 -10.23795 -10.23375 -10.23344
 Alpha  occ. eigenvalues --  -10.23314 -10.23288 -10.23143  -1.19991  -1.17938
 Alpha  occ. eigenvalues --   -1.15544  -1.13176  -1.12004  -1.10717  -1.09338
 Alpha  occ. eigenvalues --   -1.09201  -1.09186  -1.08971  -1.08136  -1.06742
 Alpha  occ. eigenvalues --   -1.06538  -1.01467  -1.00567  -1.00058  -0.98076
 Alpha  occ. eigenvalues --   -0.95708  -0.93503  -0.89772  -0.87735  -0.86300
 Alpha  occ. eigenvalues --   -0.84425  -0.82640  -0.82542  -0.81025  -0.79949
 Alpha  occ. eigenvalues --   -0.78695  -0.77333  -0.76725  -0.76079  -0.75099
 Alpha  occ. eigenvalues --   -0.73018  -0.72494  -0.71693  -0.69981  -0.68998
 Alpha  occ. eigenvalues --   -0.68623  -0.68171  -0.66973  -0.66593  -0.65062
 Alpha  occ. eigenvalues --   -0.64843  -0.64738  -0.63420  -0.63374  -0.62542
 Alpha  occ. eigenvalues --   -0.62349  -0.61532  -0.60313  -0.59627  -0.58933
 Alpha  occ. eigenvalues --   -0.58473  -0.57807  -0.57524  -0.56931  -0.56863
 Alpha  occ. eigenvalues --   -0.55785  -0.55387  -0.55022  -0.54627  -0.54361
 Alpha  occ. eigenvalues --   -0.53430  -0.53257  -0.52815  -0.52362  -0.51976
 Alpha  occ. eigenvalues --   -0.51597  -0.51493  -0.51062  -0.50620  -0.50362
 Alpha  occ. eigenvalues --   -0.49991  -0.49787  -0.49258  -0.48774  -0.48586
 Alpha  occ. eigenvalues --   -0.48492  -0.48218  -0.47790  -0.47310  -0.46815
 Alpha  occ. eigenvalues --   -0.46492  -0.46297  -0.46148  -0.45984  -0.45584
 Alpha  occ. eigenvalues --   -0.45379  -0.45081  -0.44357  -0.44080  -0.43862
 Alpha  occ. eigenvalues --   -0.43680  -0.43498  -0.42834  -0.42531  -0.41419
 Alpha  occ. eigenvalues --   -0.41084  -0.40093  -0.39029  -0.38879  -0.38184
 Alpha  occ. eigenvalues --   -0.38152  -0.37057  -0.36741  -0.35851  -0.35364
 Alpha  occ. eigenvalues --   -0.35269  -0.34643  -0.33499  -0.33203  -0.32926
 Alpha  occ. eigenvalues --   -0.32707  -0.32571  -0.31532  -0.30786  -0.30120
 Alpha  occ. eigenvalues --   -0.29340  -0.28485
 Alpha virt. eigenvalues --   -0.15461  -0.11177  -0.08075  -0.07706  -0.07091
 Alpha virt. eigenvalues --   -0.06349  -0.05793  -0.05722  -0.04748  -0.04644
 Alpha virt. eigenvalues --   -0.04464  -0.04166  -0.03669  -0.02882  -0.01127

 Mulliken charges:
               1
     1  N   -0.749946
     2  H    0.436395
     3  H    0.324579
     4  H    0.333847
     5  C   -0.074563
     6  H    0.151459
     7  C    0.620797
     8  C   -0.364477
     9  H    0.172371
    10  H    0.161176
    11  O   -0.516694
    12  C    0.163618
    13  C   -0.182608
    14  H    0.126771
    15  C   -0.198128
    16  H    0.125378
    17  C   -0.127006
    18  H    0.138421
    19  C   -0.126798
    20  H    0.138508
    21  C   -0.129937
    22  H    0.139391
    23  N   -0.605276
    24  H    0.352520
    25  C   -0.060961
    26  H    0.179394
    27  C    0.645367
    28  C   -0.058477
    29  H    0.176425
    30  H    0.139114
    31  O   -0.555343
    32  O   -0.650493
    33  N   -0.604705
    34  H    0.354675
    35  C   -0.085607
    36  H    0.193170
    37  C    0.633419
    38  C   -0.047833
    39  H    0.169656
    40  H    0.130224
    41  O   -0.586337
    42  O   -0.635174
    43  H    0.414796
    44  N   -0.620581
    45  H    0.394661
    46  C   -0.059463
    47  H    0.202383
    48  C    0.662552
    49  C   -0.421655
    50  H    0.236124
    51  H    0.201291
    52  O   -0.520021
    53  C    0.608597
    54  O   -0.467548
    55  O   -0.565463
    56  N   -0.652559
    57  H    0.369902
    58  C    0.032969
    59  H    0.172668
    60  C    0.594739
    61  C   -0.313077
    62  H    0.183072
    63  H    0.135078
    64  O   -0.449712
    65  C   -0.320107
    66  H    0.168572
    67  H    0.202075
    68  C   -0.162198
    69  H    0.192391
    70  H    0.196260
    71  N   -0.595393
    72  H    0.369612
    73  N   -0.751489
    74  H    0.391583
    75  H    0.397831
    76  N   -0.759735
    77  H    0.390267
    78  H    0.390295
    79  C    0.834583
    80  O   -0.565964
    81  H    0.415226
    82  H    0.421129
 Sum of Mulliken charges =   1.00000

 Dipole moment (field-independent basis, Debye):
    X=             10.9739    Y=             20.9634    Z=            -21.6173  Tot=             32.0499
 Quadrupole moment (field-independent basis, Debye-Ang):
   XX=           -171.4432   YY=            -74.7664   ZZ=           -107.6777
   XY=            102.7582   XZ=            -87.8687   YZ=           -148.0363

 Normal termination of Gaussian 16 at Thu May 26 21:39:17 2022.
