 Gaussian 16, Revision C.01,
 Gaussian 16:  ES64L-G16RevC.01  3-Jul-2019

 -------------------------------------------------------------------
 # B3LYP/6-31G* guess=read geom=check nosymm integral(ultrafinegrid)
 -------------------------------------------------------------------

 ------------------------------------------------------
 Candidate Structure: Conf:772 Charge calc in gas phase
 ------------------------------------------------------
 Structure from the checkpoint file:  "conf-772.chk"
 Charge =  1 Multiplicity = 1

                          Input orientation:
 ---------------------------------------------------------------------
 Center     Atomic      Atomic             Coordinates (Angstroms)
 Number     Number       Type             X           Y           Z
 ---------------------------------------------------------------------
      1          7           0       -6.556420   -2.880477   -3.163206
      2          1           0       -6.782306   -3.825611   -3.481052
      3          1           0       -5.903911   -2.942519   -2.325237
      4          1           0       -7.430777   -2.377067   -2.961221
      5          6           0       -5.676178   -2.124771   -4.142168
      6          1           0       -5.800822   -2.566536   -5.130719
      7          6           0       -4.243917   -2.321321   -3.592340
      8          6           0       -6.067099   -0.627861   -4.148834
      9          1           0       -5.734342   -0.172244   -3.208078
     10          1           0       -5.474930   -0.172665   -4.948683
     11          8           0       -4.216577   -2.598311   -2.319858
     12          6           0       -7.550078   -0.400083   -4.349423
     13          6           0       -8.141308   -0.539539   -5.614753
     14          1           0       -7.518116   -0.760014   -6.478943
     15          6           0       -8.372046   -0.098740   -3.251267
     16          1           0       -7.922321    0.055135   -2.271316
     17          6           0       -9.516486   -0.379575   -5.777572
     18          1           0       -9.957847   -0.479324   -6.765162
     19          6           0       -9.752813    0.057122   -3.413626
     20          1           0      -10.372694    0.301955   -2.555827
     21          6           0      -10.326413   -0.084965   -4.676392
     22          1           0      -11.397137    0.041544   -4.806686
     23          7           0       -3.301938   -2.128793   -4.452316
     24          1           0       -2.453882   -3.335129   -6.148747
     25          6           0       -1.899860   -2.235962   -4.016309
     26          1           0       -1.763134   -3.120473   -3.376056
     27          6           0       -1.514745   -0.990227   -3.208494
     28          6           0       -1.042075   -2.393680   -5.277546
     29          1           0       -0.000509   -2.596246   -5.009350
     30          1           0       -1.074378   -1.454186   -5.848130
     31          8           0       -0.880780   -0.041174   -3.689784
     32          8           0       -1.498162   -3.489960   -6.043881
     33          7           0       -1.979906   -0.999737   -1.927975
     34          1           0       -2.643738   -1.757798   -1.747277
     35          6           0       -2.141233    0.229160   -1.159618
     36          1           0       -2.388401    1.052722   -1.837465
     37          6           0       -0.854631    0.647414   -0.432521
     38          6           0       -3.323489    0.063871   -0.174150
     39          1           0       -3.437329    0.994556    0.388124
     40          1           0       -3.089342   -0.737786    0.543866
     41          8           0       -0.557007    1.844222   -0.304013
     42          8           0       -4.543761   -0.175501   -0.843983
     43          1           0       -4.505406   -1.069449   -1.245173
     44          7           0       -0.114576   -0.364291    0.069811
     45          1           0       -0.346281   -1.310737   -0.216312
     46          6           0        1.241245   -0.172623    0.569759
     47          1           0        1.308255    0.866415    0.900219
     48          6           0        2.212112   -0.446081   -0.600239
     49          6           0        1.547409   -1.096060    1.769835
     50          1           0        2.521240   -0.835260    2.190960
     51          1           0        0.782249   -0.926186    2.535761
     52          8           0        2.085600   -1.457232   -1.283154
     53          6           0        1.593935   -2.579803    1.441985
     54          8           0        2.553629   -3.294250    1.586418
     55          8           0        0.392724   -3.037870    0.989336
     56          7           0        3.146986    0.511201   -0.843012
     57          1           0        3.321919    1.245008   -0.165125
     58          6           0        4.167211    0.347034   -1.869207
     59          1           0        4.278501   -0.722192   -2.072769
     60          6           0        5.471746    0.903459   -1.310466
     61          6           0        3.806544    1.091480   -3.183174
     62          1           0        4.639251    0.977657   -3.887339
     63          1           0        3.730686    2.161102   -2.945242
     64          8           0        5.538085    1.636459   -0.346713
     65          6           0        2.495849    0.596807   -3.808939
     66          1           0        1.740176    0.452293   -3.035948
     67          1           0        2.640891   -0.391018   -4.261172
     68          6           0        1.920150    1.512512   -4.899640
     69          1           0        2.596421    1.579313   -5.755935
     70          1           0        0.975397    1.094403   -5.262284
     71          7           0        1.709847    2.910692   -4.463872
     72          1           0        2.211292    3.635102   -4.958697
     73          7           0       -0.041219    2.539640   -2.963240
     74          1           0       -0.346883    2.650434   -1.990032
     75          1           0       -0.282132    1.622442   -3.362313
     76          7           0        1.061343    4.571221   -2.988617
     77          1           0        1.946810    5.049799   -3.064645
     78          1           0        0.397153    4.934436   -2.319860
     79          6           0        0.907661    3.313268   -3.465772
     80          8           0        6.531494    0.523781   -2.042827
     81          1           0        0.525611   -3.981887    0.777088
     82          1           0        7.324114    0.931991   -1.643267
 ---------------------------------------------------------------------

 SCF Done:  E(RB3LYP) =  -2166.28194007     A.U. after    2 cycles

 Alpha  occ. eigenvalues --  -19.29086 -19.27335 -19.23621 -19.22300 -19.22059
 Alpha  occ. eigenvalues --  -19.21855 -19.21360 -19.21029 -19.20712 -19.19134
 Alpha  occ. eigenvalues --  -14.54698 -14.49917 -14.49772 -14.46982 -14.45652
 Alpha  occ. eigenvalues --  -14.45554 -14.44408 -14.38402 -10.45480 -10.41612
 Alpha  occ. eigenvalues --  -10.39814 -10.38712 -10.38042 -10.38013 -10.35469
 Alpha  occ. eigenvalues --  -10.35001 -10.33734 -10.33544 -10.33334 -10.32532
 Alpha  occ. eigenvalues --  -10.32297 -10.29406 -10.29245 -10.29186 -10.29176
 Alpha  occ. eigenvalues --  -10.29098 -10.28539 -10.28346 -10.28053 -10.27825
 Alpha  occ. eigenvalues --  -10.27739 -10.27653 -10.27436  -1.20128  -1.17938
 Alpha  occ. eigenvalues --   -1.14060  -1.13620  -1.13010  -1.12607  -1.12008
 Alpha  occ. eigenvalues --   -1.11232  -1.09912  -1.09066  -1.07613  -1.06851
 Alpha  occ. eigenvalues --   -1.03566  -1.02740  -1.02066  -1.01437  -1.00939
 Alpha  occ. eigenvalues --   -0.96473  -0.94562  -0.90233  -0.88818  -0.88359
 Alpha  occ. eigenvalues --   -0.85660  -0.85131  -0.83288  -0.83057  -0.80417
 Alpha  occ. eigenvalues --   -0.79815  -0.77807  -0.75712  -0.75170  -0.73611
 Alpha  occ. eigenvalues --   -0.71822  -0.71433  -0.70625  -0.70021  -0.69685
 Alpha  occ. eigenvalues --   -0.68919  -0.68522  -0.68279  -0.67967  -0.67335
 Alpha  occ. eigenvalues --   -0.67212  -0.67015  -0.66903  -0.63530  -0.63093
 Alpha  occ. eigenvalues --   -0.62428  -0.62222  -0.60448  -0.59823  -0.59781
 Alpha  occ. eigenvalues --   -0.59168  -0.58778  -0.58429  -0.58045  -0.57926
 Alpha  occ. eigenvalues --   -0.57432  -0.57247  -0.56386  -0.55886  -0.55457
 Alpha  occ. eigenvalues --   -0.55058  -0.54472  -0.54287  -0.54243  -0.53874
 Alpha  occ. eigenvalues --   -0.53619  -0.53060  -0.52931  -0.52142  -0.52082
 Alpha  occ. eigenvalues --   -0.51703  -0.51117  -0.50690  -0.50587  -0.50570
 Alpha  occ. eigenvalues --   -0.50238  -0.49710  -0.49287  -0.49125  -0.48981
 Alpha  occ. eigenvalues --   -0.48205  -0.47977  -0.47735  -0.47179  -0.46483
 Alpha  occ. eigenvalues --   -0.46345  -0.45880  -0.45666  -0.45446  -0.45285
 Alpha  occ. eigenvalues --   -0.45079  -0.44508  -0.44169  -0.43646  -0.42837
 Alpha  occ. eigenvalues --   -0.42639  -0.41326  -0.41170  -0.40160  -0.39406
 Alpha  occ. eigenvalues --   -0.38885  -0.38742  -0.37719  -0.37337  -0.37108
 Alpha  occ. eigenvalues --   -0.36322  -0.36150  -0.35572  -0.35141  -0.34716
 Alpha  occ. eigenvalues --   -0.34103  -0.33963  -0.33694  -0.33613  -0.33236
 Alpha  occ. eigenvalues --   -0.31768  -0.31136
 Alpha virt. eigenvalues --   -0.10331  -0.09777  -0.09425  -0.08926  -0.08546
 Alpha virt. eigenvalues --   -0.07811  -0.07122  -0.06468  -0.06150  -0.06090
 Alpha virt. eigenvalues --   -0.05075  -0.02609  -0.01076  -0.00385  -0.00054

 Mulliken charges:
               1
     1  N   -0.755640
     2  H    0.401983
     3  H    0.414337
     4  H    0.394139
     5  C   -0.069001
     6  H    0.193002
     7  C    0.554332
     8  C   -0.394419
     9  H    0.194061
    10  H    0.201772
    11  O   -0.674052
    12  C    0.136683
    13  C   -0.182136
    14  H    0.143097
    15  C   -0.230668
    16  H    0.154886
    17  C   -0.125017
    18  H    0.156547
    19  C   -0.122594
    20  H    0.155866
    21  C   -0.127010
    22  H    0.157407
    23  N   -0.516868
    24  H    0.396012
    25  C   -0.103307
    26  H    0.162416
    27  C    0.635561
    28  C   -0.013131
    29  H    0.144262
    30  H    0.129683
    31  O   -0.565396
    32  O   -0.624420
    33  N   -0.641961
    34  H    0.380582
    35  C   -0.057897
    36  H    0.169954
    37  C    0.634175
    38  C   -0.064649
    39  H    0.177118
    40  H    0.144705
    41  O   -0.577502
    42  O   -0.648228
    43  H    0.420325
    44  N   -0.574876
    45  H    0.378218
    46  C   -0.097856
    47  H    0.183235
    48  C    0.648979
    49  C   -0.350006
    50  H    0.195552
    51  H    0.198736
    52  O   -0.525627
    53  C    0.588535
    54  O   -0.434283
    55  O   -0.578334
    56  N   -0.616606
    57  H    0.353519
    58  C   -0.045896
    59  H    0.216358
    60  C    0.585186
    61  C   -0.265990
    62  H    0.173813
    63  H    0.127691
    64  O   -0.462450
    65  C   -0.280732
    66  H    0.179300
    67  H    0.181101
    68  C   -0.174132
    69  H    0.176059
    70  H    0.210694
    71  N   -0.601843
    72  H    0.357687
    73  N   -0.815003
    74  H    0.398089
    75  H    0.439801
    76  N   -0.762212
    77  H    0.368810
    78  H    0.380887
    79  C    0.787130
    80  O   -0.554986
    81  H    0.423219
    82  H    0.429219
 Sum of Mulliken charges =   1.00000

 Dipole moment (field-independent basis, Debye):
    X=             -9.8326    Y=              5.7559    Z=            -14.4920  Tot=             18.4344
 Quadrupole moment (field-independent basis, Debye-Ang):
   XX=            -70.7595   YY=           -196.8059   ZZ=           -189.1162
   XY=             71.2022   XZ=             35.7507   YZ=            -26.9713

 Normal termination of Gaussian 16 at Thu May 26 21:39:39 2022.
