 Gaussian 16, Revision C.01,
 Gaussian 16:  ES64L-G16RevC.01  3-Jul-2019

 -------------------------------------------------------------------
 # B3LYP/6-31G* guess=read geom=check nosymm integral(ultrafinegrid)
 -------------------------------------------------------------------

 ------------------------------------------------------
 Candidate Structure: Conf:112 Charge calc in gas phase
 ------------------------------------------------------
 Structure from the checkpoint file:  "conf-112.chk"
 Charge =  1 Multiplicity = 1

                          Input orientation:
 ---------------------------------------------------------------------
 Center     Atomic      Atomic             Coordinates (Angstroms)
 Number     Number       Type             X           Y           Z
 ---------------------------------------------------------------------
      1          7           0       -7.165671    2.934517    1.116175
      2          1           0       -5.475823    3.409486    2.341786
      3          1           0       -7.101426    3.791522    0.565095
      4          1           0       -8.141200    2.860663    1.402934
      5          6           0       -6.815241    1.783510    0.245293
      6          1           0       -7.185969    0.883813    0.750022
      7          6           0       -5.285857    1.795951    0.292722
      8          6           0       -7.380391    1.834443   -1.186911
      9          1           0       -6.955636    2.709304   -1.692205
     10          1           0       -7.018120    0.952683   -1.731481
     11          8           0       -4.630893    2.523176   -0.476825
     12          6           0       -8.893786    1.880377   -1.209459
     13          6           0       -9.576085    3.094461   -1.365119
     14          1           0       -9.011751    4.011725   -1.521708
     15          6           0       -9.644818    0.708338   -1.037996
     16          1           0       -9.134115   -0.246906   -0.931099
     17          6           0      -10.971748    3.139210   -1.347312
     18          1           0      -11.483168    4.088848   -1.477886
     19          6           0      -11.038857    0.748792   -1.019241
     20          1           0      -11.604046   -0.170402   -0.892881
     21          6           0      -11.706451    1.966112   -1.172024
     22          1           0      -12.792104    1.997966   -1.162583
     23          7           0       -4.735307    1.094852    1.306423
     24          1           0       -5.334504    0.511642    1.881266
     25          6           0       -3.502678    1.515099    1.959890
     26          1           0       -2.893383    2.010062    1.203956
     27          6           0       -2.779315    0.281105    2.517319
     28          6           0       -3.861686    2.536765    3.068603
     29          1           0       -2.942266    2.905910    3.536478
     30          1           0       -4.449338    2.028521    3.845368
     31          8           0       -3.404238   -0.591414    3.113412
     32          8           0       -4.544083    3.658811    2.535445
     33          7           0       -1.451573    0.304555    2.268430
     34          1           0       -1.053257    1.087068    1.755158
     35          6           0       -0.439969   -0.703140    2.542176
     36          1           0       -0.205284   -0.753546    3.614758
     37          6           0        0.800309   -0.190543    1.761581
     38          6           0       -0.882086   -2.106291    2.088467
     39          1           0       -0.969500   -2.125753    0.994734
     40          1           0       -1.851509   -2.327954    2.543556
     41          8           0        0.819864    0.962393    1.316209
     42          8           0        0.121518   -3.020637    2.546000
     43          1           0       -0.139764   -3.915941    2.281829
     44          7           0        1.812008   -1.065848    1.558765
     45          1           0        1.594173   -2.037811    1.782163
     46          6           0        2.714558   -0.785955    0.450537
     47          1           0        3.143430    0.206578    0.603542
     48          6           0        1.876024   -0.764834   -0.861541
     49          6           0        3.848481   -1.819930    0.416075
     50          1           0        4.195139   -2.017844    1.437912
     51          1           0        3.511516   -2.782963    0.013017
     52          8           0        0.812308   -1.373929   -0.942656
     53          6           0        5.045462   -1.346573   -0.384749
     54          8           0        5.141114   -0.272723   -0.948559
     55          8           0        6.027154   -2.261280   -0.381802
     56          7           0        2.377591   -0.000304   -1.864785
     57          1           0        3.333025    0.333889   -1.773244
     58          6           0        1.670602    0.121142   -3.130200
     59          1           0        0.956378   -0.712598   -3.149994
     60          6           0        2.588992   -0.070923   -4.336624
     61          6           0        0.881050    1.439932   -3.265779
     62          1           0        0.384284    1.420722   -4.241990
     63          1           0        1.587255    2.281104   -3.297943
     64          8           0        2.369148    0.391134   -5.432359
     65          6           0       -0.140837    1.657320   -2.139029
     66          1           0        0.374430    1.793639   -1.180451
     67          1           0       -0.766785    0.765106   -2.018884
     68          6           0       -1.036952    2.869390   -2.437168
     69          1           0       -0.439333    3.753306   -2.686364
     70          1           0       -1.665986    2.671282   -3.310990
     71          7           0       -1.944396    3.229390   -1.336395
     72          1           0       -2.843980    2.749399   -1.253061
     73          7           0       -0.576756    4.864624   -0.385524
     74          1           0       -0.475402    5.668821    0.216041
     75          1           0        0.270828    4.423335   -0.708790
     76          7           0       -2.785305    4.632799    0.295556
     77          1           0       -3.662225    4.113283    0.249306
     78          1           0       -2.617113    5.110779    1.169984
     79          6           0       -1.761483    4.225852   -0.470008
     80          8           0        3.660625   -0.844095   -4.056622
     81          1           0        6.769911   -1.893528   -0.898463
     82          1           0        4.160994   -0.929471   -4.891267
 ---------------------------------------------------------------------

 SCF Done:  E(RB3LYP) =  -2166.31071615     A.U. after    3 cycles

 Alpha  occ. eigenvalues --  -19.28813 -19.28058 -19.24731 -19.23881 -19.23798
 Alpha  occ. eigenvalues --  -19.23754 -19.22214 -19.22058 -19.20853 -19.20462
 Alpha  occ. eigenvalues --  -14.50729 -14.49731 -14.48869 -14.47202 -14.45265
 Alpha  occ. eigenvalues --  -14.44640 -14.44603 -14.43428 -10.46352 -10.41992
 Alpha  occ. eigenvalues --  -10.40502 -10.40354 -10.38607 -10.38360 -10.37507
 Alpha  occ. eigenvalues --  -10.34441 -10.33387 -10.33364 -10.33043 -10.32979
 Alpha  occ. eigenvalues --  -10.32900 -10.32717 -10.32136 -10.30276 -10.28738
 Alpha  occ. eigenvalues --  -10.28390 -10.27741 -10.27202 -10.26182 -10.26091
 Alpha  occ. eigenvalues --  -10.25909 -10.25882 -10.25680  -1.20054  -1.18954
 Alpha  occ. eigenvalues --   -1.15284  -1.14685  -1.14211  -1.12658  -1.12117
 Alpha  occ. eigenvalues --   -1.11541  -1.11041  -1.11008  -1.09917  -1.04139
 Alpha  occ. eigenvalues --   -1.03611  -1.02817  -1.02237  -1.01603  -1.01333
 Alpha  occ. eigenvalues --   -0.99745  -0.92592  -0.90279  -0.89009  -0.87605
 Alpha  occ. eigenvalues --   -0.85875  -0.85150  -0.84042  -0.81394  -0.80330
 Alpha  occ. eigenvalues --   -0.79896  -0.77982  -0.76406  -0.75708  -0.74807
 Alpha  occ. eigenvalues --   -0.72105  -0.71876  -0.71520  -0.70493  -0.69567
 Alpha  occ. eigenvalues --   -0.68644  -0.68331  -0.67846  -0.67594  -0.66900
 Alpha  occ. eigenvalues --   -0.65785  -0.65444  -0.64497  -0.63857  -0.63185
 Alpha  occ. eigenvalues --   -0.62427  -0.62181  -0.60862  -0.60672  -0.59583
 Alpha  occ. eigenvalues --   -0.59555  -0.59092  -0.58588  -0.58284  -0.57761
 Alpha  occ. eigenvalues --   -0.57475  -0.56949  -0.56586  -0.56485  -0.56043
 Alpha  occ. eigenvalues --   -0.55540  -0.55381  -0.55114  -0.54644  -0.54185
 Alpha  occ. eigenvalues --   -0.53783  -0.53441  -0.53149  -0.52759  -0.52513
 Alpha  occ. eigenvalues --   -0.52166  -0.51436  -0.51025  -0.50421  -0.50217
 Alpha  occ. eigenvalues --   -0.50131  -0.49802  -0.49749  -0.48894  -0.48788
 Alpha  occ. eigenvalues --   -0.48470  -0.48264  -0.48083  -0.47641  -0.47372
 Alpha  occ. eigenvalues --   -0.47015  -0.46756  -0.46410  -0.45680  -0.44980
 Alpha  occ. eigenvalues --   -0.44737  -0.44386  -0.43519  -0.43261  -0.43009
 Alpha  occ. eigenvalues --   -0.42769  -0.41375  -0.41203  -0.41175  -0.41007
 Alpha  occ. eigenvalues --   -0.40042  -0.39100  -0.38614  -0.38221  -0.37590
 Alpha  occ. eigenvalues --   -0.37464  -0.36768  -0.36393  -0.36125  -0.35748
 Alpha  occ. eigenvalues --   -0.35616  -0.34572  -0.34082  -0.33746  -0.33594
 Alpha  occ. eigenvalues --   -0.32018  -0.31482
 Alpha virt. eigenvalues --   -0.10663  -0.10289  -0.09002  -0.08112  -0.07575
 Alpha virt. eigenvalues --   -0.07487  -0.07197  -0.07054  -0.06527  -0.05959
 Alpha virt. eigenvalues --   -0.03199  -0.02128  -0.02010  -0.01271  -0.00657

 Mulliken charges:
               1
     1  N   -0.745832
     2  H    0.434732
     3  H    0.325078
     4  H    0.343226
     5  C   -0.072951
     6  H    0.161836
     7  C    0.640949
     8  C   -0.366479
     9  H    0.164745
    10  H    0.161833
    11  O   -0.582265
    12  C    0.164319
    13  C   -0.197573
    14  H    0.122738
    15  C   -0.183771
    16  H    0.128251
    17  C   -0.125989
    18  H    0.146107
    19  C   -0.126141
    20  H    0.147432
    21  C   -0.127942
    22  H    0.149291
    23  N   -0.567952
    24  H    0.357714
    25  C   -0.103455
    26  H    0.145595
    27  C    0.644171
    28  C   -0.038797
    29  H    0.156294
    30  H    0.165736
    31  O   -0.530270
    32  O   -0.658821
    33  N   -0.653462
    34  H    0.358357
    35  C   -0.023358
    36  H    0.203992
    37  C    0.618916
    38  C   -0.083163
    39  H    0.171564
    40  H    0.195733
    41  O   -0.558590
    42  O   -0.631204
    43  H    0.419807
    44  N   -0.611406
    45  H    0.375855
    46  C   -0.040664
    47  H    0.196735
    48  C    0.620103
    49  C   -0.398859
    50  H    0.215686
    51  H    0.208313
    52  O   -0.538866
    53  C    0.608852
    54  O   -0.475741
    55  O   -0.548955
    56  N   -0.617560
    57  H    0.375579
    58  C   -0.060662
    59  H    0.217913
    60  C    0.587176
    61  C   -0.261933
    62  H    0.179002
    63  H    0.143126
    64  O   -0.451480
    65  C   -0.290386
    66  H    0.173587
    67  H    0.172042
    68  C   -0.176926
    69  H    0.170203
    70  H    0.193553
    71  N   -0.611862
    72  H    0.404592
    73  N   -0.760103
    74  H    0.376805
    75  H    0.385204
    76  N   -0.767870
    77  H    0.418405
    78  H    0.368656
    79  C    0.784322
    80  O   -0.564025
    81  H    0.427124
    82  H    0.424066
 Sum of Mulliken charges =   1.00000

 Dipole moment (field-independent basis, Debye):
    X=             -7.2993    Y=              9.0282    Z=             -0.5286  Tot=             11.6218
 Quadrupole moment (field-independent basis, Debye-Ang):
   XX=           -104.4088   YY=           -174.2118   ZZ=           -246.5808
   XY=            -43.4622   XZ=             -9.8502   YZ=              1.8300

 Normal termination of Gaussian 16 at Thu May 26 21:38:40 2022.
