 Gaussian 16, Revision C.01,
 Gaussian 16:  ES64L-G16RevC.01  3-Jul-2019

 ----------------------------------------------------------------------
 # B3LYP/6-31G* empiricaldispersion=gd3 guess=read geom=check nosymm in
 tegral(ultrafinegrid)
 ----------------------------------------------------------------------

 ------------------------------------------------------
 Candidate Structure: Conf:474 Charge calc in gas phase
 ------------------------------------------------------
 Structure from the checkpoint file:  "conf-474.chk"
 Charge =  1 Multiplicity = 1

                          Input orientation:
 ---------------------------------------------------------------------
 Center     Atomic      Atomic             Coordinates (Angstroms)
 Number     Number       Type             X           Y           Z
 ---------------------------------------------------------------------
      1          7           0       -5.660413    0.607810    1.290835
      2          1           0       -5.683463    1.142726    0.396644
      3          1           0       -5.775301   -0.393446    1.037833
      4          1           0       -6.415267    0.929801    1.902695
      5          6           0       -4.290418    0.700456    1.923315
      6          1           0       -3.919178    1.711062    1.763072
      7          6           0       -3.473171   -0.330588    1.111575
      8          6           0       -4.384948    0.399390    3.433846
      9          1           0       -4.856919    1.263774    3.915304
     10          1           0       -5.036482   -0.469650    3.590394
     11          8           0       -4.066166   -1.275722    0.583280
     12          6           0       -3.036686    0.102135    4.111277
     13          1           0       -2.654745   -0.880246    3.815909
     14          1           0       -3.176990    0.059636    5.197507
     15          6           0       -1.958071    1.122345    3.793027
     16          8           0       -2.153907    2.163035    3.188239
     17          8           0       -0.754281    0.707387    4.193710
     18          7           0       -2.162884   -0.078149    1.064481
     19          1           0       -1.825279    0.817565    1.410225
     20          6           0       -1.220446   -0.698315    0.143092
     21          1           0       -1.386085   -1.778225    0.126956
     22          6           0        0.169891   -0.343230    0.687569
     23          6           0       -1.423231   -0.123992   -1.305416
     24          1           0       -2.190001   -0.721421   -1.806321
     25          1           0       -0.492340   -0.275438   -1.864859
     26          8           0        0.331452    0.687738    1.359531
     27          6           0       -1.824245    1.325579   -1.263088
     28          6           0       -1.040612    2.405349   -0.917356
     29          1           0        0.019483    2.477037   -0.687001
     30          6           0       -3.177590    1.815922   -1.355270
     31          6           0       -3.146611    3.208739   -1.042904
     32          6           0       -4.413156    1.221534   -1.672809
     33          1           0       -4.466737    0.167735   -1.931632
     34          7           0       -1.833743    3.531525   -0.794091
     35          1           0       -1.482793    4.445379   -0.546102
     36          6           0       -5.515094    3.377257   -1.312508
     37          1           0       -6.429497    3.962953   -1.308557
     38          6           0       -4.306240    3.994995   -1.011239
     39          1           0       -4.262532    5.052753   -0.767572
     40          6           0       -5.570790    2.002606   -1.646195
     41          1           0       -6.520923    1.566391   -1.947728
     42          7           0        1.169013   -1.165102    0.343822
     43          1           0        1.024852   -1.977633   -0.249838
     44          6           0        2.572689   -0.898792    0.662421
     45          1           0        2.611662   -0.400442    1.635893
     46          6           0        3.163512    0.025512   -0.430401
     47          6           0        3.315796   -2.251365    0.693539
     48          1           0        4.388980   -2.031867    0.776459
     49          8           0        3.900339   -0.427243   -1.314742
     50          6           0        2.880000   -3.138223    1.851333
     51          1           0        3.092867   -2.658335    2.812664
     52          1           0        3.418281   -4.088575    1.804476
     53          1           0        1.806781   -3.351577    1.799654
     54          8           0        3.041569   -2.945644   -0.522092
     55          1           0        3.479759   -2.407617   -1.212478
     56          7           0        2.765031    1.310998   -0.374669
     57          1           0        2.138210    1.622301    0.362380
     58          6           0        3.140811    2.299232   -1.381953
     59          1           0        4.207038    2.201542   -1.596372
     60          6           0        2.858942    3.724919   -0.882019
     61          6           0        2.335068    2.050129   -2.688922
     62          1           0        1.273931    1.980151   -2.405107
     63          1           0        2.627847    1.063280   -3.060294
     64          8           0        3.594241    4.635034   -1.298162
     65          6           0        2.532978    3.117309   -3.794059
     66          1           0        3.391982    3.751003   -3.551798
     67          1           0        2.753026    2.625987   -4.749394
     68          6           0        1.298434    4.002261   -4.041098
     69          1           0        1.457317    4.680482   -4.886273
     70          1           0        0.438667    3.384669   -4.319910
     71          7           0        0.863464    4.788058   -2.875851
     72          1           0        0.445680    4.242866   -2.129761
     73          7           0        2.048368    6.758720   -3.289229
     74          1           0        2.676023    7.455493   -2.912062
     75          1           0        2.193399    6.499590   -4.254288
     76          7           0        1.186334    6.286109   -1.156424
     77          1           0        1.368632    5.469187   -0.508151
     78          1           0        1.656859    7.132862   -0.856705
     79          6           0        1.404274    5.933573   -2.441282
     80          8           0        1.787184    3.867813   -0.180914
     81          1           0       -0.083958    1.301942    3.796492
 ---------------------------------------------------------------------

 SCF Done:  E(RB3LYP) =  -2054.07473736     A.U. after    1 cycles

 Alpha  occ. eigenvalues --  -19.29637 -19.25357 -19.24723 -19.22462 -19.20786
 Alpha  occ. eigenvalues --  -19.19108 -19.16565 -19.15041 -14.58571 -14.48288
 Alpha  occ. eigenvalues --  -14.48137 -14.47923 -14.47222 -14.46366 -14.44208
 Alpha  occ. eigenvalues --  -14.42673 -10.43145 -10.43098 -10.42269 -10.39468
 Alpha  occ. eigenvalues --  -10.38837 -10.36063 -10.34841 -10.33764 -10.33477
 Alpha  occ. eigenvalues --  -10.32718 -10.32684 -10.32073 -10.31451 -10.31285
 Alpha  occ. eigenvalues --  -10.31115 -10.30241 -10.29889 -10.29763 -10.29495
 Alpha  occ. eigenvalues --  -10.29446 -10.29267 -10.28537 -10.28451 -10.26678
 Alpha  occ. eigenvalues --  -10.26177 -10.24408  -1.21030  -1.17719  -1.14292
 Alpha  occ. eigenvalues --   -1.12674  -1.12131  -1.11836  -1.11007  -1.08904
 Alpha  occ. eigenvalues --   -1.08252  -1.08201  -1.05438  -1.02454  -1.01632
 Alpha  occ. eigenvalues --   -1.00272  -0.99200  -0.98529  -0.94804  -0.93935
 Alpha  occ. eigenvalues --   -0.91017  -0.88043  -0.87408  -0.85888  -0.84851
 Alpha  occ. eigenvalues --   -0.84186  -0.82264  -0.82058  -0.79176  -0.78940
 Alpha  occ. eigenvalues --   -0.76800  -0.75334  -0.73542  -0.72977  -0.72812
 Alpha  occ. eigenvalues --   -0.71729  -0.71193  -0.69758  -0.69440  -0.68664
 Alpha  occ. eigenvalues --   -0.68584  -0.68175  -0.67155  -0.66212  -0.65370
 Alpha  occ. eigenvalues --   -0.64521  -0.64136  -0.64078  -0.63055  -0.62060
 Alpha  occ. eigenvalues --   -0.60720  -0.60397  -0.60010  -0.59675  -0.59049
 Alpha  occ. eigenvalues --   -0.58631  -0.58108  -0.57977  -0.57585  -0.57272
 Alpha  occ. eigenvalues --   -0.56641  -0.56383  -0.55828  -0.55308  -0.55206
 Alpha  occ. eigenvalues --   -0.54894  -0.53991  -0.53609  -0.53063  -0.52883
 Alpha  occ. eigenvalues --   -0.52377  -0.52031  -0.51621  -0.51410  -0.51213
 Alpha  occ. eigenvalues --   -0.50826  -0.50766  -0.50349  -0.49613  -0.49184
 Alpha  occ. eigenvalues --   -0.49102  -0.48723  -0.48532  -0.47909  -0.47711
 Alpha  occ. eigenvalues --   -0.47432  -0.47384  -0.46590  -0.45937  -0.45320
 Alpha  occ. eigenvalues --   -0.45173  -0.44599  -0.44384  -0.44029  -0.43888
 Alpha  occ. eigenvalues --   -0.43574  -0.42580  -0.42343  -0.42202  -0.41230
 Alpha  occ. eigenvalues --   -0.40082  -0.39786  -0.38535  -0.38395  -0.38304
 Alpha  occ. eigenvalues --   -0.38225  -0.37021  -0.36422  -0.36165  -0.34223
 Alpha  occ. eigenvalues --   -0.33379  -0.32817  -0.32119  -0.31650  -0.31037
 Alpha  occ. eigenvalues --   -0.30768  -0.28726
 Alpha virt. eigenvalues --   -0.12232  -0.11882  -0.10020  -0.09612  -0.08944
 Alpha virt. eigenvalues --   -0.08495  -0.08097  -0.05269  -0.04868  -0.04098
 Alpha virt. eigenvalues --   -0.02877  -0.02518  -0.01958  -0.01304  -0.00778

 Mulliken charges:
               1
     1  N   -0.760599
     2  H    0.414546
     3  H    0.414445
     4  H    0.403567
     5  C   -0.126007
     6  H    0.245754
     7  C    0.643597
     8  C   -0.284471
     9  H    0.186590
    10  H    0.173966
    11  O   -0.545080
    12  C   -0.372099
    13  H    0.209350
    14  H    0.216290
    15  C    0.598544
    16  O   -0.483566
    17  O   -0.542776
    18  N   -0.617570
    19  H    0.398850
    20  C   -0.055174
    21  H    0.192889
    22  C    0.651032
    23  C   -0.378777
    24  H    0.183063
    25  H    0.180757
    26  O   -0.575158
    27  C    0.028615
    28  C   -0.006307
    29  H    0.228337
    30  C    0.075521
    31  C    0.319171
    32  C   -0.241329
    33  H    0.161952
    34  N   -0.700665
    35  H    0.352064
    36  C   -0.152355
    37  H    0.154388
    38  C   -0.160737
    39  H    0.155830
    40  C   -0.227230
    41  H    0.154280
    42  N   -0.600977
    43  H    0.356922
    44  C   -0.082820
    45  H    0.178841
    46  C    0.634921
    47  C    0.110596
    48  H    0.157318
    49  O   -0.548103
    50  C   -0.448922
    51  H    0.150094
    52  H    0.180373
    53  H    0.142403
    54  O   -0.650858
    55  H    0.423047
    56  N   -0.634174
    57  H    0.374689
    58  C   -0.007234
    59  H    0.183970
    60  C    0.582047
    61  C   -0.305442
    62  H    0.121315
    63  H    0.181480
    64  O   -0.571990
    65  C   -0.273572
    66  H    0.193273
    67  H    0.157100
    68  C   -0.183044
    69  H    0.155989
    70  H    0.180337
    71  N   -0.578957
    72  H    0.367275
    73  N   -0.752178
    74  H    0.377141
    75  H    0.371839
    76  N   -0.762826
    77  H    0.400785
    78  H    0.341024
    79  C    0.771446
    80  O   -0.648816
    81  H    0.442189
 Sum of Mulliken charges =   1.00000

 Dipole moment (field-independent basis, Debye):
    X=            -16.1340    Y=             11.9307    Z=              0.4014  Tot=             20.0701
 Quadrupole moment (field-independent basis, Debye-Ang):
   XX=           -147.4860   YY=           -166.3217   ZZ=           -190.2538
   XY=             -4.1905   XZ=            -35.8636   YZ=            -40.9489

 Normal termination of Gaussian 16 at Fri May 13 15:52:00 2022.
