 Gaussian 16, Revision C.01,
 Gaussian 16:  ES64L-G16RevC.01  3-Jul-2019

 ----------------------------------------------------------------------
 # B3LYP/6-31G* empiricaldispersion=gd3 guess=read geom=check nosymm in
 tegral(ultrafinegrid)
 ----------------------------------------------------------------------

 ------------------------------------------------------
 Candidate Structure: Conf:304 Charge calc in gas phase
 ------------------------------------------------------
 Structure from the checkpoint file:  "conf-304.chk"
 Charge =  1 Multiplicity = 1

                          Input orientation:
 ---------------------------------------------------------------------
 Center     Atomic      Atomic             Coordinates (Angstroms)
 Number     Number       Type             X           Y           Z
 ---------------------------------------------------------------------
      1          7           0       -2.131412   -2.241480    3.310889
      2          1           0       -2.683007   -2.858586    2.702273
      3          1           0       -1.210876   -2.134112    2.822349
      4          1           0       -2.043879   -2.622220    4.272455
      5          6           0       -2.832151   -0.911192    3.391651
      6          1           0       -3.726133   -1.085651    3.997804
      7          6           0       -3.218307   -0.578969    1.922706
      8          6           0       -1.931374    0.168769    4.037064
      9          1           0       -1.273226    0.599940    3.275055
     10          1           0       -2.587045    0.978850    4.376626
     11          8           0       -3.172562   -1.477162    1.079417
     12          6           0       -1.042621   -0.267535    5.228036
     13          1           0       -0.572141    0.624177    5.647054
     14          1           0       -0.237687   -0.924201    4.876531
     15          6           0       -1.784981   -1.017317    6.317274
     16          8           0       -2.297487   -2.117502    6.162127
     17          8           0       -1.834972   -0.352246    7.471030
     18          7           0       -3.487400    0.714966    1.635532
     19          1           0       -3.351939    1.381836    2.387791
     20          6           0       -3.005518    1.257029    0.339501
     21          1           0       -3.277520    0.553092   -0.448263
     22          6           0       -1.483706    1.307499    0.561899
     23          6           0       -3.525471    2.656661   -0.010045
     24          1           0       -3.348933    3.338142    0.829198
     25          1           0       -4.603516    2.619923   -0.202478
     26          8           0       -1.033765    1.994367    1.485314
     27          6           0       -2.706261    3.071406   -1.196040
     28          6           0       -1.572589    3.852058   -1.138309
     29          1           0       -1.155717    4.441383   -0.332880
     30          6           0       -2.744911    2.495610   -2.514591
     31          6           0       -1.595713    2.977754   -3.204288
     32          6           0       -3.611133    1.604879   -3.173164
     33          1           0       -4.500929    1.228426   -2.673073
     34          7           0       -0.919013    3.809892   -2.341076
     35          1           0        0.012554    4.180421   -2.469704
     36          6           0       -2.178925    1.715636   -5.143549
     37          1           0       -1.979885    1.399451   -6.163547
     38          6           0       -1.305042    2.597868   -4.517683
     39          1           0       -0.422076    2.976086   -5.025838
     40          6           0       -3.321766    1.224083   -4.478160
     41          1           0       -3.986042    0.540699   -4.999335
     42          7           0       -0.715311    0.446033   -0.149052
     43          1           0       -1.078990    0.024316   -0.995331
     44          6           0        0.651082    0.154142    0.267701
     45          1           0        0.768632    0.709479    1.202966
     46          6           0        1.710493    0.671734   -0.733445
     47          6           0        0.808437   -1.355082    0.568174
     48          1           0        0.850386   -1.908435   -0.378520
     49          8           0        2.599227   -0.064465   -1.156906
     50          6           0        2.043506   -1.661824    1.396011
     51          1           0        2.936359   -1.360861    0.846065
     52          1           0        2.095856   -2.733906    1.606976
     53          1           0        2.007895   -1.118879    2.348730
     54          8           0       -0.341099   -1.818533    1.322450
     55          1           0       -1.134690   -1.709048    0.769782
     56          7           0        1.587559    1.974734   -1.080975
     57          1           0        0.858589    2.531018   -0.651667
     58          6           0        2.707360    2.683927   -1.725772
     59          1           0        3.624139    2.306000   -1.261494
     60          6           0        2.561034    4.197539   -1.362420
     61          6           0        2.798814    2.391636   -3.236531
     62          1           0        1.947748    2.843094   -3.782419
     63          1           0        2.739060    1.307110   -3.369541
     64          8           0        3.265555    4.662060   -0.479313
     65          6           0        4.132296    2.867743   -3.856803
     66          1           0        4.933335    2.717919   -3.122753
     67          1           0        4.389494    2.238286   -4.719864
     68          6           0        4.209289    4.336901   -4.297536
     69          1           0        3.909178    5.012660   -3.497681
     70          1           0        5.243775    4.591962   -4.552677
     71          7           0        3.401441    4.639980   -5.481978
     72          1           0        3.665658    4.195490   -6.351825
     73          7           0        1.574743    5.627763   -4.398863
     74          1           0        0.898866    6.381756   -4.468964
     75          1           0        1.728477    5.273101   -3.327542
     76          7           0        1.731470    5.602437   -6.735748
     77          1           0        2.389012    5.756689   -7.489060
     78          1           0        0.920235    6.201964   -6.785510
     79          6           0        2.237816    5.300897   -5.503558
     80          8           0        1.622944    4.807544   -2.029341
     81          1           0       -2.319441   -0.897195    8.123107
 ---------------------------------------------------------------------

 SCF Done:  E(RB3LYP) =  -2054.04709528     A.U. after    1 cycles

 Alpha  occ. eigenvalues --  -19.32313 -19.27332 -19.26706 -19.26314 -19.22050
 Alpha  occ. eigenvalues --  -19.19127 -19.16729 -19.15263 -14.56698 -14.48879
 Alpha  occ. eigenvalues --  -14.48118 -14.47972 -14.47125 -14.44653 -14.43107
 Alpha  occ. eigenvalues --  -14.42820 -10.45368 -10.43503 -10.43314 -10.39590
 Alpha  occ. eigenvalues --  -10.39355 -10.36438 -10.34054 -10.33999 -10.33849
 Alpha  occ. eigenvalues --  -10.33759 -10.33406 -10.32305 -10.31671 -10.28396
 Alpha  occ. eigenvalues --  -10.28352 -10.28327 -10.28167 -10.26755 -10.25902
 Alpha  occ. eigenvalues --  -10.25497 -10.25350 -10.25334 -10.25249 -10.25134
 Alpha  occ. eigenvalues --  -10.24991 -10.24666  -1.23549  -1.18508  -1.14534
 Alpha  occ. eigenvalues --   -1.14379  -1.13369  -1.11985  -1.11479  -1.10940
 Alpha  occ. eigenvalues --   -1.09184  -1.05547  -1.04155  -1.03013  -1.01891
 Alpha  occ. eigenvalues --   -1.01144  -0.99030  -0.98514  -0.94097  -0.90729
 Alpha  occ. eigenvalues --   -0.89941  -0.87614  -0.87159  -0.87005  -0.83477
 Alpha  occ. eigenvalues --   -0.82176  -0.80169  -0.79771  -0.79124  -0.78147
 Alpha  occ. eigenvalues --   -0.75477  -0.74430  -0.73267  -0.72968  -0.72323
 Alpha  occ. eigenvalues --   -0.71387  -0.70481  -0.69665  -0.69351  -0.68752
 Alpha  occ. eigenvalues --   -0.68498  -0.67537  -0.66061  -0.65791  -0.65319
 Alpha  occ. eigenvalues --   -0.64409  -0.63463  -0.63333  -0.62469  -0.62226
 Alpha  occ. eigenvalues --   -0.61555  -0.61263  -0.60575  -0.60271  -0.59616
 Alpha  occ. eigenvalues --   -0.59529  -0.59102  -0.58815  -0.57746  -0.56671
 Alpha  occ. eigenvalues --   -0.56413  -0.56188  -0.55553  -0.54960  -0.54421
 Alpha  occ. eigenvalues --   -0.53721  -0.53488  -0.53105  -0.52810  -0.52404
 Alpha  occ. eigenvalues --   -0.51718  -0.51551  -0.51078  -0.50804  -0.50259
 Alpha  occ. eigenvalues --   -0.50201  -0.49663  -0.49641  -0.49331  -0.48911
 Alpha  occ. eigenvalues --   -0.48750  -0.48128  -0.47738  -0.47620  -0.47172
 Alpha  occ. eigenvalues --   -0.46867  -0.46372  -0.46111  -0.45909  -0.45607
 Alpha  occ. eigenvalues --   -0.45298  -0.44725  -0.44491  -0.44277  -0.43802
 Alpha  occ. eigenvalues --   -0.42735  -0.41967  -0.41338  -0.41140  -0.40955
 Alpha  occ. eigenvalues --   -0.40350  -0.40216  -0.39914  -0.39566  -0.38965
 Alpha  occ. eigenvalues --   -0.38503  -0.37032  -0.36201  -0.35630  -0.34201
 Alpha  occ. eigenvalues --   -0.33200  -0.32452  -0.32034  -0.31294  -0.28814
 Alpha  occ. eigenvalues --   -0.28436  -0.26929
 Alpha virt. eigenvalues --   -0.13508  -0.12364  -0.08619  -0.08360  -0.07999
 Alpha virt. eigenvalues --   -0.07116  -0.06208  -0.04867  -0.04183  -0.03586
 Alpha virt. eigenvalues --   -0.03102  -0.02430  -0.01570  -0.01361  -0.00799

 Mulliken charges:
               1
     1  N   -0.775665
     2  H    0.412975
     3  H    0.436683
     4  H    0.424285
     5  C   -0.114181
     6  H    0.230202
     7  C    0.628544
     8  C   -0.343073
     9  H    0.235395
    10  H    0.190168
    11  O   -0.530711
    12  C   -0.383087
    13  H    0.223377
    14  H    0.193814
    15  C    0.604442
    16  O   -0.485018
    17  O   -0.526335
    18  N   -0.574714
    19  H    0.353654
    20  C   -0.057840
    21  H    0.190994
    22  C    0.620466
    23  C   -0.353589
    24  H    0.164821
    25  H    0.172492
    26  O   -0.551562
    27  C    0.002231
    28  C   -0.009426
    29  H    0.178961
    30  C    0.074572
    31  C    0.305068
    32  C   -0.223683
    33  H    0.124006
    34  N   -0.698641
    35  H    0.386177
    36  C   -0.153771
    37  H    0.131847
    38  C   -0.167783
    39  H    0.124607
    40  C   -0.141927
    41  H    0.133497
    42  N   -0.617023
    43  H    0.355914
    44  C   -0.092724
    45  H    0.202302
    46  C    0.631874
    47  C    0.130801
    48  H    0.161853
    49  O   -0.528424
    50  C   -0.470586
    51  H    0.213537
    52  H    0.164208
    53  H    0.136632
    54  O   -0.698397
    55  H    0.431412
    56  N   -0.629694
    57  H    0.360854
    58  C    0.014703
    59  H    0.170150
    60  C    0.530080
    61  C   -0.283390
    62  H    0.128382
    63  H    0.174964
    64  O   -0.481801
    65  C   -0.279430
    66  H    0.173333
    67  H    0.142040
    68  C   -0.171765
    69  H    0.209873
    70  H    0.179456
    71  N   -0.587808
    72  H    0.349670
    73  N   -0.803271
    74  H    0.344565
    75  H    0.481846
    76  N   -0.754254
    77  H    0.358635
    78  H    0.363016
    79  C    0.773576
    80  O   -0.674085
    81  H    0.436703
 Sum of Mulliken charges =   1.00000

 Dipole moment (field-independent basis, Debye):
    X=             -4.9774    Y=              4.3973    Z=             -1.2855  Tot=              6.7648
 Quadrupole moment (field-independent basis, Debye-Ang):
   XX=           -210.4868   YY=           -185.9501   ZZ=            -59.1281
   XY=             21.5478   XZ=            -76.6584   YZ=           -103.1116

 Normal termination of Gaussian 16 at Fri May 13 15:51:53 2022.
