 Gaussian 16, Revision C.01,
 Gaussian 16:  ES64L-G16RevC.01  3-Jul-2019

 ----------------------------------------------------------------------
 # B3LYP/6-31G* empiricaldispersion=gd3 guess=read geom=check nosymm in
 tegral(ultrafinegrid)
 ----------------------------------------------------------------------

 ------------------------------------------------------
 Candidate Structure: Conf:950 Charge calc in gas phase
 ------------------------------------------------------
 Structure from the checkpoint file:  "conf-950.chk"
 Charge =  1 Multiplicity = 1

                          Input orientation:
 ---------------------------------------------------------------------
 Center     Atomic      Atomic             Coordinates (Angstroms)
 Number     Number       Type             X           Y           Z
 ---------------------------------------------------------------------
      1          7           0       -6.229080    0.283220    3.340439
      2          1           0       -6.872335    0.663746    2.602853
      3          1           0       -5.970506   -0.675477    3.020989
      4          1           0       -6.694583    0.264500    4.251172
      5          6           0       -4.917697    1.038128    3.341199
      6          1           0       -5.141952    2.096276    3.213178
      7          6           0       -4.220936    0.440448    2.095227
      8          6           0       -4.149270    0.770208    4.641219
      9          1           0       -4.733526    1.139682    5.494051
     10          1           0       -4.035433   -0.314313    4.758649
     11          8           0       -4.442898   -0.750489    1.849512
     12          6           0       -2.739579    1.399898    4.672901
     13          1           0       -2.147547    1.031777    3.827696
     14          1           0       -2.241426    1.098282    5.595829
     15          6           0       -2.731724    2.917292    4.645625
     16          8           0       -2.420343    3.640382    5.555037
     17          8           0       -3.136583    3.398079    3.426816
     18          7           0       -3.477696    1.269422    1.361477
     19          1           0       -3.309114    2.227271    1.665204
     20          6           0       -3.157255    0.989691   -0.033987
     21          1           0       -3.007600   -0.086302   -0.141116
     22          6           0       -1.894335    1.814697   -0.336656
     23          6           0       -4.329051    1.483358   -0.949265
     24          1           0       -4.163106    1.084844   -1.956786
     25          1           0       -4.249210    2.574030   -1.009401
     26          8           0       -1.850268    2.978823    0.072753
     27          6           0       -5.684321    1.104247   -0.432948
     28          6           0       -6.492068    1.896092    0.327388
     29          1           0       -6.375020    2.937860    0.596067
     30          6           0       -6.319806   -0.200117   -0.502573
     31          6           0       -7.513537   -0.130370    0.246793
     32          6           0       -5.964932   -1.408745   -1.115772
     33          1           0       -5.040901   -1.492987   -1.680074
     34          7           0       -7.582268    1.152563    0.845311
     35          1           0       -8.488893    1.605219    0.923776
     36          6           0       -8.016199   -2.400951   -0.251126
     37          1           0       -8.668978   -3.265393   -0.176708
     38          6           0       -8.377495   -1.214974    0.386747
     39          1           0       -9.299974   -1.140262    0.956701
     40          6           0       -6.820756   -2.497554   -0.987528
     41          1           0       -6.565012   -3.440198   -1.461580
     42          7           0       -0.938295    1.193868   -1.035408
     43          1           0       -1.034657    0.232264   -1.357262
     44          6           0        0.356577    1.771562   -1.358562
     45          1           0        0.222282    2.760607   -1.809528
     46          6           0        1.017386    0.797661   -2.344735
     47          6           0        1.246168    1.984632   -0.076120
     48          1           0        0.636416    2.614326    0.582542
     49          8           0        0.494496   -0.294066   -2.596895
     50          6           0        1.580679    0.670185    0.630644
     51          1           0        0.675483    0.092535    0.850287
     52          1           0        2.095734    0.887061    1.571443
     53          1           0        2.257552    0.065334    0.019959
     54          8           0        2.393795    2.727969   -0.419160
     55          1           0        3.157123    2.097376   -0.576004
     56          7           0        2.211272    1.208027   -2.837073
     57          1           0        2.572254    2.036301   -2.368078
     58          6           0        3.252596    0.229009   -3.170253
     59          1           0        2.825678   -0.762710   -2.987391
     60          6           0        4.512342    0.398483   -2.224004
     61          6           0        3.689168    0.311520   -4.630154
     62          1           0        4.443952   -0.470043   -4.768106
     63          1           0        4.209035    1.268296   -4.783470
     64          8           0        5.542934   -0.142027   -2.652231
     65          6           0        2.545679    0.176092   -5.636959
     66          1           0        1.921299   -0.693040   -5.398512
     67          1           0        1.871048    1.040069   -5.540469
     68          6           0        3.055489    0.007891   -7.080572
     69          1           0        3.377600   -1.022160   -7.247946
     70          1           0        2.293462    0.234128   -7.834498
     71          7           0        4.251224    0.830049   -7.386563
     72          1           0        5.142885    0.400329   -7.171910
     73          7           0        3.125175    2.860657   -7.378612
     74          1           0        3.085962    3.834084   -7.643754
     75          1           0        2.339152    2.477543   -6.872334
     76          7           0        5.393555    2.800923   -7.838977
     77          1           0        6.234137    2.280962   -8.050277
     78          1           0        5.516393    3.773589   -7.593792
     79          6           0        4.257151    2.154400   -7.510755
     80          8           0        4.325179    1.042064   -1.150004
     81          1           0       -3.028433    4.368873    3.443196
 ---------------------------------------------------------------------

 SCF Done:  E(RB3LYP) =  -2053.99701132     A.U. after    1 cycles

 Alpha  occ. eigenvalues --  -19.30258 -19.24096 -19.24059 -19.18812 -19.16927
 Alpha  occ. eigenvalues --  -19.15414 -19.09263 -19.08157 -14.57608 -14.51488
 Alpha  occ. eigenvalues --  -14.51394 -14.51053 -14.48927 -14.46960 -14.42949
 Alpha  occ. eigenvalues --  -14.39153 -10.47620 -10.42336 -10.41131 -10.38608
 Alpha  occ. eigenvalues --  -10.36280 -10.33903 -10.33497 -10.33387 -10.32933
 Alpha  occ. eigenvalues --  -10.32260 -10.31962 -10.31373 -10.29216 -10.29109
 Alpha  occ. eigenvalues --  -10.28600 -10.28386 -10.27977 -10.27826 -10.27814
 Alpha  occ. eigenvalues --  -10.27424 -10.27290 -10.27260 -10.27181 -10.24501
 Alpha  occ. eigenvalues --  -10.23937 -10.20681  -1.20531  -1.16780  -1.16132
 Alpha  occ. eigenvalues --   -1.11829  -1.11776  -1.10873  -1.08414  -1.07738
 Alpha  occ. eigenvalues --   -1.05165  -1.04423  -1.03898  -1.03602  -1.01983
 Alpha  occ. eigenvalues --   -0.99230  -0.95994  -0.93653  -0.93545  -0.93498
 Alpha  occ. eigenvalues --   -0.90507  -0.88281  -0.86777  -0.84574  -0.83017
 Alpha  occ. eigenvalues --   -0.82453  -0.81684  -0.80495  -0.78264  -0.78208
 Alpha  occ. eigenvalues --   -0.76242  -0.74940  -0.73794  -0.72919  -0.72567
 Alpha  occ. eigenvalues --   -0.71551  -0.71045  -0.69932  -0.69455  -0.69072
 Alpha  occ. eigenvalues --   -0.68859  -0.67339  -0.66392  -0.65898  -0.64948
 Alpha  occ. eigenvalues --   -0.64367  -0.64025  -0.62922  -0.62457  -0.62037
 Alpha  occ. eigenvalues --   -0.61498  -0.60260  -0.58928  -0.58420  -0.58051
 Alpha  occ. eigenvalues --   -0.57733  -0.57602  -0.57430  -0.57161  -0.56253
 Alpha  occ. eigenvalues --   -0.55589  -0.55417  -0.54764  -0.54270  -0.53818
 Alpha  occ. eigenvalues --   -0.53699  -0.52727  -0.52627  -0.52371  -0.51507
 Alpha  occ. eigenvalues --   -0.51433  -0.50988  -0.50740  -0.50312  -0.49792
 Alpha  occ. eigenvalues --   -0.49075  -0.48958  -0.48678  -0.48514  -0.47884
 Alpha  occ. eigenvalues --   -0.47771  -0.47545  -0.46409  -0.46153  -0.45665
 Alpha  occ. eigenvalues --   -0.45331  -0.44924  -0.44373  -0.44107  -0.43897
 Alpha  occ. eigenvalues --   -0.43286  -0.42683  -0.42606  -0.42218  -0.41606
 Alpha  occ. eigenvalues --   -0.40914  -0.40405  -0.39931  -0.39458  -0.39294
 Alpha  occ. eigenvalues --   -0.38728  -0.38673  -0.38144  -0.37407  -0.36583
 Alpha  occ. eigenvalues --   -0.36235  -0.34295  -0.33675  -0.32883  -0.32410
 Alpha  occ. eigenvalues --   -0.31059  -0.31047  -0.30452  -0.28458  -0.24511
 Alpha  occ. eigenvalues --   -0.23749  -0.22388
 Alpha virt. eigenvalues --   -0.12061  -0.11236  -0.10989  -0.09903  -0.08401
 Alpha virt. eigenvalues --   -0.07589  -0.07503  -0.05928  -0.04018  -0.03825
 Alpha virt. eigenvalues --   -0.03139  -0.03068  -0.02906  -0.02694  -0.02357

 Mulliken charges:
               1
     1  N   -0.772153
     2  H    0.438455
     3  H    0.422317
     4  H    0.398067
     5  C   -0.100803
     6  H    0.206653
     7  C    0.638543
     8  C   -0.302949
     9  H    0.178470
    10  H    0.192156
    11  O   -0.537697
    12  C   -0.360930
    13  H    0.209059
    14  H    0.214698
    15  C    0.580239
    16  O   -0.413280
    17  O   -0.586711
    18  N   -0.608490
    19  H    0.390431
    20  C   -0.059588
    21  H    0.189838
    22  C    0.636517
    23  C   -0.363794
    24  H    0.175982
    25  H    0.180273
    26  O   -0.554773
    27  C    0.103510
    28  C   -0.075433
    29  H    0.164957
    30  C    0.143521
    31  C    0.220029
    32  C   -0.188919
    33  H    0.145000
    34  N   -0.721631
    35  H    0.354034
    36  C   -0.142663
    37  H    0.153795
    38  C   -0.188058
    39  H    0.139997
    40  C   -0.133359
    41  H    0.153288
    42  N   -0.621119
    43  H    0.356579
    44  C   -0.060745
    45  H    0.173565
    46  C    0.576932
    47  C    0.150382
    48  H    0.144288
    49  O   -0.557052
    50  C   -0.486787
    51  H    0.117222
    52  H    0.163827
    53  H    0.189932
    54  O   -0.680416
    55  H    0.457699
    56  N   -0.599992
    57  H    0.336472
    58  C   -0.089236
    59  H    0.173800
    60  C    0.591159
    61  C   -0.260345
    62  H    0.167545
    63  H    0.110078
    64  O   -0.570919
    65  C   -0.300473
    66  H    0.190882
    67  H    0.138990
    68  C   -0.183851
    69  H    0.198948
    70  H    0.183043
    71  N   -0.571563
    72  H    0.375800
    73  N   -0.751554
    74  H    0.381025
    75  H    0.396359
    76  N   -0.755956
    77  H    0.385103
    78  H    0.383204
    79  C    0.811446
    80  O   -0.617824
    81  H    0.434953
 Sum of Mulliken charges =   1.00000

 Dipole moment (field-independent basis, Debye):
    X=            -20.5683    Y=              9.0662    Z=            -13.8964  Tot=             26.4266
 Quadrupole moment (field-independent basis, Debye-Ang):
   XX=            -59.8463   YY=           -210.2520   ZZ=              2.2054
   XY=             13.6427   XZ=           -176.8683   YZ=            -61.7856

 Normal termination of Gaussian 16 at Fri May 13 15:51:52 2022.
