 Gaussian 16, Revision C.01,
 Gaussian 16:  ES64L-G16RevC.01  3-Jul-2019

 ----------------------------------------------------------------------
 # B3LYP/6-31G* empiricaldispersion=gd3 guess=read geom=check nosymm in
 tegral(ultrafinegrid)
 ----------------------------------------------------------------------

 ------------------------------------------------------
 Candidate Structure: Conf:879 Charge calc in gas phase
 ------------------------------------------------------
 Structure from the checkpoint file:  "conf-879.chk"
 Charge =  1 Multiplicity = 1

                          Input orientation:
 ---------------------------------------------------------------------
 Center     Atomic      Atomic             Coordinates (Angstroms)
 Number     Number       Type             X           Y           Z
 ---------------------------------------------------------------------
      1          7           0       -6.177744    0.533444    3.719190
      2          1           0       -6.737391    0.952399    2.949398
      3          1           0       -5.942254   -0.449393    3.443306
      4          1           0       -6.720231    0.559493    4.585687
      5          6           0       -4.824250    1.198236    3.834954
      6          1           0       -4.944898    2.227600    3.492965
      7          6           0       -3.969740    0.366363    2.849521
      8          6           0       -4.293966    1.156024    5.271022
      9          1           0       -3.344617    1.701108    5.287212
     10          1           0       -4.965667    1.724413    5.925948
     11          8           0       -4.283015   -0.822713    2.696321
     12          6           0       -4.076375   -0.251616    5.836439
     13          1           0       -3.374352   -0.831027    5.227591
     14          1           0       -4.999244   -0.846196    5.859820
     15          6           0       -3.541177   -0.176598    7.255183
     16          8           0       -3.312432    0.850948    7.852084
     17          8           0       -3.353926   -1.408786    7.766119
     18          7           0       -2.978672    1.007035    2.240744
     19          1           0       -2.726037    1.970593    2.459779
     20          6           0       -2.175209    0.451861    1.156827
     21          1           0       -2.053657   -0.620777    1.328153
     22          6           0       -0.842963    1.216301    1.187468
     23          6           0       -2.855729    0.700707   -0.226689
     24          1           0       -2.211047    0.271959   -0.999701
     25          1           0       -2.852228    1.780973   -0.407777
     26          8           0       -0.821937    2.368473    1.627095
     27          6           0       -4.246951    0.147439   -0.280533
     28          6           0       -4.614729   -1.127349   -0.632451
     29          1           0       -4.010516   -1.928556   -1.035607
     30          6           0       -5.442339    0.787683    0.205442
     31          6           0       -6.495894   -0.175474    0.148241
     32          6           0       -5.724896    2.068832    0.709070
     33          1           0       -4.946706    2.826665    0.740633
     34          7           0       -5.957448   -1.326005   -0.375835
     35          1           0       -6.468466   -2.170378   -0.585061
     36          6           0       -8.035108    1.376423    1.118221
     37          1           0       -9.034854    1.631129    1.458435
     38          6           0       -7.788948    0.102849    0.602249
     39          1           0       -8.578596   -0.641557    0.549933
     40          6           0       -7.011888    2.355675    1.164121
     41          1           0       -7.244726    3.350025    1.535571
     42          7           0        0.202342    0.538239    0.692316
     43          1           0        0.050502   -0.379196    0.283168
     44          6           0        1.404143    1.168034    0.170461
     45          1           0        1.630426    2.044785    0.785331
     46          6           0        1.067215    1.614437   -1.288265
     47          6           0        2.531181    0.101153    0.235772
     48          1           0        3.454651    0.531244   -0.177804
     49          8           0       -0.099081    1.834396   -1.620032
     50          6           0        2.827951   -0.334865    1.668551
     51          1           0        3.132015    0.515737    2.290057
     52          1           0        3.633643   -1.073997    1.658174
     53          1           0        1.945004   -0.796954    2.120731
     54          8           0        2.114172   -1.020026   -0.517704
     55          1           0        2.504809   -0.930852   -1.435562
     56          7           0        2.118544    1.705394   -2.142603
     57          1           0        2.968758    1.237794   -1.832040
     58          6           0        1.945686    1.359804   -3.558932
     59          1           0        0.889065    1.123209   -3.721730
     60          6           0        2.799976    0.061817   -3.864093
     61          6           0        2.354711    2.494021   -4.494779
     62          1           0        2.293262    2.100946   -5.514810
     63          1           0        3.407733    2.750962   -4.309952
     64          8           0        2.857513   -0.252967   -5.057113
     65          6           0        1.483897    3.740018   -4.320538
     66          1           0        0.432408    3.494069   -4.517769
     67          1           0        1.548313    4.082458   -3.278495
     68          6           0        1.935279    4.853442   -5.260751
     69          1           0        2.985676    5.107564   -5.066853
     70          1           0        1.838394    4.531235   -6.304327
     71          7           0        1.103982    6.064222   -5.072016
     72          1           0        0.528881    6.086595   -4.238370
     73          7           0        2.015803    7.250498   -6.842262
     74          1           0        1.874689    7.896391   -7.605732
     75          1           0        2.766087    6.581070   -6.936759
     76          7           0        0.185277    8.103485   -5.712476
     77          1           0       -0.575610    8.000260   -5.056598
     78          1           0        0.346349    9.028874   -6.084050
     79          6           0        1.105193    7.128935   -5.863206
     80          8           0        3.339175   -0.481175   -2.845305
     81          1           0       -3.000848   -1.298536    8.669900
 ---------------------------------------------------------------------

 SCF Done:  E(RB3LYP) =  -2053.99703756     A.U. after    1 cycles

 Alpha  occ. eigenvalues --  -19.28058 -19.23728 -19.22685 -19.18368 -19.15789
 Alpha  occ. eigenvalues --  -19.15180 -19.09241 -19.08045 -14.57002 -14.52697
 Alpha  occ. eigenvalues --  -14.52676 -14.52329 -14.47148 -14.47022 -14.41767
 Alpha  occ. eigenvalues --  -14.38060 -10.48890 -10.41081 -10.40861 -10.38132
 Alpha  occ. eigenvalues --  -10.35470 -10.34428 -10.32462 -10.31962 -10.31902
 Alpha  occ. eigenvalues --  -10.31738 -10.30833 -10.30666 -10.29252 -10.28935
 Alpha  occ. eigenvalues --  -10.28843 -10.28682 -10.28101 -10.27516 -10.27467
 Alpha  occ. eigenvalues --  -10.27231 -10.27001 -10.26985 -10.26807 -10.23909
 Alpha  occ. eigenvalues --  -10.23222 -10.20957  -1.19096  -1.17343  -1.16347
 Alpha  occ. eigenvalues --   -1.11242  -1.10309  -1.10277  -1.07273  -1.07121
 Alpha  occ. eigenvalues --   -1.06337  -1.05625  -1.03626  -1.03415  -1.01880
 Alpha  occ. eigenvalues --   -0.98358  -0.95296  -0.94033  -0.93217  -0.92634
 Alpha  occ. eigenvalues --   -0.89433  -0.89003  -0.86572  -0.84221  -0.83447
 Alpha  occ. eigenvalues --   -0.82215  -0.81526  -0.80305  -0.78724  -0.77303
 Alpha  occ. eigenvalues --   -0.75798  -0.75288  -0.74302  -0.72637  -0.71994
 Alpha  occ. eigenvalues --   -0.71481  -0.70443  -0.70118  -0.69352  -0.68835
 Alpha  occ. eigenvalues --   -0.67958  -0.66590  -0.65904  -0.65802  -0.65169
 Alpha  occ. eigenvalues --   -0.64249  -0.63842  -0.63222  -0.62601  -0.61183
 Alpha  occ. eigenvalues --   -0.60426  -0.59784  -0.59568  -0.58459  -0.58372
 Alpha  occ. eigenvalues --   -0.58164  -0.57402  -0.56978  -0.56476  -0.56120
 Alpha  occ. eigenvalues --   -0.55715  -0.55228  -0.54680  -0.54477  -0.53320
 Alpha  occ. eigenvalues --   -0.52939  -0.52634  -0.51962  -0.51512  -0.51021
 Alpha  occ. eigenvalues --   -0.50727  -0.50469  -0.50286  -0.49436  -0.48802
 Alpha  occ. eigenvalues --   -0.48481  -0.48054  -0.47750  -0.47567  -0.47021
 Alpha  occ. eigenvalues --   -0.46797  -0.46596  -0.46255  -0.45817  -0.45695
 Alpha  occ. eigenvalues --   -0.44581  -0.43832  -0.43751  -0.43702  -0.43508
 Alpha  occ. eigenvalues --   -0.43278  -0.42544  -0.42185  -0.41709  -0.41116
 Alpha  occ. eigenvalues --   -0.40407  -0.40375  -0.40004  -0.39695  -0.39228
 Alpha  occ. eigenvalues --   -0.38618  -0.38425  -0.37391  -0.36655  -0.36309
 Alpha  occ. eigenvalues --   -0.36211  -0.34441  -0.32963  -0.32403  -0.32150
 Alpha  occ. eigenvalues --   -0.30264  -0.29736  -0.29289  -0.28285  -0.24483
 Alpha  occ. eigenvalues --   -0.23897  -0.22010
 Alpha virt. eigenvalues --   -0.12711  -0.11303  -0.10321  -0.08834  -0.08407
 Alpha virt. eigenvalues --   -0.07619  -0.07020  -0.05075  -0.04788  -0.04045
 Alpha virt. eigenvalues --   -0.03363  -0.02849  -0.02292  -0.01509  -0.01359

 Mulliken charges:
               1
     1  N   -0.768653
     2  H    0.421947
     3  H    0.422105
     4  H    0.397650
     5  C   -0.111914
     6  H    0.199752
     7  C    0.681507
     8  C   -0.290488
     9  H    0.211146
    10  H    0.183841
    11  O   -0.554402
    12  C   -0.379651
    13  H    0.222509
    14  H    0.167461
    15  C    0.591233
    16  O   -0.445382
    17  O   -0.558172
    18  N   -0.606695
    19  H    0.360256
    20  C   -0.080184
    21  H    0.185799
    22  C    0.651479
    23  C   -0.356328
    24  H    0.197644
    25  H    0.176212
    26  O   -0.555568
    27  C    0.081850
    28  C    0.031052
    29  H    0.182311
    30  C    0.061001
    31  C    0.328466
    32  C   -0.224798
    33  H    0.145714
    34  N   -0.683415
    35  H    0.345499
    36  C   -0.206151
    37  H    0.152620
    38  C   -0.171230
    39  H    0.153197
    40  C   -0.197669
    41  H    0.146231
    42  N   -0.581719
    43  H    0.350815
    44  C   -0.073423
    45  H    0.179865
    46  C    0.588106
    47  C    0.090007
    48  H    0.139431
    49  O   -0.547297
    50  C   -0.438050
    51  H    0.132526
    52  H    0.168250
    53  H    0.143851
    54  O   -0.680315
    55  H    0.447647
    56  N   -0.595324
    57  H    0.346258
    58  C   -0.093658
    59  H    0.159807
    60  C    0.592275
    61  C   -0.260930
    62  H    0.175641
    63  H    0.135420
    64  O   -0.555624
    65  C   -0.309656
    66  H    0.163346
    67  H    0.165637
    68  C   -0.149929
    69  H    0.183868
    70  H    0.187329
    71  N   -0.603403
    72  H    0.368816
    73  N   -0.756238
    74  H    0.385011
    75  H    0.399301
    76  N   -0.764602
    77  H    0.382712
    78  H    0.383504
    79  C    0.833265
    80  O   -0.627718
    81  H    0.427415
 Sum of Mulliken charges =   1.00000

 Dipole moment (field-independent basis, Debye):
    X=            -23.1391    Y=             29.0395    Z=             -2.6265  Tot=             37.2238
 Quadrupole moment (field-independent basis, Debye-Ang):
   XX=           -108.8416   YY=            -23.3702   ZZ=            -84.1687
   XY=             40.9446   XZ=            -69.3406   YZ=           -182.3804

 Normal termination of Gaussian 16 at Fri May 13 15:51:48 2022.
