 Gaussian 16, Revision C.01,
 Gaussian 16:  ES64L-G16RevC.01  3-Jul-2019

 ----------------------------------------------------------------------
 # B3LYP/6-31G* empiricaldispersion=gd3 guess=read geom=check nosymm in
 tegral(ultrafinegrid)
 ----------------------------------------------------------------------

 ------------------------------------------------------
 Candidate Structure: Conf:796 Charge calc in gas phase
 ------------------------------------------------------
 Structure from the checkpoint file:  "conf-796.chk"
 Charge =  1 Multiplicity = 1

                          Input orientation:
 ---------------------------------------------------------------------
 Center     Atomic      Atomic             Coordinates (Angstroms)
 Number     Number       Type             X           Y           Z
 ---------------------------------------------------------------------
      1          7           0       -4.829829    4.319334    1.469230
      2          1           0       -5.108430    4.217352    0.469581
      3          1           0       -5.371017    3.595739    1.989525
      4          1           0       -5.034464    5.264538    1.802977
      5          6           0       -3.386717    3.910217    1.651438
      6          1           0       -2.847660    4.232822    0.757835
      7          6           0       -3.475292    2.366582    1.717863
      8          6           0       -2.778150    4.533181    2.911165
      9          1           0       -1.725283    4.236063    2.949804
     10          1           0       -2.767620    5.625481    2.813267
     11          8           0       -4.543108    1.856919    2.083906
     12          6           0       -3.465449    4.126821    4.219109
     13          1           0       -3.477798    3.039118    4.351805
     14          1           0       -4.516797    4.440621    4.261015
     15          6           0       -2.752335    4.747532    5.408222
     16          8           0       -1.760701    5.435996    5.331728
     17          8           0       -3.370691    4.428197    6.561007
     18          7           0       -2.369848    1.720991    1.369338
     19          1           0       -1.531793    2.215291    1.054063
     20          6           0       -2.281906    0.293239    1.087364
     21          1           0       -2.516523   -0.284072    1.988233
     22          6           0       -0.799637    0.083964    0.701605
     23          6           0       -3.254896   -0.120859   -0.063586
     24          1           0       -4.268660   -0.117726    0.346006
     25          1           0       -3.034479   -1.155194   -0.350343
     26          8           0       -0.049089    1.052646    0.561322
     27          6           0       -3.162638    0.805950   -1.241293
     28          6           0       -2.150063    0.846868   -2.170616
     29          1           0       -1.314853    0.170684   -2.308370
     30          6           0       -4.024521    1.925907   -1.525618
     31          6           0       -3.452538    2.629223   -2.627504
     32          6           0       -5.245579    2.383898   -0.997348
     33          1           0       -5.737523    1.830657   -0.202725
     34          7           0       -2.318584    1.942413   -2.994047
     35          1           0       -1.718684    2.167491   -3.773586
     36          6           0       -5.206461    4.250457   -2.581297
     37          1           0       -5.682994    5.141889   -2.977790
     38          6           0       -4.023695    3.795007   -3.151473
     39          1           0       -3.564739    4.321097   -3.983762
     40          6           0       -5.823830    3.542659   -1.522816
     41          1           0       -6.802288    3.864449   -1.170100
     42          7           0       -0.405868   -1.189797    0.529169
     43          1           0       -1.088904   -1.935398    0.438021
     44          6           0        0.912309   -1.521721   -0.004393
     45          1           0        1.682442   -1.158029    0.682682
     46          6           0        1.091871   -0.906773   -1.399832
     47          6           0        0.975458   -3.069615   -0.136953
     48          1           0        1.866715   -3.310506   -0.736809
     49          8           0        0.284591   -1.204183   -2.307803
     50          6           0        1.069355   -3.775379    1.208586
     51          1           0        1.999158   -3.509344    1.721528
     52          1           0        1.049471   -4.857440    1.052813
     53          1           0        0.225905   -3.507493    1.853492
     54          8           0       -0.207425   -3.523968   -0.787426
     55          1           0       -0.271214   -3.006874   -1.617857
     56          7           0        2.138652   -0.108566   -1.578355
     57          1           0        2.814764    0.108215   -0.844220
     58          6           0        2.502776    0.482361   -2.853720
     59          1           0        2.660270   -0.337389   -3.566219
     60          6           0        3.896652    1.182410   -2.655371
     61          6           0        1.432436    1.462741   -3.410346
     62          1           0        1.904201    2.440477   -3.550187
     63          1           0        0.660756    1.603360   -2.647259
     64          8           0        4.291670    1.850544   -3.675213
     65          6           0        0.747266    1.041980   -4.729133
     66          1           0        0.012567    0.256167   -4.524383
     67          1           0        0.211096    1.914289   -5.129117
     68          6           0        1.675081    0.491156   -5.832778
     69          1           0        1.868623   -0.575410   -5.658395
     70          1           0        1.160840    0.570849   -6.798946
     71          7           0        2.952019    1.216462   -5.871895
     72          1           0        3.280575    1.646466   -4.965901
     73          7           0        3.850627    0.079426   -7.708248
     74          1           0        4.652649   -0.216869   -8.244564
     75          1           0        2.963162    0.089679   -8.188030
     76          7           0        5.229643    1.093035   -6.116750
     77          1           0        5.295968    1.431725   -5.142728
     78          1           0        6.057855    0.969242   -6.678804
     79          6           0        4.008469    0.801292   -6.575533
     80          8           0        4.464347    1.024220   -1.572157
     81          1           0       -2.866835    4.843300    7.287425
 ---------------------------------------------------------------------

 SCF Done:  E(RB3LYP) =  -2054.05441252     A.U. after    1 cycles

 Alpha  occ. eigenvalues --  -19.28752 -19.25109 -19.23380 -19.21871 -19.21344
 Alpha  occ. eigenvalues --  -19.19660 -19.15492 -19.14586 -14.58274 -14.48134
 Alpha  occ. eigenvalues --  -14.47944 -14.47319 -14.45790 -14.45322 -14.44608
 Alpha  occ. eigenvalues --  -14.42895 -10.42819 -10.42062 -10.41808 -10.39236
 Alpha  occ. eigenvalues --  -10.38674 -10.36333 -10.34243 -10.33088 -10.32827
 Alpha  occ. eigenvalues --  -10.32078 -10.31854 -10.31748 -10.31743 -10.31367
 Alpha  occ. eigenvalues --  -10.30331 -10.29338 -10.29040 -10.28910 -10.28871
 Alpha  occ. eigenvalues --  -10.28762 -10.28544 -10.28350 -10.27796 -10.27378
 Alpha  occ. eigenvalues --  -10.26179 -10.24554  -1.19796  -1.17560  -1.13975
 Alpha  occ. eigenvalues --   -1.12437  -1.11551  -1.11305  -1.11026  -1.08860
 Alpha  occ. eigenvalues --   -1.08204  -1.07277  -1.04951  -1.01677  -1.01200
 Alpha  occ. eigenvalues --   -1.00067  -0.99557  -0.98844  -0.94005  -0.93605
 Alpha  occ. eigenvalues --   -0.90401  -0.87863  -0.87360  -0.85874  -0.84461
 Alpha  occ. eigenvalues --   -0.83465  -0.81603  -0.81479  -0.78738  -0.78330
 Alpha  occ. eigenvalues --   -0.76535  -0.75401  -0.73508  -0.72750  -0.72023
 Alpha  occ. eigenvalues --   -0.71213  -0.70825  -0.69190  -0.68904  -0.68804
 Alpha  occ. eigenvalues --   -0.68432  -0.68102  -0.67217  -0.65703  -0.65555
 Alpha  occ. eigenvalues --   -0.64606  -0.64085  -0.63346  -0.62043  -0.60778
 Alpha  occ. eigenvalues --   -0.60589  -0.60383  -0.59989  -0.59500  -0.59086
 Alpha  occ. eigenvalues --   -0.58634  -0.58088  -0.57472  -0.57159  -0.56937
 Alpha  occ. eigenvalues --   -0.56882  -0.56603  -0.55475  -0.55310  -0.54303
 Alpha  occ. eigenvalues --   -0.54171  -0.53631  -0.52933  -0.52859  -0.52292
 Alpha  occ. eigenvalues --   -0.52194  -0.51729  -0.51507  -0.51280  -0.50859
 Alpha  occ. eigenvalues --   -0.50138  -0.49912  -0.49787  -0.49444  -0.49011
 Alpha  occ. eigenvalues --   -0.48694  -0.48353  -0.47796  -0.47476  -0.47408
 Alpha  occ. eigenvalues --   -0.46995  -0.46687  -0.45663  -0.45372  -0.45344
 Alpha  occ. eigenvalues --   -0.45114  -0.45054  -0.43905  -0.43613  -0.43508
 Alpha  occ. eigenvalues --   -0.43115  -0.42637  -0.41873  -0.41064  -0.41062
 Alpha  occ. eigenvalues --   -0.40674  -0.39452  -0.38619  -0.38074  -0.37336
 Alpha  occ. eigenvalues --   -0.37062  -0.36158  -0.35904  -0.35496  -0.34598
 Alpha  occ. eigenvalues --   -0.33017  -0.32659  -0.32420  -0.30845  -0.30127
 Alpha  occ. eigenvalues --   -0.29821  -0.28773
 Alpha virt. eigenvalues --   -0.11621  -0.10998  -0.09610  -0.08191  -0.07789
 Alpha virt. eigenvalues --   -0.07716  -0.07668  -0.05903  -0.04289  -0.03692
 Alpha virt. eigenvalues --   -0.03057  -0.02651  -0.02287  -0.00768  -0.00613

 Mulliken charges:
               1
     1  N   -0.757797
     2  H    0.407244
     3  H    0.418671
     4  H    0.402362
     5  C   -0.130107
     6  H    0.218004
     7  C    0.682461
     8  C   -0.286565
     9  H    0.215360
    10  H    0.187045
    11  O   -0.556732
    12  C   -0.383482
    13  H    0.218846
    14  H    0.169380
    15  C    0.592408
    16  O   -0.441408
    17  O   -0.557984
    18  N   -0.619756
    19  H    0.375530
    20  C   -0.038378
    21  H    0.195180
    22  C    0.643888
    23  C   -0.395652
    24  H    0.190517
    25  H    0.178702
    26  O   -0.543744
    27  C    0.035131
    28  C    0.004084
    29  H    0.239778
    30  C    0.079549
    31  C    0.317301
    32  C   -0.264228
    33  H    0.164881
    34  N   -0.705377
    35  H    0.347770
    36  C   -0.148894
    37  H    0.150827
    38  C   -0.159347
    39  H    0.149640
    40  C   -0.216647
    41  H    0.147410
    42  N   -0.614996
    43  H    0.355749
    44  C   -0.061652
    45  H    0.174902
    46  C    0.654467
    47  C    0.095986
    48  H    0.149088
    49  O   -0.597785
    50  C   -0.448806
    51  H    0.158078
    52  H    0.180782
    53  H    0.150256
    54  O   -0.644487
    55  H    0.417520
    56  N   -0.600177
    57  H    0.367400
    58  C   -0.043429
    59  H    0.155907
    60  C    0.601010
    61  C   -0.318248
    62  H    0.179673
    63  H    0.162123
    64  O   -0.636323
    65  C   -0.298321
    66  H    0.178376
    67  H    0.133237
    68  C   -0.159834
    69  H    0.178849
    70  H    0.151766
    71  N   -0.629965
    72  H    0.417459
    73  N   -0.756128
    74  H    0.366499
    75  H    0.371855
    76  N   -0.777731
    77  H    0.425408
    78  H    0.355060
    79  C    0.780576
    80  O   -0.529152
    81  H    0.429139
 Sum of Mulliken charges =   1.00000

 Dipole moment (field-independent basis, Debye):
    X=            -10.3992    Y=             11.9577    Z=            -10.0291  Tot=             18.7540
 Quadrupole moment (field-independent basis, Debye-Ang):
   XX=           -161.7568   YY=           -180.4903   ZZ=            -74.6592
   XY=            -86.4486   XZ=            -85.5524   YZ=             16.6306

 Normal termination of Gaussian 16 at Fri May 13 15:51:53 2022.
