 Gaussian 16, Revision C.01,
 Gaussian 16:  ES64L-G16RevC.01  3-Jul-2019

 ----------------------------------------------------------------------
 # B3LYP/6-31G* empiricaldispersion=gd3 guess=read geom=check nosymm in
 tegral(ultrafinegrid)
 ----------------------------------------------------------------------

 ------------------------------------------------------
 Candidate Structure: Conf:883 Charge calc in gas phase
 ------------------------------------------------------
 Structure from the checkpoint file:  "conf-883.chk"
 Charge =  1 Multiplicity = 1

                          Input orientation:
 ---------------------------------------------------------------------
 Center     Atomic      Atomic             Coordinates (Angstroms)
 Number     Number       Type             X           Y           Z
 ---------------------------------------------------------------------
      1          7           0       -3.738693   -2.350733    3.335929
      2          1           0       -4.604849   -2.739658    2.952766
      3          1           0       -2.946545   -2.503663    2.630291
      4          1           0       -3.538760   -2.802996    4.232049
      5          6           0       -3.744446   -0.835038    3.409681
      6          1           0       -4.776205   -0.484485    3.423305
      7          6           0       -3.001274   -0.454150    2.106571
      8          6           0       -2.984037   -0.397630    4.682391
      9          1           0       -3.632489   -0.607418    5.542136
     10          1           0       -2.091101   -1.029129    4.779330
     11          8           0       -2.296403   -1.337347    1.588571
     12          6           0       -2.505852    1.062165    4.741515
     13          1           0       -1.761420    1.281730    3.957544
     14          1           0       -1.991570    1.212728    5.696387
     15          6           0       -3.568476    2.130284    4.637556
     16          8           0       -3.400003    3.296634    4.891604
     17          8           0       -4.748515    1.650702    4.119231
     18          7           0       -3.135389    0.791260    1.686084
     19          1           0       -3.839867    1.388529    2.107467
     20          6           0       -2.260412    1.388795    0.681519
     21          1           0       -2.557867    1.043234   -0.311806
     22          6           0       -0.800059    0.992647    0.983094
     23          6           0       -2.385044    2.932704    0.737113
     24          1           0       -1.833419    3.294726   -0.137047
     25          1           0       -1.892639    3.291471    1.649347
     26          8           0       -0.368560    0.947556    2.139264
     27          6           0       -3.805988    3.403020    0.683175
     28          6           0       -4.501058    4.073156    1.664071
     29          1           0       -4.145364    4.464782    2.609676
     30          6           0       -4.720842    3.208274   -0.418466
     31          6           0       -5.967156    3.765276   -0.027900
     32          6           0       -4.578857    2.650307   -1.703345
     33          1           0       -3.611992    2.289544   -2.049009
     34          7           0       -5.814056    4.267583    1.256121
     35          1           0       -6.460630    4.908343    1.693068
     36          6           0       -6.925903    3.182235   -2.127042
     37          1           0       -7.770318    3.163242   -2.810780
     38          6           0       -7.084039    3.755550   -0.869696
     39          1           0       -8.032058    4.187278   -0.559704
     40          6           0       -5.688318    2.643896   -2.540462
     41          1           0       -5.597786    2.230579   -3.541099
     42          7           0       -0.083800    0.773878   -0.120937
     43          1           0       -0.541016    1.007807   -1.013810
     44          6           0        1.368201    0.668353   -0.150153
     45          1           0        1.762987    1.181988    0.736239
     46          6           0        1.799439    1.405644   -1.445548
     47          6           0        1.866927   -0.796034   -0.141551
     48          1           0        2.969098   -0.744552   -0.115620
     49          8           0        2.442687    0.833997   -2.331769
     50          6           0        1.362907   -1.559904    1.076321
     51          1           0        1.632638   -1.048214    2.005774
     52          1           0        1.794509   -2.565797    1.075120
     53          1           0        0.273367   -1.645137    1.031725
     54          8           0        1.425903   -1.496235   -1.293242
     55          1           0        1.833964   -1.022256   -2.041485
     56          7           0        1.338275    2.685832   -1.553531
     57          1           0        0.739587    2.961983   -0.779737
     58          6           0        0.818828    3.241422   -2.820185
     59          1           0        0.616442    4.299543   -2.600592
     60          6           0       -0.584360    2.593579   -3.184808
     61          6           0        1.827090    3.167341   -3.974233
     62          1           0        1.843527    2.130915   -4.317880
     63          1           0        2.834551    3.367567   -3.599460
     64          8           0       -0.864117    2.527051   -4.395776
     65          6           0        1.470704    4.138640   -5.129505
     66          1           0        0.521611    4.643271   -4.930032
     67          1           0        2.237135    4.924915   -5.211774
     68          6           0        1.259305    3.424386   -6.470067
     69          1           0        0.388772    2.777572   -6.350003
     70          1           0        1.069877    4.118498   -7.297096
     71          7           0        2.388436    2.551527   -6.869118
     72          1           0        2.362060    1.604208   -6.513764
     73          7           0        3.788175    4.245494   -7.623050
     74          1           0        4.465048    4.542477   -8.309731
     75          1           0        3.220578    4.954773   -7.186719
     76          7           0        4.418154    2.044874   -7.868153
     77          1           0        4.202209    1.059578   -7.847097
     78          1           0        5.390144    2.294505   -7.970327
     79          6           0        3.521160    2.948026   -7.434462
     80          8           0       -1.305609    2.246733   -2.199567
     81          1           0       -5.337841    2.414324    3.960065
 ---------------------------------------------------------------------

 SCF Done:  E(RB3LYP) =  -2054.00934177     A.U. after    1 cycles

 Alpha  occ. eigenvalues --  -19.29887 -19.23890 -19.23372 -19.18146 -19.17431
 Alpha  occ. eigenvalues --  -19.16654 -19.12421 -19.11850 -14.57663 -14.51235
 Alpha  occ. eigenvalues --  -14.51156 -14.50659 -14.46339 -14.43709 -14.40928
 Alpha  occ. eigenvalues --  -14.40765 -10.47265 -10.41772 -10.40339 -10.38037
 Alpha  occ. eigenvalues --  -10.34682 -10.34377 -10.32481 -10.32107 -10.30359
 Alpha  occ. eigenvalues --  -10.30186 -10.29798 -10.28113 -10.27877 -10.27641
 Alpha  occ. eigenvalues --  -10.27281 -10.27087 -10.26797 -10.25595 -10.24631
 Alpha  occ. eigenvalues --  -10.24351 -10.23757 -10.23331 -10.23218 -10.22386
 Alpha  occ. eigenvalues --  -10.22326 -10.20821  -1.19978  -1.16534  -1.15975
 Alpha  occ. eigenvalues --   -1.11353  -1.11228  -1.09728  -1.08922  -1.05260
 Alpha  occ. eigenvalues --   -1.04756  -1.04508  -1.04305  -1.03462  -1.03144
 Alpha  occ. eigenvalues --   -0.98952  -0.96722  -0.96332  -0.92429  -0.88621
 Alpha  occ. eigenvalues --   -0.87676  -0.87237  -0.84844  -0.83184  -0.81745
 Alpha  occ. eigenvalues --   -0.80592  -0.78342  -0.78159  -0.77553  -0.76862
 Alpha  occ. eigenvalues --   -0.75863  -0.73647  -0.73161  -0.72145  -0.71656
 Alpha  occ. eigenvalues --   -0.71465  -0.70183  -0.69766  -0.68508  -0.67026
 Alpha  occ. eigenvalues --   -0.66849  -0.64960  -0.64774  -0.64318  -0.64091
 Alpha  occ. eigenvalues --   -0.63313  -0.62303  -0.61743  -0.61280  -0.60767
 Alpha  occ. eigenvalues --   -0.59419  -0.59002  -0.58185  -0.57704  -0.57339
 Alpha  occ. eigenvalues --   -0.57321  -0.56830  -0.56153  -0.56054  -0.54709
 Alpha  occ. eigenvalues --   -0.54559  -0.54226  -0.53376  -0.53139  -0.52628
 Alpha  occ. eigenvalues --   -0.52497  -0.51606  -0.51079  -0.50482  -0.50024
 Alpha  occ. eigenvalues --   -0.49731  -0.49023  -0.48813  -0.48551  -0.48253
 Alpha  occ. eigenvalues --   -0.47960  -0.47520  -0.47321  -0.47013  -0.46688
 Alpha  occ. eigenvalues --   -0.46517  -0.46247  -0.45771  -0.45151  -0.44498
 Alpha  occ. eigenvalues --   -0.43774  -0.43206  -0.42790  -0.42728  -0.42238
 Alpha  occ. eigenvalues --   -0.42050  -0.41947  -0.41594  -0.41439  -0.41357
 Alpha  occ. eigenvalues --   -0.40758  -0.40258  -0.39716  -0.39066  -0.38686
 Alpha  occ. eigenvalues --   -0.38273  -0.38128  -0.37864  -0.36871  -0.36641
 Alpha  occ. eigenvalues --   -0.36139  -0.33271  -0.32573  -0.31890  -0.31358
 Alpha  occ. eigenvalues --   -0.30780  -0.29253  -0.27914  -0.27359  -0.26705
 Alpha  occ. eigenvalues --   -0.25726  -0.25349
 Alpha virt. eigenvalues --   -0.11465  -0.09708  -0.09181  -0.08257  -0.07370
 Alpha virt. eigenvalues --   -0.06444  -0.05151  -0.04217  -0.03831  -0.03506
 Alpha virt. eigenvalues --   -0.02657  -0.02642  -0.02332  -0.02121  -0.00275

 Mulliken charges:
               1
     1  N   -0.760417
     2  H    0.412409
     3  H    0.433248
     4  H    0.407530
     5  C   -0.107437
     6  H    0.225983
     7  C    0.660128
     8  C   -0.297476
     9  H    0.179121
    10  H    0.181368
    11  O   -0.540508
    12  C   -0.402798
    13  H    0.266306
    14  H    0.209116
    15  C    0.595374
    16  O   -0.432363
    17  O   -0.601585
    18  N   -0.611843
    19  H    0.364570
    20  C   -0.035167
    21  H    0.213055
    22  C    0.627193
    23  C   -0.393679
    24  H    0.203182
    25  H    0.158953
    26  O   -0.565080
    27  C    0.026553
    28  C   -0.063238
    29  H    0.178984
    30  C    0.069024
    31  C    0.300091
    32  C   -0.221664
    33  H    0.206795
    34  N   -0.693810
    35  H    0.333420
    36  C   -0.146819
    37  H    0.131709
    38  C   -0.169826
    39  H    0.126563
    40  C   -0.153865
    41  H    0.136678
    42  N   -0.610239
    43  H    0.396322
    44  C   -0.080502
    45  H    0.173906
    46  C    0.575275
    47  C    0.161781
    48  H    0.117435
    49  O   -0.544350
    50  C   -0.466785
    51  H    0.144183
    52  H    0.147129
    53  H    0.174838
    54  O   -0.647370
    55  H    0.409609
    56  N   -0.571751
    57  H    0.335702
    58  C   -0.091019
    59  H    0.147680
    60  C    0.590762
    61  C   -0.248089
    62  H    0.149263
    63  H    0.144526
    64  O   -0.563196
    65  C   -0.270813
    66  H    0.193611
    67  H    0.111959
    68  C   -0.203912
    69  H    0.248253
    70  H    0.165677
    71  N   -0.575708
    72  H    0.373608
    73  N   -0.754170
    74  H    0.381152
    75  H    0.394269
    76  N   -0.759431
    77  H    0.382611
    78  H    0.380367
    79  C    0.814311
    80  O   -0.603947
    81  H    0.427278
 Sum of Mulliken charges =   1.00000

 Dipole moment (field-independent basis, Debye):
    X=             -1.1689    Y=              5.4875    Z=             -8.1816  Tot=              9.9206
 Quadrupole moment (field-independent basis, Debye-Ang):
   XX=           -105.6951   YY=           -177.0153   ZZ=             -9.6022
   XY=             54.0118   XZ=           -171.6498   YZ=            -95.6777

 Normal termination of Gaussian 16 at Fri May 13 15:51:52 2022.
