 Gaussian 16, Revision C.01,
 Gaussian 16:  ES64L-G16RevC.01  3-Jul-2019

 ----------------------------------------------------------------------
 # B3LYP/6-31G* empiricaldispersion=gd3 guess=read geom=check nosymm in
 tegral(ultrafinegrid)
 ----------------------------------------------------------------------

 ------------------------------------------------------
 Candidate Structure: Conf:197 Charge calc in gas phase
 ------------------------------------------------------
 Structure from the checkpoint file:  "conf-197.chk"
 Charge =  1 Multiplicity = 1

                          Input orientation:
 ---------------------------------------------------------------------
 Center     Atomic      Atomic             Coordinates (Angstroms)
 Number     Number       Type             X           Y           Z
 ---------------------------------------------------------------------
      1          7           0       -5.392281    1.984714    2.652870
      2          1           0       -5.564163    1.241215    1.899249
      3          1           0       -5.904696    1.724658    3.498665
      4          1           0       -5.693132    2.907988    2.323023
      5          6           0       -3.886848    1.894999    2.792574
      6          1           0       -3.480814    2.863109    2.504847
      7          6           0       -3.512092    0.873303    1.692155
      8          6           0       -3.438309    1.528577    4.207706
      9          1           0       -3.897903    0.578251    4.508763
     10          1           0       -2.359555    1.346565    4.168451
     11          8           0       -4.429508    0.249805    1.131363
     12          6           0       -3.715652    2.608375    5.261774
     13          1           0       -3.464499    2.233520    6.259201
     14          1           0       -4.780310    2.879125    5.319413
     15          6           0       -2.936500    3.892148    5.020957
     16          8           0       -2.417508    4.204752    3.967962
     17          8           0       -2.907021    4.652052    6.124869
     18          7           0       -2.223466    0.824800    1.392009
     19          1           0       -1.528676    1.347015    1.928990
     20          6           0       -1.624732    0.154562    0.247453
     21          1           0       -2.126849   -0.805774    0.098877
     22          6           0       -0.139356    0.005765    0.624827
     23          6           0       -1.689621    1.032805   -1.056194
     24          1           0       -1.410624    0.386011   -1.895501
     25          1           0       -0.911339    1.799971   -0.964278
     26          8           0        0.302560    0.655602    1.581201
     27          6           0       -3.023235    1.675433   -1.287581
     28          6           0       -4.096916    1.166023   -1.979516
     29          1           0       -4.166720    0.264874   -2.573704
     30          6           0       -3.502492    2.869395   -0.624528
     31          6           0       -4.886665    2.999552   -0.934925
     32          6           0       -2.891137    3.820088    0.220629
     33          1           0       -1.826471    3.759053    0.443622
     34          7           0       -5.210998    1.957970   -1.778410
     35          1           0       -6.122636    1.786005   -2.174621
     36          6           0       -5.057151    4.927325    0.467841
     37          1           0       -5.638291    5.744339    0.887251
     38          6           0       -5.677947    4.021006   -0.393115
     39          1           0       -6.731786    4.113459   -0.642811
     40          6           0       -3.675575    4.835932    0.759078
     41          1           0       -3.217351    5.563438    1.421673
     42          7           0        0.631858   -0.712963   -0.202282
     43          1           0        0.205748   -1.383362   -0.828670
     44          6           0        2.090980   -0.797006   -0.031494
     45          1           0        2.289706   -0.752256    1.044746
     46          6           0        2.773210    0.414192   -0.743809
     47          6           0        2.603663   -2.127082   -0.603808
     48          1           0        2.630689   -2.036871   -1.699350
     49          8           0        3.620133    0.232565   -1.616592
     50          6           0        4.002246   -2.456949   -0.093778
     51          1           0        4.707439   -1.679161   -0.395220
     52          1           0        4.345563   -3.408231   -0.518355
     53          1           0        3.997571   -2.550255    0.997846
     54          8           0        1.641740   -3.119201   -0.215130
     55          1           0        1.976422   -3.977483   -0.517589
     56          7           0        2.333083    1.621757   -0.328300
     57          1           0        1.629415    1.650002    0.401514
     58          6           0        2.608371    2.905462   -0.976516
     59          1           0        3.625786    3.235071   -0.744201
     60          6           0        1.596290    3.970727   -0.482528
     61          6           0        2.425497    2.810615   -2.509223
     62          1           0        1.401977    2.454765   -2.691424
     63          1           0        3.096533    2.037357   -2.886043
     64          8           0        1.986393    5.136834   -0.393926
     65          6           0        2.693859    4.127554   -3.263874
     66          1           0        3.401298    4.744620   -2.699359
     67          1           0        3.165482    3.904124   -4.229700
     68          6           0        1.472515    5.028469   -3.513119
     69          1           0        1.109734    5.463168   -2.582043
     70          1           0        1.759021    5.852634   -4.176139
     71          7           0        0.354190    4.323184   -4.164690
     72          1           0        0.552810    3.889155   -5.057382
     73          7           0       -1.136534    4.321634   -2.365342
     74          1           0       -2.110549    4.256049   -2.103164
     75          1           0       -0.464925    4.164836   -1.556579
     76          7           0       -1.802859    3.532405   -4.440227
     77          1           0       -1.812400    3.709034   -5.433913
     78          1           0       -2.636563    3.147408   -4.018398
     79          6           0       -0.842793    4.061801   -3.632668
     80          8           0        0.379808    3.543194   -0.372932
     81          1           0       -2.399604    5.461111    5.918985
 ---------------------------------------------------------------------

 SCF Done:  E(RB3LYP) =  -2054.04237036     A.U. after    1 cycles

 Alpha  occ. eigenvalues --  -19.30375 -19.25635 -19.25207 -19.21594 -19.21392
 Alpha  occ. eigenvalues --  -19.16783 -19.14436 -19.13010 -14.58183 -14.48901
 Alpha  occ. eigenvalues --  -14.48094 -14.47828 -14.47535 -14.45311 -14.44196
 Alpha  occ. eigenvalues --  -14.40249 -10.43529 -10.43081 -10.42192 -10.38378
 Alpha  occ. eigenvalues --  -10.38206 -10.34334 -10.34163 -10.33697 -10.32983
 Alpha  occ. eigenvalues --  -10.32970 -10.32642 -10.31514 -10.30664 -10.30214
 Alpha  occ. eigenvalues --  -10.30195 -10.29921 -10.29558 -10.29152 -10.29022
 Alpha  occ. eigenvalues --  -10.28823 -10.28545 -10.28473 -10.26494 -10.25003
 Alpha  occ. eigenvalues --  -10.23619 -10.23347  -1.21555  -1.17944  -1.13617
 Alpha  occ. eigenvalues --   -1.12678  -1.12086  -1.11614  -1.09144  -1.08729
 Alpha  occ. eigenvalues --   -1.08395  -1.06918  -1.05170  -1.01387  -1.01362
 Alpha  occ. eigenvalues --   -0.99271  -0.98059  -0.96493  -0.94614  -0.94099
 Alpha  occ. eigenvalues --   -0.91021  -0.88241  -0.86066  -0.85638  -0.84250
 Alpha  occ. eigenvalues --   -0.84006  -0.82375  -0.80515  -0.78992  -0.77699
 Alpha  occ. eigenvalues --   -0.76377  -0.74335  -0.72872  -0.72711  -0.72314
 Alpha  occ. eigenvalues --   -0.71624  -0.70613  -0.70104  -0.69714  -0.69026
 Alpha  occ. eigenvalues --   -0.68375  -0.67450  -0.66942  -0.66221  -0.64864
 Alpha  occ. eigenvalues --   -0.64323  -0.63872  -0.63097  -0.61615  -0.61285
 Alpha  occ. eigenvalues --   -0.60649  -0.60251  -0.59866  -0.59422  -0.59199
 Alpha  occ. eigenvalues --   -0.58763  -0.58363  -0.58013  -0.57125  -0.57011
 Alpha  occ. eigenvalues --   -0.56134  -0.55551  -0.54945  -0.54663  -0.54382
 Alpha  occ. eigenvalues --   -0.53805  -0.53358  -0.53209  -0.52819  -0.52366
 Alpha  occ. eigenvalues --   -0.52260  -0.51787  -0.51265  -0.51106  -0.50492
 Alpha  occ. eigenvalues --   -0.49863  -0.49720  -0.49351  -0.49005  -0.48742
 Alpha  occ. eigenvalues --   -0.48600  -0.48320  -0.48151  -0.47146  -0.47103
 Alpha  occ. eigenvalues --   -0.46187  -0.45625  -0.45019  -0.44693  -0.44341
 Alpha  occ. eigenvalues --   -0.44244  -0.44018  -0.43598  -0.42811  -0.42794
 Alpha  occ. eigenvalues --   -0.42705  -0.42558  -0.41002  -0.40520  -0.39913
 Alpha  occ. eigenvalues --   -0.39522  -0.39274  -0.38689  -0.38610  -0.38103
 Alpha  occ. eigenvalues --   -0.37828  -0.35792  -0.35515  -0.35353  -0.33936
 Alpha  occ. eigenvalues --   -0.33332  -0.30968  -0.30271  -0.30004  -0.29890
 Alpha  occ. eigenvalues --   -0.28953  -0.26638
 Alpha virt. eigenvalues --   -0.12409  -0.11023  -0.10884  -0.09133  -0.08372
 Alpha virt. eigenvalues --   -0.08003  -0.07857  -0.04648  -0.04182  -0.04145
 Alpha virt. eigenvalues --   -0.03353  -0.02119  -0.01938  -0.01739  -0.00776

 Mulliken charges:
               1
     1  N   -0.772090
     2  H    0.428433
     3  H    0.400075
     4  H    0.408582
     5  C   -0.121221
     6  H    0.270595
     7  C    0.659714
     8  C   -0.305363
     9  H    0.176577
    10  H    0.214269
    11  O   -0.558179
    12  C   -0.374143
    13  H    0.221531
    14  H    0.169844
    15  C    0.591367
    16  O   -0.451522
    17  O   -0.544471
    18  N   -0.602216
    19  H    0.386405
    20  C   -0.052340
    21  H    0.186605
    22  C    0.637728
    23  C   -0.395178
    24  H    0.150617
    25  H    0.229114
    26  O   -0.549842
    27  C    0.057817
    28  C    0.013652
    29  H    0.172954
    30  C   -0.002149
    31  C    0.320438
    32  C   -0.272016
    33  H    0.218303
    34  N   -0.682193
    35  H    0.342977
    36  C   -0.192243
    37  H    0.152796
    38  C   -0.197693
    39  H    0.148285
    40  C   -0.153756
    41  H    0.170878
    42  N   -0.596597
    43  H    0.350101
    44  C   -0.073563
    45  H    0.195831
    46  C    0.633757
    47  C    0.126412
    48  H    0.146210
    49  O   -0.532918
    50  C   -0.480515
    51  H    0.195556
    52  H    0.145263
    53  H    0.156645
    54  O   -0.652811
    55  H    0.402672
    56  N   -0.657056
    57  H    0.382519
    58  C    0.032745
    59  H    0.164023
    60  C    0.537038
    61  C   -0.306802
    62  H    0.114641
    63  H    0.195588
    64  O   -0.534013
    65  C   -0.284588
    66  H    0.192465
    67  H    0.135219
    68  C   -0.177238
    69  H    0.228691
    70  H    0.171549
    71  N   -0.584490
    72  H    0.345686
    73  N   -0.788383
    74  H    0.354634
    75  H    0.446440
    76  N   -0.777959
    77  H    0.361506
    78  H    0.361330
    79  C    0.770460
    80  O   -0.636274
    81  H    0.433287
 Sum of Mulliken charges =   1.00000

 Dipole moment (field-independent basis, Debye):
    X=            -23.9312    Y=              8.0437    Z=             -0.4026  Tot=             25.2501
 Quadrupole moment (field-independent basis, Debye-Ang):
   XX=           -127.9136   YY=           -205.5797   ZZ=           -132.2409
   XY=            -69.7794   XZ=            -32.7180   YZ=             -4.2851

 Normal termination of Gaussian 16 at Fri May 13 15:51:55 2022.
