 Gaussian 16, Revision C.01,
 Gaussian 16:  ES64L-G16RevC.01  3-Jul-2019

 ----------------------------------------------------------------------
 # B3LYP/6-31G* empiricaldispersion=gd3 guess=read geom=check nosymm in
 tegral(ultrafinegrid)
 ----------------------------------------------------------------------

 ------------------------------------------------------
 Candidate Structure: Conf:578 Charge calc in gas phase
 ------------------------------------------------------
 Structure from the checkpoint file:  "conf-578.chk"
 Charge =  1 Multiplicity = 1

                          Input orientation:
 ---------------------------------------------------------------------
 Center     Atomic      Atomic             Coordinates (Angstroms)
 Number     Number       Type             X           Y           Z
 ---------------------------------------------------------------------
      1          7           0       -6.167928    1.639175    2.168567
      2          1           0       -6.355829    1.675756    1.134428
      3          1           0       -6.036880    0.630131    2.389821
      4          1           0       -6.951868    2.037994    2.689697
      5          6           0       -4.830192    2.268815    2.507206
      6          1           0       -4.753903    3.196340    1.933793
      7          6           0       -3.851185    1.184435    2.002573
      8          6           0       -4.691387    2.511478    4.009809
      9          1           0       -4.800496    1.558794    4.540909
     10          1           0       -3.663454    2.837544    4.199060
     11          8           0       -4.204506    0.009932    2.139805
     12          6           0       -5.653442    3.561706    4.572274
     13          1           0       -6.705614    3.248581    4.538361
     14          1           0       -5.594686    4.501433    4.006940
     15          6           0       -5.320365    3.877737    6.023861
     16          8           0       -4.335137    3.484397    6.602096
     17          8           0       -6.266441    4.664469    6.571284
     18          7           0       -2.726755    1.592257    1.407500
     19          1           0       -2.443418    2.567839    1.371995
     20          6           0       -1.970671    0.715947    0.527713
     21          1           0       -2.014506   -0.298210    0.929337
     22          6           0       -0.541084    1.267258    0.449807
     23          6           0       -2.564269    0.758418   -0.929307
     24          1           0       -2.093722   -0.041554   -1.512261
     25          1           0       -2.250857    1.706570   -1.381193
     26          8           0       -0.341496    2.462719    0.645563
     27          6           0       -4.058803    0.667993   -0.956057
     28          6           0       -4.912190    1.729280   -1.005695
     29          1           0       -4.694247    2.779324   -1.151364
     30          6           0       -4.874110   -0.520736   -0.778353
     31          6           0       -6.220757   -0.104434   -0.716781
     32          6           0       -4.569340   -1.882167   -0.652305
     33          1           0       -3.539259   -2.224578   -0.683706
     34          7           0       -6.246749    1.312803   -0.768269
     35          1           0       -6.997076    1.764981   -1.283963
     36          6           0       -6.952460   -2.351254   -0.450286
     37          1           0       -7.747594   -3.081644   -0.335502
     38          6           0       -7.276707   -0.998983   -0.553191
     39          1           0       -8.310025   -0.663433   -0.521385
     40          6           0       -5.614620   -2.785894   -0.493722
     41          1           0       -5.398458   -3.845899   -0.402885
     42          7           0        0.389086    0.351975    0.087858
     43          1           0        0.041588   -0.531544   -0.285866
     44          6           0        1.644667    0.717352   -0.571950
     45          1           0        1.715151    1.808342   -0.591754
     46          6           0        1.546446    0.114549   -1.991719
     47          6           0        2.841989    0.156371    0.248381
     48          1           0        2.792892   -0.945245    0.190476
     49          8           0        0.732630   -0.791893   -2.215998
     50          6           0        4.202335    0.635368   -0.241484
     51          1           0        4.450461    0.265775   -1.239150
     52          1           0        4.967329    0.285359    0.457138
     53          1           0        4.235897    1.731063   -0.250681
     54          8           0        2.723382    0.591649    1.594010
     55          1           0        1.839043    0.334027    1.901356
     56          7           0        2.387014    0.621952   -2.904595
     57          1           0        3.114281    1.279640   -2.630382
     58          6           0        2.682833   -0.008946   -4.186618
     59          1           0        2.325663   -1.039721   -4.164431
     60          6           0        4.217965    0.007989   -4.373001
     61          6           0        1.989340    0.759994   -5.345092
     62          1           0        2.063666    1.834640   -5.129313
     63          1           0        0.922512    0.512231   -5.320028
     64          8           0        4.650266   -0.875575   -5.187641
     65          6           0        2.575138    0.472968   -6.744186
     66          1           0        2.909490   -0.565975   -6.797883
     67          1           0        1.802555    0.619465   -7.509942
     68          6           0        3.766842    1.401648   -7.052027
     69          1           0        3.398796    2.399658   -7.319586
     70          1           0        4.411229    1.534272   -6.182268
     71          7           0        4.611522    0.943424   -8.162057
     72          1           0        4.196771    0.935260   -9.084559
     73          7           0        6.322613   -0.032328   -6.908620
     74          1           0        7.305123   -0.270048   -6.872538
     75          1           0        5.677766   -0.365058   -6.064436
     76          7           0        6.534047    0.251369   -9.224575
     77          1           0        6.436271    0.960474   -9.937939
     78          1           0        7.421445   -0.229969   -9.205624
     79          6           0        5.830971    0.380340   -8.058844
     80          8           0        4.858987    0.919266   -3.818907
     81          1           0       -5.994888    4.853198    7.490439
 ---------------------------------------------------------------------

 SCF Done:  E(RB3LYP) =  -2054.02828931     A.U. after    1 cycles

 Alpha  occ. eigenvalues --  -19.29270 -19.24701 -19.23870 -19.20712 -19.19198
 Alpha  occ. eigenvalues --  -19.17632 -19.14132 -19.13496 -14.58068 -14.49278
 Alpha  occ. eigenvalues --  -14.48123 -14.45959 -14.45748 -14.43879 -14.42466
 Alpha  occ. eigenvalues --  -14.40981 -10.42346 -10.41972 -10.41232 -10.39515
 Alpha  occ. eigenvalues --  -10.37753 -10.34621 -10.33828 -10.32830 -10.32675
 Alpha  occ. eigenvalues --  -10.32640 -10.32245 -10.31486 -10.29718 -10.29623
 Alpha  occ. eigenvalues --  -10.29503 -10.29348 -10.29303 -10.28846 -10.28669
 Alpha  occ. eigenvalues --  -10.28042 -10.28031 -10.27461 -10.26559 -10.24472
 Alpha  occ. eigenvalues --  -10.24329 -10.21780  -1.20291  -1.17497  -1.12772
 Alpha  occ. eigenvalues --   -1.12166  -1.11555  -1.09693  -1.09354  -1.08071
 Alpha  occ. eigenvalues --   -1.07262  -1.07030  -1.04805  -1.00390  -0.99475
 Alpha  occ. eigenvalues --   -0.99089  -0.97315  -0.96783  -0.93933  -0.93777
 Alpha  occ. eigenvalues --   -0.91030  -0.87867  -0.85810  -0.85327  -0.83350
 Alpha  occ. eigenvalues --   -0.83124  -0.81815  -0.79583  -0.78271  -0.77344
 Alpha  occ. eigenvalues --   -0.75560  -0.73445  -0.72851  -0.71832  -0.71214
 Alpha  occ. eigenvalues --   -0.70748  -0.70478  -0.69529  -0.69161  -0.67306
 Alpha  occ. eigenvalues --   -0.67004  -0.66275  -0.65578  -0.64925  -0.64229
 Alpha  occ. eigenvalues --   -0.63946  -0.63406  -0.63142  -0.62675  -0.60732
 Alpha  occ. eigenvalues --   -0.60397  -0.59082  -0.58894  -0.58425  -0.58207
 Alpha  occ. eigenvalues --   -0.57737  -0.57528  -0.57386  -0.56852  -0.56682
 Alpha  occ. eigenvalues --   -0.56049  -0.55065  -0.54571  -0.54412  -0.53907
 Alpha  occ. eigenvalues --   -0.53192  -0.52747  -0.52505  -0.52021  -0.51547
 Alpha  occ. eigenvalues --   -0.51463  -0.51323  -0.50556  -0.50219  -0.49987
 Alpha  occ. eigenvalues --   -0.49708  -0.49235  -0.49016  -0.48473  -0.47901
 Alpha  occ. eigenvalues --   -0.47764  -0.47695  -0.47127  -0.46691  -0.46071
 Alpha  occ. eigenvalues --   -0.45339  -0.44815  -0.44623  -0.44119  -0.43670
 Alpha  occ. eigenvalues --   -0.43631  -0.43304  -0.42994  -0.42633  -0.42488
 Alpha  occ. eigenvalues --   -0.41543  -0.41460  -0.40926  -0.39973  -0.39451
 Alpha  occ. eigenvalues --   -0.38788  -0.38598  -0.38013  -0.37558  -0.36764
 Alpha  occ. eigenvalues --   -0.36561  -0.34975  -0.34276  -0.33898  -0.32836
 Alpha  occ. eigenvalues --   -0.32749  -0.31952  -0.31362  -0.30951  -0.29646
 Alpha  occ. eigenvalues --   -0.28168  -0.27551
 Alpha virt. eigenvalues --   -0.11880  -0.11524  -0.09479  -0.08655  -0.07885
 Alpha virt. eigenvalues --   -0.07147  -0.06205  -0.04443  -0.03767  -0.03655
 Alpha virt. eigenvalues --   -0.03051  -0.02859  -0.01330  -0.01061  -0.00972

 Mulliken charges:
               1
     1  N   -0.771454
     2  H    0.439369
     3  H    0.423426
     4  H    0.398291
     5  C   -0.119348
     6  H    0.191133
     7  C    0.663042
     8  C   -0.280409
     9  H    0.197890
    10  H    0.219227
    11  O   -0.528877
    12  C   -0.385244
    13  H    0.168409
    14  H    0.198448
    15  C    0.598125
    16  O   -0.434132
    17  O   -0.559518
    18  N   -0.597642
    19  H    0.358108
    20  C   -0.075709
    21  H    0.200407
    22  C    0.617294
    23  C   -0.378595
    24  H    0.203149
    25  H    0.175549
    26  O   -0.519703
    27  C    0.112534
    28  C   -0.080119
    29  H    0.163669
    30  C    0.145363
    31  C    0.219393
    32  C   -0.188888
    33  H    0.149488
    34  N   -0.723154
    35  H    0.354960
    36  C   -0.142175
    37  H    0.154991
    38  C   -0.188246
    39  H    0.140254
    40  C   -0.133212
    41  H    0.155764
    42  N   -0.617797
    43  H    0.354219
    44  C   -0.106961
    45  H    0.188340
    46  C    0.616825
    47  C    0.150752
    48  H    0.124306
    49  O   -0.560810
    50  C   -0.480457
    51  H    0.181374
    52  H    0.173793
    53  H    0.155088
    54  O   -0.616651
    55  H    0.395927
    56  N   -0.596101
    57  H    0.357434
    58  C   -0.034224
    59  H    0.179573
    60  C    0.592365
    61  C   -0.278459
    62  H    0.141038
    63  H    0.153511
    64  O   -0.626035
    65  C   -0.270844
    66  H    0.185702
    67  H    0.129146
    68  C   -0.177207
    69  H    0.160007
    70  H    0.219868
    71  N   -0.596526
    72  H    0.344609
    73  N   -0.764601
    74  H    0.341288
    75  H    0.457050
    76  N   -0.762639
    77  H    0.358157
    78  H    0.360096
    79  C    0.764440
    80  O   -0.568781
    81  H    0.431329
 Sum of Mulliken charges =   1.00000

 Dipole moment (field-independent basis, Debye):
    X=            -17.4707    Y=              9.7893    Z=             -9.6521  Tot=             22.2311
 Quadrupole moment (field-independent basis, Debye-Ang):
   XX=            -15.1019   YY=           -212.4789   ZZ=            -46.9074
   XY=            -49.8576   XZ=           -153.7866   YZ=              3.0761

 Normal termination of Gaussian 16 at Fri May 13 15:51:47 2022.
