 Gaussian 16, Revision C.01,
 Gaussian 16:  ES64L-G16RevC.01  3-Jul-2019

 ----------------------------------------------------------------------
 # B3LYP/6-31G* empiricaldispersion=gd3 guess=read geom=check nosymm in
 tegral(ultrafinegrid)
 ----------------------------------------------------------------------

 ------------------------------------------------------
 Candidate Structure: Conf:684 Charge calc in gas phase
 ------------------------------------------------------
 Structure from the checkpoint file:  "conf-684.chk"
 Charge =  1 Multiplicity = 1

                          Input orientation:
 ---------------------------------------------------------------------
 Center     Atomic      Atomic             Coordinates (Angstroms)
 Number     Number       Type             X           Y           Z
 ---------------------------------------------------------------------
      1          7           0       -4.098919    1.184091    4.424810
      2          1           0       -5.100091    1.211392    4.638614
      3          1           0       -3.835041    0.188436    4.157882
      4          1           0       -3.578745    1.495893    5.249230
      5          6           0       -3.731690    1.937527    3.160049
      6          1           0       -4.535042    2.641285    2.928092
      7          6           0       -3.605980    0.801845    2.110706
      8          6           0       -2.374101    2.637926    3.313135
      9          1           0       -1.631752    1.911368    3.666005
     10          1           0       -2.028148    2.931177    2.315447
     11          8           0       -3.485239   -0.354025    2.535525
     12          6           0       -2.395087    3.865957    4.225580
     13          1           0       -2.759276    3.647257    5.240218
     14          1           0       -3.056098    4.647433    3.832634
     15          6           0       -0.993342    4.443193    4.368171
     16          8           0        0.005944    3.932461    3.918385
     17          8           0       -1.017500    5.590126    5.070695
     18          7           0       -3.573071    1.199122    0.838241
     19          1           0       -3.507629    2.203890    0.673887
     20          6           0       -2.819434    0.482115   -0.204354
     21          1           0       -2.599345   -0.522211    0.162134
     22          6           0       -1.527810    1.315943   -0.370666
     23          6           0       -3.630569    0.411196   -1.520565
     24          1           0       -4.010184    1.417969   -1.737883
     25          1           0       -4.502536   -0.227353   -1.341314
     26          8           0       -1.578648    2.537030   -0.168975
     27          6           0       -2.816518   -0.081062   -2.678637
     28          6           0       -2.664976   -1.380117   -3.103873
     29          1           0       -3.116084   -2.287624   -2.725467
     30          6           0       -1.993902    0.732443   -3.540092
     31          6           0       -1.381367   -0.142075   -4.476269
     32          6           0       -1.701393    2.106617   -3.593923
     33          1           0       -2.133216    2.792221   -2.870215
     34          7           0       -1.820927   -1.418197   -4.191738
     35          1           0       -1.479383   -2.259903   -4.629154
     36          6           0       -0.241915    1.682478   -5.499740
     37          1           0        0.431758    2.074032   -6.256683
     38          6           0       -0.511406    0.319480   -5.467530
     39          1           0       -0.054757   -0.362869   -6.178085
     40          6           0       -0.825973    2.567733   -4.569418
     41          1           0       -0.589685    3.626645   -4.622495
     42          7           0       -0.426575    0.629905   -0.703232
     43          1           0       -0.513981   -0.314680   -1.089185
     44          6           0        0.817468    1.264753   -1.126945
     45          1           0        0.587789    2.226536   -1.597897
     46          6           0        1.445513    0.284220   -2.145448
     47          6           0        1.792961    1.471526    0.063368
     48          1           0        2.691326    1.956708   -0.334093
     49          8           0        0.970211   -0.847695   -2.293632
     50          6           0        1.213837    2.328148    1.187860
     51          1           0        0.864169    3.298355    0.824262
     52          1           0        1.973627    2.481969    1.958590
     53          1           0        0.360254    1.823558    1.653904
     54          8           0        2.247357    0.214792    0.551616
     55          1           0        1.461578   -0.294129    0.811245
     56          7           0        2.527822    0.742756   -2.783544
     57          1           0        2.902581    1.672958   -2.613434
     58          6           0        3.445756   -0.095683   -3.544996
     59          1           0        3.533756   -1.065373   -3.047788
     60          6           0        4.837806    0.579401   -3.522259
     61          6           0        2.922125   -0.322357   -4.990504
     62          1           0        2.443134    0.605320   -5.325533
     63          1           0        2.119716   -1.064092   -4.927175
     64          8           0        4.864365    1.833847   -3.333908
     65          6           0        3.982005   -0.766393   -6.022658
     66          1           0        4.716712   -1.408339   -5.529090
     67          1           0        3.497326   -1.355387   -6.809556
     68          6           0        4.711987    0.439713   -6.680264
     69          1           0        4.405793    0.563303   -7.723478
     70          1           0        4.440307    1.356293   -6.154066
     71          7           0        6.183429    0.346877   -6.649653
     72          1           0        6.578888   -0.515330   -7.008120
     73          7           0        6.652191    2.238585   -5.321635
     74          1           0        6.356165    2.267972   -4.318810
     75          1           0        5.945946    2.706526   -5.878926
     76          7           0        8.080931    0.403765   -5.313612
     77          1           0        7.977716   -0.551286   -4.986732
     78          1           0        8.621004    0.981466   -4.679977
     79          6           0        6.929745    0.978611   -5.731103
     80          8           0        5.811797   -0.166889   -3.779537
     81          1           0       -0.098722    5.915502    5.136138
 ---------------------------------------------------------------------

 SCF Done:  E(RB3LYP) =  -2054.02255130     A.U. after    1 cycles

 Alpha  occ. eigenvalues --  -19.29841 -19.27446 -19.24530 -19.21218 -19.20226
 Alpha  occ. eigenvalues --  -19.17460 -19.14273 -19.13302 -14.60829 -14.49290
 Alpha  occ. eigenvalues --  -14.45777 -14.44488 -14.44151 -14.44090 -14.42247
 Alpha  occ. eigenvalues --  -14.40618 -10.43911 -10.42979 -10.41334 -10.40703
 Alpha  occ. eigenvalues --  -10.37993 -10.34435 -10.33889 -10.33867 -10.33368
 Alpha  occ. eigenvalues --  -10.31549 -10.30345 -10.30233 -10.29702 -10.29009
 Alpha  occ. eigenvalues --  -10.28585 -10.28157 -10.26619 -10.25395 -10.25082
 Alpha  occ. eigenvalues --  -10.25066 -10.24822 -10.24759 -10.24644 -10.24282
 Alpha  occ. eigenvalues --  -10.24126 -10.23370  -1.20906  -1.19803  -1.14595
 Alpha  occ. eigenvalues --   -1.12984  -1.12167  -1.09492  -1.09334  -1.07717
 Alpha  occ. eigenvalues --   -1.06914  -1.06236  -1.04480  -1.00659  -0.99121
 Alpha  occ. eigenvalues --   -0.98585  -0.97200  -0.96449  -0.95188  -0.90453
 Alpha  occ. eigenvalues --   -0.89735  -0.87648  -0.85699  -0.84556  -0.83094
 Alpha  occ. eigenvalues --   -0.79848  -0.79766  -0.79374  -0.78609  -0.77449
 Alpha  occ. eigenvalues --   -0.75151  -0.74651  -0.73706  -0.73437  -0.71364
 Alpha  occ. eigenvalues --   -0.70614  -0.70020  -0.68763  -0.68589  -0.66939
 Alpha  occ. eigenvalues --   -0.66131  -0.65757  -0.65484  -0.64918  -0.64064
 Alpha  occ. eigenvalues --   -0.63387  -0.62832  -0.62155  -0.61100  -0.60781
 Alpha  occ. eigenvalues --   -0.60317  -0.59815  -0.59052  -0.58376  -0.57990
 Alpha  occ. eigenvalues --   -0.57717  -0.57315  -0.56246  -0.56119  -0.55387
 Alpha  occ. eigenvalues --   -0.55089  -0.54164  -0.54149  -0.53807  -0.53498
 Alpha  occ. eigenvalues --   -0.53064  -0.52669  -0.52188  -0.51623  -0.51270
 Alpha  occ. eigenvalues --   -0.50725  -0.50509  -0.50000  -0.49771  -0.49271
 Alpha  occ. eigenvalues --   -0.49171  -0.48826  -0.48686  -0.48271  -0.47871
 Alpha  occ. eigenvalues --   -0.47583  -0.47019  -0.46719  -0.46520  -0.46058
 Alpha  occ. eigenvalues --   -0.45808  -0.45361  -0.44431  -0.43956  -0.43772
 Alpha  occ. eigenvalues --   -0.43045  -0.42466  -0.42124  -0.41939  -0.41877
 Alpha  occ. eigenvalues --   -0.41648  -0.41187  -0.40332  -0.40078  -0.39815
 Alpha  occ. eigenvalues --   -0.39598  -0.38814  -0.38330  -0.38146  -0.36466
 Alpha  occ. eigenvalues --   -0.35255  -0.35073  -0.34733  -0.33632  -0.32963
 Alpha  occ. eigenvalues --   -0.31500  -0.31095  -0.29382  -0.28776  -0.28486
 Alpha  occ. eigenvalues --   -0.27263  -0.26876
 Alpha virt. eigenvalues --   -0.12993  -0.12068  -0.09497  -0.08062  -0.07677
 Alpha virt. eigenvalues --   -0.07450  -0.06825  -0.04964  -0.03786  -0.03076
 Alpha virt. eigenvalues --   -0.02289  -0.01664  -0.01516  -0.00760  -0.00313

 Mulliken charges:
               1
     1  N   -0.753283
     2  H    0.418633
     3  H    0.433469
     4  H    0.414565
     5  C   -0.125427
     6  H    0.213575
     7  C    0.639635
     8  C   -0.319677
     9  H    0.197456
    10  H    0.244337
    11  O   -0.524141
    12  C   -0.375921
    13  H    0.165348
    14  H    0.205560
    15  C    0.598183
    16  O   -0.432208
    17  O   -0.556985
    18  N   -0.563610
    19  H    0.357637
    20  C   -0.098904
    21  H    0.194027
    22  C    0.645427
    23  C   -0.348715
    24  H    0.163620
    25  H    0.170231
    26  O   -0.566080
    27  C    0.028950
    28  C    0.008617
    29  H    0.159669
    30  C    0.084003
    31  C    0.335433
    32  C   -0.218295
    33  H    0.134736
    34  N   -0.682319
    35  H    0.339408
    36  C   -0.149431
    37  H    0.127873
    38  C   -0.148286
    39  H    0.132074
    40  C   -0.148797
    41  H    0.131432
    42  N   -0.614782
    43  H    0.372480
    44  C   -0.098223
    45  H    0.183876
    46  C    0.668027
    47  C    0.131988
    48  H    0.160209
    49  O   -0.570061
    50  C   -0.437955
    51  H    0.157167
    52  H    0.170156
    53  H    0.115503
    54  O   -0.612667
    55  H    0.386684
    56  N   -0.615674
    57  H    0.352285
    58  C   -0.019079
    59  H    0.174959
    60  C    0.581861
    61  C   -0.287147
    62  H    0.146209
    63  H    0.159474
    64  O   -0.622761
    65  C   -0.283678
    66  H    0.181309
    67  H    0.141319
    68  C   -0.166305
    69  H    0.172327
    70  H    0.171116
    71  N   -0.544014
    72  H    0.347084
    73  N   -0.723992
    74  H    0.393814
    75  H    0.341311
    76  N   -0.699574
    77  H    0.371037
    78  H    0.365576
    79  C    0.694561
    80  O   -0.608452
    81  H    0.432214
 Sum of Mulliken charges =   1.00000

 Dipole moment (field-independent basis, Debye):
    X=             -9.3147    Y=              6.7780    Z=              4.7462  Tot=             12.4592
 Quadrupole moment (field-independent basis, Debye-Ang):
   XX=           -124.5198   YY=           -207.4682   ZZ=            -84.0783
   XY=            -19.9641   XZ=           -119.6233   YZ=             44.3572

 Normal termination of Gaussian 16 at Fri May 13 15:51:54 2022.
