 Gaussian 16, Revision C.01,
 Gaussian 16:  ES64L-G16RevC.01  3-Jul-2019

 ----------------------------------------------------------------------
 # B3LYP/6-31G* empiricaldispersion=gd3 guess=read geom=check nosymm in
 tegral(ultrafinegrid)
 ----------------------------------------------------------------------

 ------------------------------------------------------
 Candidate Structure: Conf:669 Charge calc in gas phase
 ------------------------------------------------------
 Structure from the checkpoint file:  "conf-669.chk"
 Charge =  1 Multiplicity = 1

                          Input orientation:
 ---------------------------------------------------------------------
 Center     Atomic      Atomic             Coordinates (Angstroms)
 Number     Number       Type             X           Y           Z
 ---------------------------------------------------------------------
      1          7           0       -3.210052   -2.308710    3.626752
      2          1           0       -4.205415   -2.553505    3.647315
      3          1           0       -2.790365   -2.775556    2.779322
      4          1           0       -2.773185   -2.625589    4.497588
      5          6           0       -2.967682   -0.838486    3.335786
      6          1           0       -3.800382   -0.260362    3.744358
      7          6           0       -2.892264   -0.819933    1.789326
      8          6           0       -1.624852   -0.436069    3.974461
      9          1           0       -1.675102   -0.662225    5.048309
     10          1           0       -0.817748   -1.021182    3.516590
     11          8           0       -2.579881   -1.876493    1.229727
     12          6           0       -1.309384    1.064911    3.818801
     13          1           0       -2.137587    1.663796    4.215062
     14          1           0       -1.118654    1.337284    2.778645
     15          6           0       -0.095436    1.387628    4.674662
     16          8           0       -0.103256    1.429275    5.880549
     17          8           0        1.020536    1.562041    3.923900
     18          7           0       -3.112903    0.343432    1.159338
     19          1           0       -3.220105    1.180821    1.722096
     20          6           0       -2.553260    0.557763   -0.192980
     21          1           0       -2.735633   -0.355546   -0.762150
     22          6           0       -1.049833    0.804418    0.024076
     23          6           0       -3.181292    1.770453   -0.900192
     24          1           0       -3.108271    2.635582   -0.231592
     25          1           0       -4.244743    1.578459   -1.081833
     26          8           0       -0.682511    1.796199    0.662513
     27          6           0       -2.452928    2.073076   -2.182811
     28          6           0       -1.363794    2.906483   -2.298430
     29          1           0       -0.859547    3.473090   -1.528205
     30          6           0       -2.695882    1.536119   -3.497860
     31          6           0       -1.721534    2.110034   -4.369263
     32          6           0       -3.640627    0.644320   -4.038582
     33          1           0       -4.394421    0.187033   -3.402807
     34          7           0       -0.920327    2.925847   -3.601156
     35          1           0       -0.157539    3.490236   -3.944989
     36          6           0       -2.655973    0.973745   -6.250255
     37          1           0       -2.696041    0.782249   -7.320151
     38          6           0       -1.693619    1.845888   -5.742491
     39          1           0       -0.962830    2.321440   -6.390739
     40          6           0       -3.614463    0.369807   -5.402870
     41          1           0       -4.351004   -0.303935   -5.830160
     42          7           0       -0.244573   -0.124320   -0.496459
     43          1           0       -0.616691   -0.913057   -1.011963
     44          6           0        1.199033   -0.107420   -0.372434
     45          1           0        1.511697    0.927493   -0.206431
     46          6           0        1.740849   -0.635299   -1.702870
     47          6           0        1.654030   -0.974445    0.841799
     48          1           0        1.421868   -2.019164    0.606778
     49          8           0        1.038344   -1.472089   -2.338784
     50          6           0        3.140974   -0.809613    1.148499
     51          1           0        3.788421   -1.067969    0.304910
     52          1           0        3.410253   -1.439759    2.000878
     53          1           0        3.358948    0.234117    1.413194
     54          8           0        0.848749   -0.665732    1.980413
     55          1           0        1.113115    0.210552    2.313461
     56          7           0        2.909547   -0.179797   -2.097067
     57          1           0        3.606507    0.295624   -1.481550
     58          6           0        3.659372   -0.656948   -3.252624
     59          1           0        3.514867   -1.739070   -3.337680
     60          6           0        5.180711   -0.406577   -2.906435
     61          6           0        3.227625    0.079918   -4.536116
     62          1           0        3.776050    1.025693   -4.602966
     63          1           0        2.162989    0.342633   -4.456592
     64          8           0        5.965939   -0.727046   -3.809267
     65          6           0        3.452175   -0.712119   -5.830099
     66          1           0        3.101237   -0.106042   -6.676335
     67          1           0        4.525015   -0.886472   -5.955115
     68          6           0        2.736308   -2.083054   -5.831764
     69          1           0        2.580119   -2.462522   -6.848001
     70          1           0        3.344832   -2.833372   -5.323737
     71          7           0        1.455859   -2.071747   -5.102949
     72          1           0        1.527042   -2.132111   -4.080659
     73          7           0        0.140562   -1.106922   -6.780223
     74          1           0       -0.686151   -0.585480   -7.034539
     75          1           0        0.853657   -1.245931   -7.478626
     76          7           0       -0.636954   -1.259842   -4.594827
     77          1           0       -0.353354   -1.279236   -3.614764
     78          1           0       -1.465189   -0.733975   -4.843718
     79          6           0        0.336458   -1.469404   -5.499239
     80          8           0        5.358151    0.099582   -1.760528
     81          1           0        1.764750    1.722359    4.537111
 ---------------------------------------------------------------------

 SCF Done:  E(RB3LYP) =  -2054.02290423     A.U. after    1 cycles

 Alpha  occ. eigenvalues --  -19.30793 -19.28574 -19.24663 -19.23695 -19.21852
 Alpha  occ. eigenvalues --  -19.21365 -19.10402 -19.09153 -14.62006 -14.51660
 Alpha  occ. eigenvalues --  -14.48223 -14.48121 -14.46476 -14.46131 -14.46028
 Alpha  occ. eigenvalues --  -14.42552 -10.45369 -10.43426 -10.43168 -10.42547
 Alpha  occ. eigenvalues --  -10.39244 -10.37471 -10.35692 -10.34820 -10.33025
 Alpha  occ. eigenvalues --  -10.32308 -10.32294 -10.32199 -10.31920 -10.31229
 Alpha  occ. eigenvalues --  -10.30877 -10.29608 -10.29174 -10.29154 -10.29068
 Alpha  occ. eigenvalues --  -10.28647 -10.28579 -10.28206 -10.26318 -10.25296
 Alpha  occ. eigenvalues --  -10.25122 -10.24722  -1.21288  -1.21131  -1.15859
 Alpha  occ. eigenvalues --   -1.14130  -1.12491  -1.12396  -1.11747  -1.10855
 Alpha  occ. eigenvalues --   -1.08135  -1.07829  -1.03594  -1.02861  -1.01386
 Alpha  occ. eigenvalues --   -1.00160  -0.99216  -0.95937  -0.94763  -0.94357
 Alpha  occ. eigenvalues --   -0.92063  -0.88703  -0.87422  -0.86415  -0.85720
 Alpha  occ. eigenvalues --   -0.83851  -0.82428  -0.80940  -0.80034  -0.79669
 Alpha  occ. eigenvalues --   -0.76877  -0.75840  -0.75539  -0.74434  -0.73844
 Alpha  occ. eigenvalues --   -0.72929  -0.72466  -0.71047  -0.70375  -0.69774
 Alpha  occ. eigenvalues --   -0.69635  -0.69010  -0.68175  -0.67553  -0.66434
 Alpha  occ. eigenvalues --   -0.64974  -0.64850  -0.64337  -0.63336  -0.63195
 Alpha  occ. eigenvalues --   -0.61943  -0.61233  -0.61028  -0.60320  -0.59645
 Alpha  occ. eigenvalues --   -0.59427  -0.58722  -0.58506  -0.58232  -0.57626
 Alpha  occ. eigenvalues --   -0.57163  -0.56679  -0.56002  -0.55525  -0.54856
 Alpha  occ. eigenvalues --   -0.54674  -0.54204  -0.53898  -0.53561  -0.53298
 Alpha  occ. eigenvalues --   -0.53096  -0.52721  -0.52414  -0.52040  -0.51902
 Alpha  occ. eigenvalues --   -0.51107  -0.50417  -0.50368  -0.50057  -0.49602
 Alpha  occ. eigenvalues --   -0.49383  -0.49184  -0.48922  -0.48387  -0.47824
 Alpha  occ. eigenvalues --   -0.47489  -0.47235  -0.46370  -0.45502  -0.45363
 Alpha  occ. eigenvalues --   -0.44733  -0.43934  -0.43770  -0.43074  -0.42963
 Alpha  occ. eigenvalues --   -0.42649  -0.42172  -0.41790  -0.41244  -0.41185
 Alpha  occ. eigenvalues --   -0.40619  -0.39520  -0.38797  -0.38366  -0.38045
 Alpha  occ. eigenvalues --   -0.37705  -0.37392  -0.36666  -0.35755  -0.35418
 Alpha  occ. eigenvalues --   -0.34583  -0.33306  -0.32739  -0.30714  -0.25396
 Alpha  occ. eigenvalues --   -0.25251  -0.23378
 Alpha virt. eigenvalues --   -0.14673  -0.12451  -0.11702  -0.10355  -0.08852
 Alpha virt. eigenvalues --   -0.08507  -0.07720  -0.07392  -0.06826  -0.06348
 Alpha virt. eigenvalues --   -0.04618  -0.03860  -0.03409  -0.02665  -0.02339

 Mulliken charges:
               1
     1  N   -0.745671
     2  H    0.420131
     3  H    0.435345
     4  H    0.420603
     5  C   -0.131004
     6  H    0.212641
     7  C    0.668472
     8  C   -0.314223
     9  H    0.187956
    10  H    0.233692
    11  O   -0.526612
    12  C   -0.405498
    13  H    0.179864
    14  H    0.238627
    15  C    0.583655
    16  O   -0.428978
    17  O   -0.561636
    18  N   -0.590494
    19  H    0.357543
    20  C   -0.064709
    21  H    0.180291
    22  C    0.655697
    23  C   -0.363582
    24  H    0.172694
    25  H    0.172116
    26  O   -0.566977
    27  C    0.033762
    28  C    0.027360
    29  H    0.194086
    30  C    0.073746
    31  C    0.318818
    32  C   -0.219676
    33  H    0.137489
    34  N   -0.681884
    35  H    0.350265
    36  C   -0.212633
    37  H    0.149688
    38  C   -0.164139
    39  H    0.152544
    40  C   -0.157612
    41  H    0.152348
    42  N   -0.573831
    43  H    0.353008
    44  C   -0.088311
    45  H    0.184600
    46  C    0.631071
    47  C    0.143840
    48  H    0.149411
    49  O   -0.628579
    50  C   -0.491014
    51  H    0.205238
    52  H    0.168061
    53  H    0.149761
    54  O   -0.664884
    55  H    0.423546
    56  N   -0.583614
    57  H    0.373783
    58  C   -0.094659
    59  H    0.138811
    60  C    0.597124
    61  C   -0.260717
    62  H    0.171654
    63  H    0.105288
    64  O   -0.565913
    65  C   -0.272527
    66  H    0.118601
    67  H    0.216787
    68  C   -0.192854
    69  H    0.160191
    70  H    0.205822
    71  N   -0.605079
    72  H    0.402243
    73  N   -0.774489
    74  H    0.367295
    75  H    0.377751
    76  N   -0.806363
    77  H    0.395908
    78  H    0.377712
    79  C    0.786047
    80  O   -0.608374
    81  H    0.433548
 Sum of Mulliken charges =   1.00000

 Dipole moment (field-independent basis, Debye):
    X=            -23.1002    Y=             -4.0885    Z=              1.7685  Tot=             23.5258
 Quadrupole moment (field-independent basis, Debye-Ang):
   XX=           -266.9775   YY=           -213.0150   ZZ=           -100.9699
   XY=             23.1169   XZ=             -8.2089   YZ=            -25.2152

 Normal termination of Gaussian 16 at Fri May 13 15:51:57 2022.
