 Gaussian 16, Revision C.01,
 Gaussian 16:  ES64L-G16RevC.01  3-Jul-2019

 ----------------------------------------------------------------------
 # B3LYP/6-31G* empiricaldispersion=gd3 guess=read geom=check nosymm in
 tegral(ultrafinegrid)
 ----------------------------------------------------------------------

 ------------------------------------------------------
 Candidate Structure: Conf:472 Charge calc in gas phase
 ------------------------------------------------------
 Structure from the checkpoint file:  "conf-472.chk"
 Charge =  1 Multiplicity = 1

                          Input orientation:
 ---------------------------------------------------------------------
 Center     Atomic      Atomic             Coordinates (Angstroms)
 Number     Number       Type             X           Y           Z
 ---------------------------------------------------------------------
      1          7           0       -5.093710   -0.040905    3.917169
      2          1           0       -6.045206    0.124006    4.250735
      3          1           0       -5.044346   -0.855569    3.235915
      4          1           0       -4.455176   -0.258860    4.702352
      5          6           0       -4.529966    1.096126    3.093327
      6          1           0       -5.377070    1.703966    2.763972
      7          6           0       -3.935337    0.369423    1.854372
      8          6           0       -3.526840    1.948752    3.907332
      9          1           0       -3.527432    2.964831    3.500738
     10          1           0       -3.916303    2.040215    4.927937
     11          8           0       -4.115864   -0.852878    1.750241
     12          6           0       -2.060427    1.463822    3.913917
     13          1           0       -1.511629    2.032726    4.675169
     14          1           0       -1.552353    1.648170    2.964736
     15          6           0       -1.850206   -0.000603    4.222879
     16          8           0       -1.072452   -0.738201    3.682891
     17          8           0       -2.658252   -0.431674    5.268333
     18          7           0       -3.262914    1.149740    1.033158
     19          1           0       -3.038952    2.109681    1.288124
     20          6           0       -2.502460    0.720480   -0.131015
     21          1           0       -2.293540   -0.347820   -0.036172
     22          6           0       -1.207289    1.550846   -0.072867
     23          6           0       -3.349058    0.995268   -1.404217
     24          1           0       -2.811941    0.670909   -2.302042
     25          1           0       -3.471304    2.082952   -1.479357
     26          8           0       -1.162482    2.559908    0.649122
     27          6           0       -4.690503    0.348476   -1.246962
     28          6           0       -5.099262   -0.840890   -1.798859
     29          1           0       -4.588581   -1.481013   -2.507721
     30          6           0       -5.720729    0.749605   -0.325118
     31          6           0       -6.742307   -0.240869   -0.379562
     32          6           0       -5.857020    1.818571    0.578858
     33          1           0       -5.089827    2.587280    0.639710
     34          7           0       -6.331069   -1.195909   -1.286711
     35          1           0       -6.880521   -1.982984   -1.596855
     36          6           0       -8.004077    0.904961    1.290477
     37          1           0       -8.888562    0.993320    1.915012
     38          6           0       -7.892821   -0.169425    0.413606
     39          1           0       -8.671480   -0.924762    0.347928
     40          6           0       -6.993941    1.887838    1.376664
     41          1           0       -7.119208    2.718519    2.066067
     42          7           0       -0.214507    1.108457   -0.842640
     43          1           0       -0.348020    0.330501   -1.483323
     44          6           0        1.059202    1.783069   -1.015220
     45          1           0        0.922215    2.848712   -0.802660
     46          6           0        1.464695    1.545192   -2.481213
     47          6           0        2.154200    1.191539   -0.063702
     48          1           0        3.044861    1.833467   -0.174718
     49          8           0        0.849351    0.751292   -3.186466
     50          6           0        1.714826    1.217630    1.397745
     51          1           0        1.385451    2.217489    1.697709
     52          1           0        2.550467    0.901125    2.029052
     53          1           0        0.891570    0.514933    1.559231
     54          8           0        2.448403   -0.140093   -0.414450
     55          1           0        3.145053   -0.130012   -1.110767
     56          7           0        2.562227    2.232653   -2.906764
     57          1           0        3.132961    2.634643   -2.170216
     58          6           0        3.352497    1.676049   -4.010561
     59          1           0        2.672465    1.449902   -4.833701
     60          6           0        4.040333    0.370848   -3.549889
     61          6           0        4.377474    2.758686   -4.433628
     62          1           0        5.108007    2.888016   -3.619853
     63          1           0        3.817634    3.699490   -4.491945
     64          8           0        4.315775   -0.472688   -4.461458
     65          6           0        5.128958    2.566612   -5.774366
     66          1           0        4.562061    1.908137   -6.445032
     67          1           0        5.189998    3.534836   -6.284052
     68          6           0        6.572835    2.046757   -5.662852
     69          1           0        7.069593    2.133792   -6.637341
     70          1           0        7.132755    2.658223   -4.944507
     71          7           0        6.571195    0.647099   -5.231041
     72          1           0        5.648186    0.181572   -5.322850
     73          7           0        8.488323    0.700143   -3.896713
     74          1           0        9.082014    0.224683   -3.232187
     75          1           0        8.979128    1.252821   -4.585139
     76          7           0        6.875895   -0.986485   -3.650124
     77          1           0        5.850134   -1.126763   -3.686185
     78          1           0        7.363375   -1.336430   -2.838502
     79          6           0        7.313779    0.122691   -4.256416
     80          8           0        4.351617    0.268859   -2.338848
     81          1           0       -2.393702   -1.355226    5.454205
 ---------------------------------------------------------------------

 SCF Done:  E(RB3LYP) =  -2054.03418158     A.U. after    1 cycles

 Alpha  occ. eigenvalues --  -19.31838 -19.25516 -19.24432 -19.20282 -19.18033
 Alpha  occ. eigenvalues --  -19.16844 -19.15172 -19.14920 -14.56557 -14.47063
 Alpha  occ. eigenvalues --  -14.47052 -14.46241 -14.44305 -14.44028 -14.43733
 Alpha  occ. eigenvalues --  -14.41424 -10.43427 -10.41786 -10.41170 -10.37571
 Alpha  occ. eigenvalues --  -10.37211 -10.34737 -10.33220 -10.32828 -10.32774
 Alpha  occ. eigenvalues --  -10.31265 -10.31092 -10.30529 -10.30167 -10.29346
 Alpha  occ. eigenvalues --  -10.29280 -10.28385 -10.27754 -10.27691 -10.27660
 Alpha  occ. eigenvalues --  -10.27426 -10.27299 -10.27002 -10.26690 -10.26455
 Alpha  occ. eigenvalues --  -10.25980 -10.22297  -1.21737  -1.16813  -1.13254
 Alpha  occ. eigenvalues --   -1.12157  -1.10806  -1.10688  -1.09994  -1.08206
 Alpha  occ. eigenvalues --   -1.06158  -1.05142  -1.04735  -1.00477  -1.00225
 Alpha  occ. eigenvalues --   -0.99231  -0.98432  -0.97918  -0.93262  -0.92843
 Alpha  occ. eigenvalues --   -0.89587  -0.86829  -0.86613  -0.84682  -0.82958
 Alpha  occ. eigenvalues --   -0.82461  -0.80723  -0.80275  -0.78030  -0.77292
 Alpha  occ. eigenvalues --   -0.75350  -0.73767  -0.72148  -0.72058  -0.72018
 Alpha  occ. eigenvalues --   -0.71067  -0.70334  -0.68318  -0.68157  -0.67907
 Alpha  occ. eigenvalues --   -0.67199  -0.66495  -0.65447  -0.65071  -0.64244
 Alpha  occ. eigenvalues --   -0.63921  -0.62921  -0.62251  -0.60753  -0.60218
 Alpha  occ. eigenvalues --   -0.59870  -0.59201  -0.59038  -0.58524  -0.58214
 Alpha  occ. eigenvalues --   -0.57915  -0.57434  -0.57003  -0.56361  -0.55962
 Alpha  occ. eigenvalues --   -0.55580  -0.55176  -0.54791  -0.54372  -0.53910
 Alpha  occ. eigenvalues --   -0.53348  -0.53008  -0.52489  -0.52129  -0.52034
 Alpha  occ. eigenvalues --   -0.51548  -0.51025  -0.50620  -0.50122  -0.49805
 Alpha  occ. eigenvalues --   -0.49718  -0.49417  -0.48956  -0.48733  -0.48554
 Alpha  occ. eigenvalues --   -0.48360  -0.47313  -0.47143  -0.46906  -0.46470
 Alpha  occ. eigenvalues --   -0.45831  -0.45039  -0.44650  -0.44279  -0.43945
 Alpha  occ. eigenvalues --   -0.43799  -0.43231  -0.43189  -0.42903  -0.42552
 Alpha  occ. eigenvalues --   -0.42255  -0.41958  -0.41604  -0.41074  -0.40278
 Alpha  occ. eigenvalues --   -0.39218  -0.38521  -0.37753  -0.37283  -0.36472
 Alpha  occ. eigenvalues --   -0.35768  -0.34616  -0.34452  -0.34003  -0.33613
 Alpha  occ. eigenvalues --   -0.31714  -0.31005  -0.30704  -0.30058  -0.29063
 Alpha  occ. eigenvalues --   -0.28746  -0.28539
 Alpha virt. eigenvalues --   -0.12065  -0.10417  -0.08943  -0.07228  -0.06737
 Alpha virt. eigenvalues --   -0.06326  -0.05918  -0.04340  -0.04120  -0.03155
 Alpha virt. eigenvalues --   -0.02986  -0.01586  -0.01552  -0.00593   0.00288

 Mulliken charges:
               1
     1  N   -0.781206
     2  H    0.403771
     3  H    0.424692
     4  H    0.424309
     5  C   -0.095773
     6  H    0.211508
     7  C    0.662457
     8  C   -0.322626
     9  H    0.199187
    10  H    0.183021
    11  O   -0.553153
    12  C   -0.375947
    13  H    0.212198
    14  H    0.232810
    15  C    0.573587
    16  O   -0.403388
    17  O   -0.608155
    18  N   -0.586992
    19  H    0.365526
    20  C   -0.079628
    21  H    0.205187
    22  C    0.656056
    23  C   -0.362666
    24  H    0.183197
    25  H    0.167539
    26  O   -0.568779
    27  C    0.072862
    28  C    0.022666
    29  H    0.175559
    30  C    0.089672
    31  C    0.332972
    32  C   -0.247466
    33  H    0.129961
    34  N   -0.687014
    35  H    0.343239
    36  C   -0.171783
    37  H    0.140679
    38  C   -0.161619
    39  H    0.146617
    40  C   -0.175175
    41  H    0.136144
    42  N   -0.584476
    43  H    0.365410
    44  C   -0.090199
    45  H    0.177251
    46  C    0.615832
    47  C    0.142293
    48  H    0.112488
    49  O   -0.527132
    50  C   -0.455573
    51  H    0.143399
    52  H    0.158479
    53  H    0.159479
    54  O   -0.664744
    55  H    0.451240
    56  N   -0.592938
    57  H    0.328913
    58  C   -0.040700
    59  H    0.186042
    60  C    0.615779
    61  C   -0.299494
    62  H    0.141643
    63  H    0.166544
    64  O   -0.621410
    65  C   -0.304149
    66  H    0.177661
    67  H    0.163531
    68  C   -0.150710
    69  H    0.171410
    70  H    0.162641
    71  N   -0.599451
    72  H    0.405760
    73  N   -0.751038
    74  H    0.363542
    75  H    0.368821
    76  N   -0.744825
    77  H    0.411987
    78  H    0.348208
    79  C    0.750460
    80  O   -0.608691
    81  H    0.432675
 Sum of Mulliken charges =   1.00000

 Dipole moment (field-independent basis, Debye):
    X=             -3.7791    Y=              4.7628    Z=              5.3284  Tot=              8.0844
 Quadrupole moment (field-independent basis, Debye-Ang):
   XX=             17.2823   YY=           -223.4405   ZZ=           -142.8385
   XY=             31.2689   XZ=           -124.6053   YZ=            -11.7706

 Normal termination of Gaussian 16 at Fri May 13 15:51:51 2022.
