 Gaussian 16, Revision C.01,
 Gaussian 16:  ES64L-G16RevC.01  3-Jul-2019

 ----------------------------------------------------------------------
 # B3LYP/6-31G* empiricaldispersion=gd3 guess=read geom=check nosymm in
 tegral(ultrafinegrid)
 ----------------------------------------------------------------------

 ------------------------------------------------------
 Candidate Structure: Conf:549 Charge calc in gas phase
 ------------------------------------------------------
 Structure from the checkpoint file:  "conf-549.chk"
 Charge =  1 Multiplicity = 1

                          Input orientation:
 ---------------------------------------------------------------------
 Center     Atomic      Atomic             Coordinates (Angstroms)
 Number     Number       Type             X           Y           Z
 ---------------------------------------------------------------------
      1          7           0       -1.478262   -1.531769    0.713436
      2          1           0       -1.496741   -2.536010    0.904088
      3          1           0       -1.439631   -1.353910   -0.300677
      4          1           0       -0.584283   -1.082600    1.085047
      5          6           0       -2.700092   -0.799437    1.237380
      6          1           0       -3.564353   -1.238135    0.726099
      7          6           0       -2.478836    0.622614    0.667886
      8          6           0       -2.838384   -0.948254    2.748488
      9          1           0       -1.963998   -0.526666    3.254590
     10          1           0       -3.698095   -0.352767    3.074622
     11          8           0       -1.974131    0.704737   -0.460858
     12          6           0       -3.068772   -2.388945    3.215100
     13          1           0       -2.208406   -3.045008    3.025207
     14          1           0       -3.926178   -2.846876    2.705229
     15          6           0       -3.336792   -2.431698    4.712536
     16          8           0       -3.356265   -1.462066    5.435918
     17          8           0       -3.545706   -3.694681    5.125323
     18          7           0       -2.782217    1.658838    1.451108
     19          1           0       -3.240625    1.497219    2.340449
     20          6           0       -2.464811    3.058619    1.104010
     21          1           0       -2.594092    3.151656    0.021582
     22          6           0       -0.972277    3.266095    1.491900
     23          6           0       -3.389859    4.037078    1.861502
     24          1           0       -3.313939    5.009813    1.365460
     25          1           0       -2.978094    4.179690    2.865976
     26          8           0       -0.635804    3.914683    2.470323
     27          6           0       -4.813645    3.570952    1.937704
     28          6           0       -5.849259    3.854016    1.081213
     29          1           0       -5.875879    4.519458    0.228917
     30          6           0       -5.330313    2.631907    2.903353
     31          6           0       -6.685115    2.371031    2.557207
     32          6           0       -4.769695    1.963878    4.010606
     33          1           0       -3.755400    2.185483    4.341517
     34          7           0       -6.971884    3.136842    1.445749
     35          1           0       -7.879030    3.219210    1.012323
     36          6           0       -6.884231    0.799776    4.343068
     37          1           0       -7.472191    0.087819    4.914800
     38          6           0       -7.473857    1.463843    3.271480
     39          1           0       -8.509079    1.279612    2.997906
     40          6           0       -5.545420    1.045475    4.713201
     41          1           0       -5.114326    0.515484    5.556436
     42          7           0       -0.095943    2.570253    0.705476
     43          1           0       -0.470619    1.984163   -0.035565
     44          6           0        1.254440    2.262759    1.158932
     45          1           0        1.584664    3.078476    1.806592
     46          6           0        2.131637    2.130915   -0.089279
     47          6           0        1.314546    0.928827    1.959802
     48          1           0        2.373344    0.718425    2.171069
     49          8           0        1.959485    1.150817   -0.847954
     50          6           0        0.542027    0.967110    3.266228
     51          1           0        0.942539    1.736937    3.930796
     52          1           0        0.616487   -0.002832    3.768178
     53          1           0       -0.511356    1.197631    3.089195
     54          8           0        0.794507   -0.147531    1.146931
     55          1           0        1.177624    0.013997    0.244070
     56          7           0        3.033708    3.085743   -0.310156
     57          1           0        3.208324    3.822557    0.370341
     58          6           0        4.005047    3.044793   -1.397807
     59          1           0        4.202345    1.997753   -1.624038
     60          6           0        5.292211    3.715817   -0.875886
     61          6           0        3.501235    3.787449   -2.656437
     62          1           0        4.365885    4.046014   -3.276252
     63          1           0        3.073009    4.740530   -2.323828
     64          8           0        6.400923    3.459677   -1.548164
     65          6           0        2.465678    3.022813   -3.499134
     66          1           0        1.590828    2.772540   -2.887696
     67          1           0        2.116606    3.690159   -4.298380
     68          6           0        2.985402    1.716656   -4.129247
     69          1           0        3.238920    0.997141   -3.346556
     70          1           0        2.189209    1.249018   -4.716565
     71          7           0        4.135182    1.895066   -5.018268
     72          1           0        3.931284    2.260491   -5.939978
     73          7           0        5.920730    1.630168   -3.457071
     74          1           0        6.283747    2.747220   -2.263216
     75          1           0        5.380158    0.835145   -3.120751
     76          7           0        6.171895    2.971274   -5.315300
     77          1           0        5.741784    3.773449   -5.755208
     78          1           0        7.118109    3.110894   -4.985596
     79          6           0        5.405092    2.135281   -4.543274
     80          8           0        5.242946    4.474314    0.074171
     81          1           0       -3.711251   -3.668027    6.087779
 ---------------------------------------------------------------------

 SCF Done:  E(RB3LYP) =  -2054.05643578     A.U. after    1 cycles

 Alpha  occ. eigenvalues --  -19.30077 -19.26883 -19.25718 -19.24799 -19.23387
 Alpha  occ. eigenvalues --  -19.23087 -19.21820 -19.19575 -14.58028 -14.49643
 Alpha  occ. eigenvalues --  -14.46568 -14.46495 -14.45793 -14.44084 -14.43321
 Alpha  occ. eigenvalues --  -14.37664 -10.43207 -10.43091 -10.40094 -10.39784
 Alpha  occ. eigenvalues --  -10.38924 -10.38136 -10.37790 -10.35422 -10.34553
 Alpha  occ. eigenvalues --  -10.33912 -10.33241 -10.33189 -10.31998 -10.30838
 Alpha  occ. eigenvalues --  -10.30649 -10.30516 -10.28662 -10.28108 -10.27772
 Alpha  occ. eigenvalues --  -10.27496 -10.27437 -10.27273 -10.27260 -10.27049
 Alpha  occ. eigenvalues --  -10.26820 -10.26593  -1.21151  -1.18239  -1.15507
 Alpha  occ. eigenvalues --   -1.15063  -1.13746  -1.13086  -1.12392  -1.12055
 Alpha  occ. eigenvalues --   -1.07394  -1.06754  -1.06540  -1.06045  -1.02922
 Alpha  occ. eigenvalues --   -1.02275  -0.97663  -0.94517  -0.92992  -0.92481
 Alpha  occ. eigenvalues --   -0.90427  -0.89104  -0.87883  -0.87266  -0.85185
 Alpha  occ. eigenvalues --   -0.83436  -0.82100  -0.81304  -0.80297  -0.78630
 Alpha  occ. eigenvalues --   -0.76519  -0.75931  -0.73324  -0.72832  -0.71332
 Alpha  occ. eigenvalues --   -0.70912  -0.70617  -0.69992  -0.69422  -0.69022
 Alpha  occ. eigenvalues --   -0.68554  -0.67625  -0.66956  -0.66362  -0.65967
 Alpha  occ. eigenvalues --   -0.64807  -0.64212  -0.64122  -0.63081  -0.62790
 Alpha  occ. eigenvalues --   -0.62094  -0.61166  -0.60683  -0.60260  -0.59478
 Alpha  occ. eigenvalues --   -0.59022  -0.58710  -0.58315  -0.57996  -0.57064
 Alpha  occ. eigenvalues --   -0.56654  -0.56617  -0.55915  -0.55481  -0.55301
 Alpha  occ. eigenvalues --   -0.54414  -0.53487  -0.53298  -0.52707  -0.52646
 Alpha  occ. eigenvalues --   -0.52435  -0.51967  -0.51643  -0.51364  -0.51350
 Alpha  occ. eigenvalues --   -0.51157  -0.50881  -0.50656  -0.49901  -0.49513
 Alpha  occ. eigenvalues --   -0.49369  -0.49056  -0.48974  -0.48863  -0.48341
 Alpha  occ. eigenvalues --   -0.48161  -0.47979  -0.47681  -0.47233  -0.46843
 Alpha  occ. eigenvalues --   -0.46628  -0.45623  -0.45361  -0.44346  -0.44163
 Alpha  occ. eigenvalues --   -0.43648  -0.42927  -0.42347  -0.42075  -0.41998
 Alpha  occ. eigenvalues --   -0.41795  -0.40398  -0.40036  -0.39509  -0.38452
 Alpha  occ. eigenvalues --   -0.37617  -0.36735  -0.36598  -0.36120  -0.35549
 Alpha  occ. eigenvalues --   -0.35216  -0.34639  -0.34395  -0.33298  -0.31508
 Alpha  occ. eigenvalues --   -0.30876  -0.28983
 Alpha virt. eigenvalues --   -0.13058  -0.10347  -0.10087  -0.09143  -0.08289
 Alpha virt. eigenvalues --   -0.07439  -0.06363  -0.05363  -0.04429  -0.03572
 Alpha virt. eigenvalues --   -0.03299  -0.02646  -0.01985  -0.01839  -0.01664

 Mulliken charges:
               1
     1  N   -0.769156
     2  H    0.400303
     3  H    0.415693
     4  H    0.453277
     5  C   -0.122574
     6  H    0.221626
     7  C    0.656593
     8  C   -0.320332
     9  H    0.195610
    10  H    0.220134
    11  O   -0.558124
    12  C   -0.385131
    13  H    0.173671
    14  H    0.200145
    15  C    0.601082
    16  O   -0.442775
    17  O   -0.556400
    18  N   -0.616476
    19  H    0.380030
    20  C   -0.061393
    21  H    0.193059
    22  C    0.629953
    23  C   -0.400703
    24  H    0.181055
    25  H    0.200885
    26  O   -0.500476
    27  C    0.069138
    28  C    0.007454
    29  H    0.167804
    30  C    0.069227
    31  C    0.317441
    32  C   -0.281150
    33  H    0.147563
    34  N   -0.687367
    35  H    0.342786
    36  C   -0.161338
    37  H    0.143844
    38  C   -0.156761
    39  H    0.145100
    40  C   -0.143302
    41  H    0.164128
    42  N   -0.626733
    43  H    0.373125
    44  C   -0.096344
    45  H    0.199192
    46  C    0.653322
    47  C    0.149907
    48  H    0.161084
    49  O   -0.591300
    50  C   -0.476689
    51  H    0.194631
    52  H    0.161984
    53  H    0.149907
    54  O   -0.708196
    55  H    0.439026
    56  N   -0.593732
    57  H    0.369021
    58  C   -0.078039
    59  H    0.170496
    60  C    0.603793
    61  C   -0.273755
    62  H    0.157741
    63  H    0.165242
    64  O   -0.596969
    65  C   -0.260460
    66  H    0.158271
    67  H    0.141615
    68  C   -0.165580
    69  H    0.173397
    70  H    0.164220
    71  N   -0.579594
    72  H    0.330054
    73  N   -0.739584
    74  H    0.466905
    75  H    0.299370
    76  N   -0.737374
    77  H    0.335920
    78  H    0.363064
    79  C    0.652863
    80  O   -0.475220
    81  H    0.431280
 Sum of Mulliken charges =   1.00000

 Dipole moment (field-independent basis, Debye):
    X=            -11.4136    Y=             -1.3832    Z=             -1.7431  Tot=             11.6285
 Quadrupole moment (field-independent basis, Debye-Ang):
   XX=           -173.4945   YY=           -212.6454   ZZ=           -185.0976
   XY=             -0.4438   XZ=            -47.9302   YZ=            -53.0147

 Normal termination of Gaussian 16 at Fri May 13 15:51:52 2022.
