 Gaussian 16, Revision C.01,
 Gaussian 16:  ES64L-G16RevC.01  3-Jul-2019

 ----------------------------------------------------------------------
 # B3LYP/6-31G* empiricaldispersion=gd3 guess=read geom=check nosymm in
 tegral(ultrafinegrid)
 ----------------------------------------------------------------------

 ------------------------------------------------------
 Candidate Structure: Conf:538 Charge calc in gas phase
 ------------------------------------------------------
 Structure from the checkpoint file:  "conf-538.chk"
 Charge =  1 Multiplicity = 1

                          Input orientation:
 ---------------------------------------------------------------------
 Center     Atomic      Atomic             Coordinates (Angstroms)
 Number     Number       Type             X           Y           Z
 ---------------------------------------------------------------------
      1          7           0       -5.979930   -0.186009    0.290091
      2          1           0       -6.578850    0.497521    0.783721
      3          1           0       -5.745676    0.253937   -0.637332
      4          1           0       -6.453794   -1.087504    0.200106
      5          6           0       -4.638029   -0.251232    0.978413
      6          1           0       -4.816641   -0.021920    2.031985
      7          6           0       -3.863942    0.894777    0.290327
      8          6           0       -3.915860   -1.591829    0.821990
      9          1           0       -3.108556   -1.605550    1.561877
     10          1           0       -4.580590   -2.422254    1.087704
     11          8           0       -4.270942    1.320097   -0.796197
     12          6           0       -3.273335   -1.821382   -0.548960
     13          1           0       -2.519645   -1.057544   -0.758935
     14          1           0       -3.998747   -1.782596   -1.372812
     15          6           0       -2.606061   -3.180197   -0.582472
     16          8           0       -2.836091   -4.089940    0.182371
     17          8           0       -1.719034   -3.267867   -1.597766
     18          7           0       -2.790076    1.289274    0.958710
     19          1           0       -2.577167    0.854978    1.848706
     20          6           0       -1.925648    2.419142    0.611679
     21          1           0       -2.108003    2.656157   -0.438847
     22          6           0       -0.544189    1.771137    0.814647
     23          6           0       -2.207239    3.633457    1.562243
     24          1           0       -2.612069    4.453796    0.959507
     25          1           0       -1.255582    3.971466    1.981003
     26          8           0       -0.122185    1.573954    1.965651
     27          6           0       -3.153024    3.292796    2.681943
     28          6           0       -2.793821    2.945114    3.959870
     29          1           0       -1.814908    2.966099    4.418551
     30          6           0       -4.571302    3.032379    2.579237
     31          6           0       -4.998796    2.505747    3.834641
     32          6           0       -5.506158    3.134398    1.535702
     33          1           0       -5.212674    3.533165    0.569908
     34          7           0       -3.894484    2.476411    4.657706
     35          1           0       -3.903746    2.244716    5.639350
     36          6           0       -7.207482    2.153204    2.995754
     37          1           0       -8.237991    1.842224    3.143993
     38          6           0       -6.307164    2.061516    4.054828
     39          1           0       -6.611846    1.658881    5.016752
     40          6           0       -6.812724    2.691598    1.747652
     41          1           0       -7.553256    2.814172    0.960081
     42          7           0       -0.003470    1.312990   -0.318135
     43          1           0       -0.488739    1.479894   -1.252010
     44          6           0        1.067754    0.330342   -0.350236
     45          1           0        1.828437    0.610513    0.390368
     46          6           0        1.657062    0.353714   -1.788279
     47          6           0        0.543865   -1.103679   -0.018324
     48          1           0        0.056879   -1.505624   -0.910192
     49          8           0        2.017792   -0.683327   -2.345061
     50          6           0        1.682696   -2.027526    0.404826
     51          1           0        2.428811   -2.099424   -0.390172
     52          1           0        1.288829   -3.025364    0.621544
     53          1           0        2.163940   -1.648886    1.316120
     54          8           0       -0.482639   -1.073757    0.982754
     55          1           0       -0.166889   -0.502315    1.706586
     56          7           0        1.702032    1.597876   -2.369228
     57          1           0        1.382755    2.310660   -1.723317
     58          6           0        1.183412    1.887167   -3.732932
     59          1           0        1.568791    2.880652   -3.990264
     60          6           0       -0.400118    1.981446   -3.778818
     61          6           0        1.651885    0.879570   -4.784459
     62          1           0        1.259170    1.220989   -5.744679
     63          1           0        1.180522   -0.083895   -4.569870
     64          8           0       -1.035882    1.815099   -2.686163
     65          6           0        3.175991    0.699446   -4.836469
     66          1           0        3.636538    1.425370   -5.519242
     67          1           0        3.591759    0.858275   -3.834495
     68          6           0        3.510335   -0.723172   -5.267844
     69          1           0        3.092022   -1.417947   -4.532343
     70          1           0        3.094908   -0.936287   -6.259901
     71          7           0        4.980625   -0.914064   -5.338865
     72          1           0        5.534704   -0.263498   -4.793414
     73          7           0        4.958545   -2.868033   -6.597131
     74          1           0        5.351699   -3.347313   -7.396254
     75          1           0        3.968236   -2.984966   -6.432564
     76          7           0        6.956037   -1.767153   -6.248365
     77          1           0        7.491242   -0.991955   -5.880459
     78          1           0        7.471371   -2.622341   -6.415164
     79          6           0        5.619558   -1.832668   -6.043945
     80          8           0       -0.848833    2.209544   -4.905856
     81          1           0       -1.337451   -4.165305   -1.559771
 ---------------------------------------------------------------------

 SCF Done:  E(RB3LYP) =  -2053.99818765     A.U. after    1 cycles

 Alpha  occ. eigenvalues --  -19.26766 -19.22436 -19.21137 -19.20090 -19.18120
 Alpha  occ. eigenvalues --  -19.17776 -19.11141 -19.09484 -14.56237 -14.52259
 Alpha  occ. eigenvalues --  -14.52240 -14.52223 -14.45887 -14.45764 -14.40257
 Alpha  occ. eigenvalues --  -14.40030 -10.48491 -10.39473 -10.39226 -10.36656
 Alpha  occ. eigenvalues --  -10.34887 -10.34661 -10.33746 -10.30384 -10.30323
 Alpha  occ. eigenvalues --  -10.30124 -10.29451 -10.29239 -10.28848 -10.28667
 Alpha  occ. eigenvalues --  -10.28419 -10.27451 -10.27268 -10.26984 -10.26967
 Alpha  occ. eigenvalues --  -10.26880 -10.26579 -10.26323 -10.26270 -10.25840
 Alpha  occ. eigenvalues --  -10.23806 -10.22577  -1.17658  -1.16919  -1.15163
 Alpha  occ. eigenvalues --   -1.10256  -1.09788  -1.09159  -1.08745  -1.06925
 Alpha  occ. eigenvalues --   -1.06063  -1.05798  -1.05081  -1.03662  -1.02838
 Alpha  occ. eigenvalues --   -0.98582  -0.95918  -0.94998  -0.92231  -0.91180
 Alpha  occ. eigenvalues --   -0.88885  -0.87947  -0.85072  -0.83098  -0.82305
 Alpha  occ. eigenvalues --   -0.81793  -0.81603  -0.79756  -0.78691  -0.76601
 Alpha  occ. eigenvalues --   -0.75749  -0.74913  -0.73596  -0.72764  -0.70425
 Alpha  occ. eigenvalues --   -0.70372  -0.70088  -0.69252  -0.68596  -0.67408
 Alpha  occ. eigenvalues --   -0.67372  -0.66275  -0.66059  -0.65327  -0.64761
 Alpha  occ. eigenvalues --   -0.64291  -0.63844  -0.62324  -0.61613  -0.61104
 Alpha  occ. eigenvalues --   -0.60041  -0.59149  -0.58370  -0.57738  -0.57493
 Alpha  occ. eigenvalues --   -0.56844  -0.56569  -0.55979  -0.55374  -0.55351
 Alpha  occ. eigenvalues --   -0.55129  -0.54495  -0.54080  -0.53633  -0.53084
 Alpha  occ. eigenvalues --   -0.52544  -0.51618  -0.51247  -0.51046  -0.50709
 Alpha  occ. eigenvalues --   -0.49996  -0.49883  -0.49568  -0.49092  -0.48841
 Alpha  occ. eigenvalues --   -0.48102  -0.47659  -0.47563  -0.47324  -0.46918
 Alpha  occ. eigenvalues --   -0.46095  -0.45841  -0.45731  -0.45537  -0.45297
 Alpha  occ. eigenvalues --   -0.44559  -0.44388  -0.43742  -0.43650  -0.43406
 Alpha  occ. eigenvalues --   -0.42474  -0.42277  -0.42238  -0.41793  -0.41510
 Alpha  occ. eigenvalues --   -0.41275  -0.41063  -0.40854  -0.40182  -0.39625
 Alpha  occ. eigenvalues --   -0.39239  -0.38462  -0.37654  -0.36948  -0.35833
 Alpha  occ. eigenvalues --   -0.35171  -0.34864  -0.33369  -0.32564  -0.31694
 Alpha  occ. eigenvalues --   -0.31160  -0.30776  -0.30195  -0.28219  -0.26064
 Alpha  occ. eigenvalues --   -0.25718  -0.23391
 Alpha virt. eigenvalues --   -0.12721  -0.09892  -0.08456  -0.07997  -0.07680
 Alpha virt. eigenvalues --   -0.06114  -0.05698  -0.05218  -0.04423  -0.04019
 Alpha virt. eigenvalues --   -0.03719  -0.02824  -0.02146  -0.01429  -0.00937

 Mulliken charges:
               1
     1  N   -0.753948
     2  H    0.405930
     3  H    0.422920
     4  H    0.401679
     5  C   -0.139821
     6  H    0.215018
     7  C    0.676532
     8  C   -0.290048
     9  H    0.211998
    10  H    0.180234
    11  O   -0.543323
    12  C   -0.377821
    13  H    0.238705
    14  H    0.175665
    15  C    0.605333
    16  O   -0.458050
    17  O   -0.560165
    18  N   -0.583021
    19  H    0.356180
    20  C   -0.052413
    21  H    0.232561
    22  C    0.595246
    23  C   -0.370178
    24  H    0.170851
    25  H    0.180775
    26  O   -0.581782
    27  C    0.050719
    28  C    0.012637
    29  H    0.184155
    30  C    0.073167
    31  C    0.311775
    32  C   -0.219679
    33  H    0.168520
    34  N   -0.684241
    35  H    0.342323
    36  C   -0.168932
    37  H    0.145513
    38  C   -0.167492
    39  H    0.146427
    40  C   -0.220709
    41  H    0.146062
    42  N   -0.654684
    43  H    0.433177
    44  C   -0.094478
    45  H    0.173460
    46  C    0.585591
    47  C    0.158704
    48  H    0.160715
    49  O   -0.544842
    50  C   -0.465869
    51  H    0.165786
    52  H    0.149489
    53  H    0.138513
    54  O   -0.670862
    55  H    0.408662
    56  N   -0.587968
    57  H    0.333911
    58  C   -0.086905
    59  H    0.149742
    60  C    0.590723
    61  C   -0.277629
    62  H    0.184755
    63  H    0.160982
    64  O   -0.629644
    65  C   -0.295375
    66  H    0.147823
    67  H    0.171841
    68  C   -0.164951
    69  H    0.222292
    70  H    0.171848
    71  N   -0.594154
    72  H    0.366644
    73  N   -0.750092
    74  H    0.383823
    75  H    0.394912
    76  N   -0.754862
    77  H    0.379916
    78  H    0.382094
    79  C    0.807562
    80  O   -0.546687
    81  H    0.416733
 Sum of Mulliken charges =   1.00000

 Dipole moment (field-independent basis, Debye):
    X=              6.9834    Y=             -9.2895    Z=             -9.6236  Tot=             15.0890
 Quadrupole moment (field-independent basis, Debye-Ang):
   XX=              1.8144   YY=           -226.0293   ZZ=           -108.7681
   XY=            -31.6265   XZ=           -171.9157   YZ=             80.7508

 Normal termination of Gaussian 16 at Fri May 13 15:51:55 2022.
