 Gaussian 16, Revision C.01,
 Gaussian 16:  ES64L-G16RevC.01  3-Jul-2019

 -------------------------------------------------------------------
 # B3LYP/6-31G* guess=read geom=check nosymm integral(ultrafinegrid)
 -------------------------------------------------------------------

 -----------------------------------------------------
 Candidate Structure: Conf:81 Charge calc in gas phase
 -----------------------------------------------------
 Structure from the checkpoint file:  "conf-81.chk"
 Charge =  1 Multiplicity = 1

                          Input orientation:
 ---------------------------------------------------------------------
 Center     Atomic      Atomic             Coordinates (Angstroms)
 Number     Number       Type             X           Y           Z
 ---------------------------------------------------------------------
      1          7           0       -3.014037    1.781841    4.080246
      2          1           0       -3.202358    0.794509    4.243408
      3          1           0       -2.019014    1.907916    4.254998
      4          6           0       -3.326237    2.112419    2.706883
      5          1           0       -3.075948    3.164809    2.518491
      6          1           0       -4.411942    2.027981    2.558021
      7          6           0       -2.650842    1.231355    1.644778
      8          8           0       -2.106010    0.160086    1.931638
      9          7           0       -2.707947    1.679769    0.359541
     10          1           0       -3.129220    2.580304    0.169557
     11          6           0       -2.313626    0.850127   -0.783177
     12          1           0       -2.541731   -0.184230   -0.504509
     13          6           0       -0.779604    0.936470   -0.997037
     14          6           0       -3.090149    1.243643   -2.044568
     15          1           0       -2.813992    2.268855   -2.323297
     16          1           0       -2.737350    0.605589   -2.867028
     17          8           0       -0.274720    1.518967   -1.978440
     18          6           0       -4.625165    1.115056   -1.951115
     19          1           0       -4.974989    1.750913   -1.124810
     20          6           0       -5.266209    1.642891   -3.243622
     21          1           0       -4.967781    1.035477   -4.108064
     22          1           0       -6.358740    1.609213   -3.179683
     23          1           0       -4.974356    2.680208   -3.445455
     24          6           0       -5.080686   -0.323050   -1.662136
     25          1           0       -4.729676   -1.011402   -2.442418
     26          1           0       -4.717113   -0.693372   -0.697095
     27          1           0       -6.173850   -0.382813   -1.640403
     28          7           0       -0.054964    0.330487   -0.046370
     29          1           0       -0.590312   -0.043510    0.742029
     30          6           0        1.400325    0.373638    0.078278
     31          1           0        1.702988    1.387870    0.376334
     32          6           0        2.115675    0.034115   -1.241080
     33          6           0        1.819974   -0.625053    1.208018
     34          1           0        1.298695   -1.565187    0.982451
     35          8           0        1.737325   -0.871112   -1.996345
     36          6           0        3.326864   -0.921038    1.234828
     37          1           0        3.926057   -0.013381    1.370104
     38          1           0        3.546971   -1.586956    2.074937
     39          1           0        3.666106   -1.427513    0.325112
     40          6           0        1.362041   -0.111836    2.585040
     41          1           0        1.876093    0.823988    2.838218
     42          1           0        1.616932   -0.847153    3.355002
     43          1           0        0.283455    0.060811    2.648951
     44          7           0        3.241780    0.760215   -1.458863
     45          1           0        3.525497    1.418507   -0.737817
     46          6           0        4.370359    0.291462   -2.263533
     47          1           0        4.272771   -0.792730   -2.388695
     48          6           0        5.628846    0.575677   -1.436588
     49          6           0        4.518467    0.931380   -3.665694
     50          1           0        4.603780    2.020714   -3.562647
     51          1           0        5.472632    0.577819   -4.068143
     52          8           0        5.646404    1.281727   -0.450752
     53          6           0        3.389408    0.565359   -4.644453
     54          1           0        3.058336   -0.458126   -4.423470
     55          1           0        3.794412    0.533901   -5.662763
     56          6           0        2.195148    1.539414   -4.630704
     57          1           0        1.981087    1.897685   -3.617181
     58          1           0        2.439596    2.427641   -5.223930
     59          6           0        0.925786    0.915446   -5.208803
     60          1           0        0.182873    1.666338   -5.487290
     61          1           0        1.137971    0.293665   -6.083037
     62          7           0        0.275108    0.039110   -4.165715
     63          1           0       -0.438033   -0.578712   -4.561064
     64          1           0        0.961979   -0.529834   -3.625347
     65          1           0       -0.152159    0.641564   -3.416498
     66          8           0        6.708646   -0.027761   -1.952005
     67          1           0        7.476722    0.214218   -1.398302
 ---------------------------------------------------------------------

 SCF Done:  E(RB3LYP) =  -1396.67255773     A.U. after    3 cycles

 Alpha  occ. eigenvalues --  -19.30910 -19.25569 -19.24617 -19.24414 -19.22803
 Alpha  occ. eigenvalues --  -14.55921 -14.47972 -14.47535 -14.47395 -14.39627
 Alpha  occ. eigenvalues --  -10.43539 -10.41417 -10.41030 -10.39161 -10.37312
 Alpha  occ. eigenvalues --  -10.35638 -10.35011 -10.34690 -10.31308 -10.31129
 Alpha  occ. eigenvalues --  -10.30455 -10.30435 -10.30312 -10.29540 -10.28792
 Alpha  occ. eigenvalues --  -10.27086 -10.26707 -10.26276 -10.26149  -1.22044
 Alpha  occ. eigenvalues --   -1.16417  -1.15329  -1.14267  -1.13203  -1.11087
 Alpha  occ. eigenvalues --   -1.04699  -1.04391  -1.03281  -0.96777  -0.92995
 Alpha  occ. eigenvalues --   -0.91507  -0.90834  -0.89049  -0.85885  -0.83770
 Alpha  occ. eigenvalues --   -0.81597  -0.78563  -0.78128  -0.77183  -0.76813
 Alpha  occ. eigenvalues --   -0.75263  -0.73214  -0.71910  -0.70268  -0.69957
 Alpha  occ. eigenvalues --   -0.69599  -0.69559  -0.68230  -0.67308  -0.66202
 Alpha  occ. eigenvalues --   -0.63805  -0.62940  -0.62431  -0.61150  -0.60385
 Alpha  occ. eigenvalues --   -0.59666  -0.59462  -0.58608  -0.58406  -0.58152
 Alpha  occ. eigenvalues --   -0.57756  -0.55732  -0.55666  -0.55565  -0.54708
 Alpha  occ. eigenvalues --   -0.54633  -0.53769  -0.53696  -0.52351  -0.52271
 Alpha  occ. eigenvalues --   -0.52093  -0.51568  -0.51215  -0.50990  -0.50361
 Alpha  occ. eigenvalues --   -0.49812  -0.49202  -0.48813  -0.48638  -0.48280
 Alpha  occ. eigenvalues --   -0.48237  -0.47326  -0.47237  -0.46186  -0.45865
 Alpha  occ. eigenvalues --   -0.45577  -0.45253  -0.45138  -0.44352  -0.43727
 Alpha  occ. eigenvalues --   -0.43237  -0.42637  -0.42341  -0.42101  -0.41993
 Alpha  occ. eigenvalues --   -0.39702  -0.39435  -0.38587  -0.38122  -0.37340
 Alpha  occ. eigenvalues --   -0.36651  -0.35830  -0.32176
 Alpha virt. eigenvalues --   -0.11250  -0.11127  -0.10284  -0.08356  -0.07770
 Alpha virt. eigenvalues --   -0.02870  -0.02626  -0.01877  -0.01573  -0.00918
 Alpha virt. eigenvalues --   -0.00643  -0.00025   0.00016   0.00611   0.00773

 Mulliken charges:
               1
     1  N   -0.674455
     2  H    0.320048
     3  H    0.307910
     4  C   -0.247473
     5  H    0.170495
     6  H    0.192322
     7  C    0.586299
     8  O   -0.532682
     9  N   -0.591774
    10  H    0.345396
    11  C   -0.067851
    12  H    0.193990
    13  C    0.639234
    14  C   -0.281864
    15  H    0.158237
    16  H    0.115148
    17  O   -0.591290
    18  C   -0.077441
    19  H    0.128125
    20  C   -0.444959
    21  H    0.139863
    22  H    0.166337
    23  H    0.148128
    24  C   -0.455323
    25  H    0.140470
    26  H    0.154196
    27  H    0.168548
    28  N   -0.626034
    29  H    0.401315
    30  C   -0.007136
    31  H    0.164546
    32  C    0.629455
    33  C   -0.114312
    34  H    0.164607
    35  O   -0.585700
    36  C   -0.479272
    37  H    0.166328
    38  H    0.175141
    39  H    0.152148
    40  C   -0.479698
    41  H    0.153426
    42  H    0.173345
    43  H    0.175075
    44  N   -0.588417
    45  H    0.365203
    46  C   -0.054538
    47  H    0.202014
    48  C    0.594437
    49  C   -0.279134
    50  H    0.164313
    51  H    0.188871
    52  O   -0.458556
    53  C   -0.285238
    54  H    0.146738
    55  H    0.170026
    56  C   -0.300069
    57  H    0.193030
    58  H    0.184785
    59  C   -0.187420
    60  H    0.204567
    61  H    0.201359
    62  N   -0.799502
    63  H    0.392512
    64  H    0.442521
    65  H    0.446055
    66  O   -0.552092
    67  H    0.435667
 Sum of Mulliken charges =   1.00000

 Dipole moment (field-independent basis, Debye):
    X=              3.4827    Y=              3.2097    Z=            -12.9487  Tot=             13.7877
 Quadrupole moment (field-independent basis, Debye-Ang):
   XX=           -107.1121   YY=           -168.1835   ZZ=           -109.1514
   XY=             -4.8370   XZ=             -9.3040   YZ=             -7.4947

 Normal termination of Gaussian 16 at Fri May 27 02:06:14 2022.
