 Gaussian 16, Revision C.01,
 Gaussian 16:  ES64L-G16RevC.01  3-Jul-2019

 -------------------------------------------------------------------
 # B3LYP/6-31G* guess=read geom=check nosymm integral(ultrafinegrid)
 -------------------------------------------------------------------

 ------------------------------------------------------
 Candidate Structure: Conf:950 Charge calc in gas phase
 ------------------------------------------------------
 Structure from the checkpoint file:  "conf-950.chk"
 Charge =  1 Multiplicity = 1

                          Input orientation:
 ---------------------------------------------------------------------
 Center     Atomic      Atomic             Coordinates (Angstroms)
 Number     Number       Type             X           Y           Z
 ---------------------------------------------------------------------
      1          7           0       -4.575196    1.156056    2.749966
      2          1           0       -5.477190    0.753242    2.505796
      3          1           0       -4.708766    1.658670    3.623181
      4          6           0       -3.562782    0.105569    2.900896
      5          1           0       -3.950503   -0.872705    3.213948
      6          1           0       -2.836884    0.407539    3.664623
      7          6           0       -2.768630   -0.124842    1.613991
      8          8           0       -2.028373   -1.105254    1.478096
      9          7           0       -2.917768    0.838918    0.674815
     10          1           0       -3.557915    1.588790    0.929522
     11          6           0       -2.362928    0.729314   -0.671780
     12          1           0       -2.398756   -0.331942   -0.943935
     13          6           0       -0.863543    1.124390   -0.677361
     14          6           0       -3.181444    1.551385   -1.672301
     15          1           0       -3.093386    2.614653   -1.408188
     16          1           0       -2.714635    1.430042   -2.660371
     17          8           0       -0.424673    2.146759   -1.252197
     18          6           0       -4.672552    1.171232   -1.791531
     19          1           0       -5.136215    1.291798   -0.802313
     20          6           0       -5.376808    2.139590   -2.754016
     21          1           0       -4.966737    2.054656   -3.769282
     22          1           0       -6.447816    1.920709   -2.815694
     23          1           0       -5.268926    3.182093   -2.430249
     24          6           0       -4.874559   -0.284967   -2.235936
     25          1           0       -4.394306   -0.472256   -3.205252
     26          1           0       -4.467679   -1.002262   -1.515011
     27          1           0       -5.940879   -0.507459   -2.349203
     28          7           0       -0.077316    0.289448    0.003403
     29          1           0       -0.549352   -0.480575    0.490035
     30          6           0        1.370945    0.410564    0.108862
     31          1           0        1.608797    1.378814    0.569539
     32          6           0        1.989600    0.392508   -1.307226
     33          6           0        1.897394   -0.727221    1.036005
     34          1           0        1.221869   -0.711698    1.902923
     35          8           0        1.393729   -0.064287   -2.276361
     36          6           0        1.808257   -2.113947    0.379180
     37          1           0        2.502638   -2.197123   -0.464271
     38          1           0        2.070857   -2.887617    1.107805
     39          1           0        0.802506   -2.336497    0.008308
     40          6           0        3.314671   -0.451912    1.559964
     41          1           0        4.068427   -0.555090    0.772099
     42          1           0        3.566549   -1.177563    2.340054
     43          1           0        3.398839    0.547071    2.006922
     44          7           0        3.230479    0.959721   -1.405049
     45          1           0        3.710337    1.236700   -0.559140
     46          6           0        3.967074    0.966676   -2.659033
     47          1           0        3.281105    0.512824   -3.383000
     48          6           0        5.204406    0.065793   -2.658947
     49          6           0        4.357706    2.385938   -3.138571
     50          1           0        5.216450    2.745381   -2.558227
     51          1           0        4.711772    2.295966   -4.170234
     52          8           0        6.061821    0.116915   -3.508320
     53          6           0        3.233232    3.425147   -3.026399
     54          1           0        3.602543    4.375018   -3.433883
     55          1           0        3.016455    3.603618   -1.965621
     56          6           0        1.918976    3.030090   -3.720159
     57          1           0        2.076713    2.898599   -4.798930
     58          1           0        1.573616    2.069230   -3.324308
     59          6           0        0.827250    4.075174   -3.479388
     60          1           0        0.891395    4.496753   -2.473498
     61          1           0        0.848669    4.891117   -4.206029
     62          7           0       -0.539438    3.425230   -3.545118
     63          1           0       -1.293911    4.117496   -3.563704
     64          1           0       -0.632557    2.838135   -4.379531
     65          1           0       -0.661438    2.815735   -2.666961
     66          8           0        5.228455   -0.808380   -1.626844
     67          1           0        6.034103   -1.348996   -1.743502
 ---------------------------------------------------------------------

 SCF Done:  E(RB3LYP) =  -1396.66794212     A.U. after    2 cycles

 Alpha  occ. eigenvalues --  -19.28948 -19.24481 -19.22800 -19.21610 -19.21424
 Alpha  occ. eigenvalues --  -14.57585 -14.46437 -14.46340 -14.45841 -14.42501
 Alpha  occ. eigenvalues --  -10.41127 -10.40415 -10.38910 -10.38297 -10.37653
 Alpha  occ. eigenvalues --  -10.34135 -10.33613 -10.33575 -10.31547 -10.31044
 Alpha  occ. eigenvalues --  -10.29742 -10.29734 -10.29323 -10.28967 -10.28860
 Alpha  occ. eigenvalues --  -10.26591 -10.26481 -10.26163 -10.25555  -1.19632
 Alpha  occ. eigenvalues --   -1.15547  -1.13513  -1.13096  -1.12179  -1.10607
 Alpha  occ. eigenvalues --   -1.03587  -1.02803  -1.02539  -0.98395  -0.92414
 Alpha  occ. eigenvalues --   -0.91107  -0.90233  -0.87597  -0.85443  -0.82839
 Alpha  occ. eigenvalues --   -0.80513  -0.79279  -0.77321  -0.77129  -0.76601
 Alpha  occ. eigenvalues --   -0.74805  -0.72469  -0.72243  -0.70727  -0.70082
 Alpha  occ. eigenvalues --   -0.68357  -0.68303  -0.67348  -0.66356  -0.66031
 Alpha  occ. eigenvalues --   -0.63363  -0.61978  -0.61306  -0.60615  -0.59759
 Alpha  occ. eigenvalues --   -0.59267  -0.58972  -0.58605  -0.57325  -0.56972
 Alpha  occ. eigenvalues --   -0.56771  -0.55838  -0.55436  -0.54011  -0.53706
 Alpha  occ. eigenvalues --   -0.53469  -0.53036  -0.52359  -0.52069  -0.52022
 Alpha  occ. eigenvalues --   -0.51424  -0.51113  -0.50207  -0.50066  -0.49227
 Alpha  occ. eigenvalues --   -0.49138  -0.48855  -0.48567  -0.48111  -0.47759
 Alpha  occ. eigenvalues --   -0.47540  -0.46990  -0.46363  -0.46035  -0.45271
 Alpha  occ. eigenvalues --   -0.45024  -0.44186  -0.43946  -0.43053  -0.42636
 Alpha  occ. eigenvalues --   -0.42465  -0.42343  -0.42159  -0.42000  -0.40672
 Alpha  occ. eigenvalues --   -0.39394  -0.38175  -0.37399  -0.36845  -0.35129
 Alpha  occ. eigenvalues --   -0.35028  -0.34546  -0.33917
 Alpha virt. eigenvalues --   -0.10278  -0.09605  -0.08126  -0.07996  -0.07259
 Alpha virt. eigenvalues --   -0.04219  -0.02953  -0.02316  -0.02002  -0.00822
 Alpha virt. eigenvalues --   -0.00775   0.00135   0.00327   0.01349   0.01563

 Mulliken charges:
               1
     1  N   -0.751185
     2  H    0.326802
     3  H    0.331820
     4  C   -0.239098
     5  H    0.189307
     6  H    0.192168
     7  C    0.602656
     8  O   -0.544394
     9  N   -0.594054
    10  H    0.369758
    11  C   -0.065464
    12  H    0.198958
    13  C    0.677091
    14  C   -0.291070
    15  H    0.135859
    16  H    0.120949
    17  O   -0.619921
    18  C   -0.075696
    19  H    0.134504
    20  C   -0.447002
    21  H    0.135920
    22  H    0.168473
    23  H    0.140165
    24  C   -0.456353
    25  H    0.146473
    26  H    0.158248
    27  H    0.165060
    28  N   -0.628671
    29  H    0.410267
    30  C   -0.029639
    31  H    0.161718
    32  C    0.653679
    33  C   -0.116893
    34  H    0.160676
    35  O   -0.539861
    36  C   -0.462241
    37  H    0.167369
    38  H    0.165918
    39  H    0.165683
    40  C   -0.486091
    41  H    0.170784
    42  H    0.174398
    43  H    0.142604
    44  N   -0.606257
    45  H    0.340612
    46  C   -0.073794
    47  H    0.222401
    48  C    0.596475
    49  C   -0.280006
    50  H    0.161227
    51  H    0.186188
    52  O   -0.442155
    53  C   -0.269887
    54  H    0.161383
    55  H    0.148276
    56  C   -0.320169
    57  H    0.165418
    58  H    0.203494
    59  C   -0.179998
    60  H    0.211430
    61  H    0.203952
    62  N   -0.772736
    63  H    0.399028
    64  H    0.400477
    65  H    0.463418
    66  O   -0.565754
    67  H    0.427306
 Sum of Mulliken charges =   1.00000

 Dipole moment (field-independent basis, Debye):
    X=             -3.6086    Y=             12.4254    Z=             -6.2246  Tot=             14.3582
 Quadrupole moment (field-independent basis, Debye-Ang):
   XX=           -114.9797   YY=           -129.1594   ZZ=           -121.4138
   XY=             -9.9360   XZ=             -0.5792   YZ=            -39.0690

 Normal termination of Gaussian 16 at Fri May 27 02:24:48 2022.
