 Gaussian 16, Revision C.01,
 Gaussian 16:  ES64L-G16RevC.01  3-Jul-2019

 -------------------------------------------------------------------
 # B3LYP/6-31G* guess=read geom=check nosymm integral(ultrafinegrid)
 -------------------------------------------------------------------

 ------------------------------------------------------
 Candidate Structure: Conf:370 Charge calc in gas phase
 ------------------------------------------------------
 Structure from the checkpoint file:  "conf-370.chk"
 Charge =  1 Multiplicity = 1

                          Input orientation:
 ---------------------------------------------------------------------
 Center     Atomic      Atomic             Coordinates (Angstroms)
 Number     Number       Type             X           Y           Z
 ---------------------------------------------------------------------
      1          7           0       -5.753373    0.972670    3.958404
      2          1           0       -6.478517    1.082949    3.250451
      3          1           0       -5.663478   -0.036316    4.075863
      4          6           0       -4.499025    1.478429    3.428701
      5          1           0       -3.735004    1.434692    4.218439
      6          1           0       -4.611956    2.539660    3.173721
      7          6           0       -3.955400    0.709760    2.211127
      8          8           0       -4.415773   -0.377230    1.875148
      9          7           0       -2.929715    1.324795    1.546281
     10          1           0       -2.470458    2.122338    1.974267
     11          6           0       -2.131914    0.639302    0.543577
     12          1           0       -2.400403   -0.420382    0.587147
     13          6           0       -0.654240    0.827250    0.913435
     14          6           0       -2.366657    1.185510   -0.887810
     15          1           0       -2.089462    2.248798   -0.885924
     16          1           0       -1.668188    0.681032   -1.572920
     17          8           0       -0.268657    1.799264    1.558234
     18          6           0       -3.800411    1.030586   -1.429946
     19          1           0       -4.480255    1.505425   -0.709761
     20          6           0       -3.930412    1.779072   -2.765665
     21          1           0       -3.269930    1.343567   -3.527799
     22          1           0       -4.955935    1.722590   -3.147622
     23          1           0       -3.669160    2.839387   -2.661931
     24          6           0       -4.218033   -0.439947   -1.579437
     25          1           0       -3.521584   -0.983409   -2.233382
     26          1           0       -4.262569   -0.945779   -0.610584
     27          1           0       -5.214322   -0.511076   -2.030991
     28          7           0        0.190913   -0.142816    0.454905
     29          1           0       -0.155895   -0.825496   -0.208807
     30          6           0        1.632978    0.016585    0.495170
     31          1           0        1.823233    1.057742    0.778987
     32          6           0        2.173844   -0.239745   -0.915517
     33          6           0        2.329575   -0.906808    1.543885
     34          1           0        3.410294   -0.715077    1.453595
     35          8           0        1.554770   -0.881597   -1.759603
     36          6           0        1.898840   -0.524633    2.966294
     37          1           0        0.829978   -0.710512    3.113392
     38          1           0        2.447659   -1.123262    3.701428
     39          1           0        2.083632    0.533940    3.176563
     40          6           0        2.084373   -2.396769    1.267012
     41          1           0        1.019572   -2.638934    1.358616
     42          1           0        2.624809   -3.010600    1.995157
     43          1           0        2.412517   -2.696403    0.265428
     44          7           0        3.411198    0.283586   -1.184186
     45          1           0        3.952094    0.682962   -0.429536
     46          6           0        4.084505   -0.063801   -2.427798
     47          1           0        3.915339   -1.137550   -2.604755
     48          6           0        5.592011    0.130828   -2.299682
     49          6           0        3.533725    0.710137   -3.642927
     50          1           0        2.451892    0.781751   -3.515711
     51          1           0        3.929711    1.732743   -3.612763
     52          8           0        6.314824    0.521063   -3.197092
     53          6           0        3.846446    0.016333   -4.988669
     54          1           0        2.987528   -0.591818   -5.289282
     55          1           0        4.688401   -0.676466   -4.881355
     56          6           0        4.165692    0.991727   -6.138486
     57          1           0        4.102244    0.458185   -7.096624
     58          1           0        3.413081    1.792971   -6.162882
     59          6           0        5.561252    1.588026   -5.988580
     60          1           0        5.702450    2.130985   -5.054241
     61          1           0        6.346218    0.833099   -6.061598
     62          7           0        5.834046    2.591494   -7.117261
     63          1           0        6.774634    2.998815   -7.049364
     64          1           0        5.753703    2.143865   -8.038621
     65          1           0        5.157298    3.364110   -7.096615
     66          8           0        6.052492   -0.192095   -1.079593
     67          1           0        7.021580   -0.066172   -1.084768
 ---------------------------------------------------------------------

 SCF Done:  E(RB3LYP) =  -1396.62175986     A.U. after    1 cycles

 Alpha  occ. eigenvalues --  -19.32283 -19.26939 -19.21580 -19.18409 -19.15900
 Alpha  occ. eigenvalues --  -14.65463 -14.46592 -14.42899 -14.40253 -14.34854
 Alpha  occ. eigenvalues --  -10.44976 -10.41843 -10.38325 -10.35719 -10.35344
 Alpha  occ. eigenvalues --  -10.35318 -10.32631 -10.31991 -10.31033 -10.30724
 Alpha  occ. eigenvalues --  -10.28643 -10.27209 -10.25733 -10.24218 -10.24201
 Alpha  occ. eigenvalues --  -10.23605 -10.23588 -10.22164 -10.21073  -1.23358
 Alpha  occ. eigenvalues --   -1.19301  -1.14269  -1.13610  -1.10315  -1.07546
 Alpha  occ. eigenvalues --   -1.03138  -0.99586  -0.96906  -0.96135  -0.91773
 Alpha  occ. eigenvalues --   -0.90517  -0.87663  -0.85706  -0.85228  -0.81069
 Alpha  occ. eigenvalues --   -0.80580  -0.77929  -0.77842  -0.77459  -0.74972
 Alpha  occ. eigenvalues --   -0.73293  -0.73170  -0.72493  -0.70841  -0.70030
 Alpha  occ. eigenvalues --   -0.68647  -0.67442  -0.65986  -0.64940  -0.63929
 Alpha  occ. eigenvalues --   -0.62770  -0.62603  -0.61177  -0.60888  -0.59640
 Alpha  occ. eigenvalues --   -0.58810  -0.57855  -0.56271  -0.55484  -0.55124
 Alpha  occ. eigenvalues --   -0.54573  -0.54186  -0.53693  -0.53601  -0.52855
 Alpha  occ. eigenvalues --   -0.52328  -0.51617  -0.51076  -0.50807  -0.50086
 Alpha  occ. eigenvalues --   -0.50032  -0.48928  -0.48581  -0.47940  -0.47097
 Alpha  occ. eigenvalues --   -0.46587  -0.46415  -0.45967  -0.45693  -0.45240
 Alpha  occ. eigenvalues --   -0.44910  -0.44521  -0.44353  -0.44147  -0.43388
 Alpha  occ. eigenvalues --   -0.43010  -0.42576  -0.41418  -0.40856  -0.40512
 Alpha  occ. eigenvalues --   -0.40475  -0.40236  -0.39344  -0.37659  -0.37088
 Alpha  occ. eigenvalues --   -0.36956  -0.36086  -0.35236  -0.32633  -0.32238
 Alpha  occ. eigenvalues --   -0.30307  -0.29662  -0.27397
 Alpha virt. eigenvalues --   -0.15945  -0.12093  -0.09329  -0.09193  -0.07472
 Alpha virt. eigenvalues --   -0.06461  -0.04350  -0.04099  -0.03047  -0.01917
 Alpha virt. eigenvalues --   -0.01668  -0.00586  -0.00278   0.00454   0.01850

 Mulliken charges:
               1
     1  N   -0.682188
     2  H    0.302941
     3  H    0.311711
     4  C   -0.248338
     5  H    0.173210
     6  H    0.162433
     7  C    0.568150
     8  O   -0.515027
     9  N   -0.592649
    10  H    0.343207
    11  C   -0.069113
    12  H    0.182984
    13  C    0.611780
    14  C   -0.253419
    15  H    0.137441
    16  H    0.124337
    17  O   -0.533320
    18  C   -0.063485
    19  H    0.142981
    20  C   -0.443775
    21  H    0.129352
    22  H    0.151046
    23  H    0.137154
    24  C   -0.468390
    25  H    0.123053
    26  H    0.187376
    27  H    0.147031
    28  N   -0.601259
    29  H    0.352140
    30  C   -0.070940
    31  H    0.182231
    32  C    0.629672
    33  C   -0.076871
    34  H    0.117199
    35  O   -0.534244
    36  C   -0.445500
    37  H    0.166938
    38  H    0.153459
    39  H    0.157937
    40  C   -0.462076
    41  H    0.162414
    42  H    0.160298
    43  H    0.148405
    44  N   -0.628937
    45  H    0.352436
    46  C   -0.019508
    47  H    0.211680
    48  C    0.575441
    49  C   -0.265828
    50  H    0.199685
    51  H    0.131550
    52  O   -0.488282
    53  C   -0.274385
    54  H    0.190567
    55  H    0.165930
    56  C   -0.304473
    57  H    0.169259
    58  H    0.168338
    59  C   -0.197966
    60  H    0.240501
    61  H    0.234600
    62  N   -0.733833
    63  H    0.432077
    64  H    0.425597
    65  H    0.425511
    66  O   -0.548776
    67  H    0.432531
 Sum of Mulliken charges =   1.00000

 Dipole moment (field-independent basis, Debye):
    X=             30.0847    Y=             10.1316    Z=            -30.0937  Tot=             43.7421
 Quadrupole moment (field-independent basis, Debye-Ang):
   XX=            -14.1223   YY=           -146.5491   ZZ=             27.9367
   XY=             53.2978   XZ=           -156.0941   YZ=            -76.3015

 Normal termination of Gaussian 16 at Fri May 27 02:05:55 2022.
