 Gaussian 16, Revision C.01,
 Gaussian 16:  ES64L-G16RevC.01  3-Jul-2019

 -------------------------------------------------------------------
 # B3LYP/6-31G* guess=read geom=check nosymm integral(ultrafinegrid)
 -------------------------------------------------------------------

 ------------------------------------------------------
 Candidate Structure: Conf:883 Charge calc in gas phase
 ------------------------------------------------------
 Structure from the checkpoint file:  "conf-883.chk"
 Charge =  1 Multiplicity = 1

                          Input orientation:
 ---------------------------------------------------------------------
 Center     Atomic      Atomic             Coordinates (Angstroms)
 Number     Number       Type             X           Y           Z
 ---------------------------------------------------------------------
      1          7           0       -1.709436   -3.517520   -1.889153
      2          1           0       -1.980914   -4.402655   -1.462734
      3          1           0       -2.107619   -3.521290   -2.828584
      4          6           0       -2.308870   -2.416912   -1.121683
      5          1           0       -2.001420   -2.519788   -0.074678
      6          1           0       -3.410478   -2.427296   -1.130486
      7          6           0       -1.830289   -1.057256   -1.648971
      8          8           0       -1.137624   -0.946980   -2.664535
      9          7           0       -2.204049    0.019143   -0.915481
     10          1           0       -2.872063   -0.102611   -0.163203
     11          6           0       -1.860676    1.392600   -1.318371
     12          1           0       -2.070072    1.499096   -2.385071
     13          6           0       -0.351262    1.667529   -1.173485
     14          6           0       -2.714722    2.382204   -0.498982
     15          1           0       -3.770400    2.123634   -0.668144
     16          1           0       -2.511136    2.215354    0.568878
     17          8           0        0.224132    2.443697   -1.927762
     18          6           0       -2.514650    3.878282   -0.819375
     19          1           0       -1.464721    4.131378   -0.622942
     20          6           0       -2.810786    4.209265   -2.289732
     21          1           0       -3.825763    3.898246   -2.570854
     22          1           0       -2.740262    5.289334   -2.457163
     23          1           0       -2.096965    3.728269   -2.965487
     24          6           0       -3.390326    4.717420    0.123764
     25          1           0       -4.456544    4.516160   -0.041328
     26          1           0       -3.168184    4.508498    1.177121
     27          1           0       -3.226003    5.786625   -0.045839
     28          7           0        0.276813    1.047525   -0.130709
     29          1           0       -0.202924    0.287449    0.332484
     30          6           0        1.730044    1.114671    0.019598
     31          1           0        2.020360    2.153317   -0.166174
     32          6           0        2.342875    0.203703   -1.057649
     33          6           0        2.173789    0.701970    1.438748
     34          1           0        1.840027   -0.334660    1.590636
     35          8           0        2.238102   -1.033328   -0.975196
     36          6           0        3.705674    0.725011    1.556610
     37          1           0        4.102506    1.729824    1.365760
     38          1           0        4.009900    0.437547    2.567966
     39          1           0        4.181955    0.028186    0.859313
     40          6           0        1.530711    1.600788    2.504952
     41          1           0        1.859773    2.640856    2.391206
     42          1           0        1.823671    1.267773    3.506014
     43          1           0        0.437271    1.591305    2.454218
     44          7           0        2.959535    0.828003   -2.079080
     45          1           0        2.864660    1.832938   -2.164272
     46          6           0        3.527128    0.088718   -3.197775
     47          1           0        3.945123   -0.829036   -2.778768
     48          6           0        4.685777    0.828158   -3.853395
     49          6           0        2.461629   -0.270150   -4.278095
     50          1           0        1.499279   -0.356135   -3.765053
     51          1           0        2.342529    0.580619   -4.959369
     52          8           0        5.459310    0.297802   -4.615481
     53          6           0        2.794453   -1.524892   -5.108882
     54          1           0        3.735678   -1.340159   -5.636795
     55          1           0        2.025675   -1.639734   -5.884985
     56          6           0        2.949527   -2.857141   -4.346878
     57          1           0        3.407385   -3.582298   -5.030475
     58          1           0        3.661328   -2.756326   -3.518157
     59          6           0        1.678573   -3.535566   -3.829155
     60          1           0        0.963118   -3.713335   -4.637862
     61          1           0        1.929634   -4.501442   -3.382734
     62          7           0        0.951423   -2.750344   -2.774062
     63          1           0        0.198615   -3.296351   -2.290872
     64          1           0        1.582129   -2.307828   -2.070397
     65          1           0        0.394717   -1.970424   -3.154467
     66          8           0        4.714794    2.140937   -3.540604
     67          1           0        5.458081    2.540467   -4.033066
 ---------------------------------------------------------------------

 SCF Done:  E(RB3LYP) =  -1396.68368942     A.U. after    3 cycles

 Alpha  occ. eigenvalues --  -19.30053 -19.25570 -19.23943 -19.23649 -19.21832
 Alpha  occ. eigenvalues --  -14.53291 -14.49276 -14.47606 -14.47256 -14.46615
 Alpha  occ. eigenvalues --  -10.42503 -10.42417 -10.40227 -10.38999 -10.36139
 Alpha  occ. eigenvalues --  -10.36016 -10.34826 -10.34160 -10.33518 -10.30745
 Alpha  occ. eigenvalues --  -10.30178 -10.29367 -10.29237 -10.29057 -10.27278
 Alpha  occ. eigenvalues --  -10.26326 -10.26290 -10.24741 -10.24506  -1.20818
 Alpha  occ. eigenvalues --   -1.17186  -1.15131  -1.13617  -1.11818  -1.09016
 Alpha  occ. eigenvalues --   -1.05512  -1.04127  -1.03003  -1.02675  -0.91960
 Alpha  occ. eigenvalues --   -0.91058  -0.89841  -0.88067  -0.86010  -0.83187
 Alpha  occ. eigenvalues --   -0.81801  -0.79950  -0.77340  -0.76685  -0.75800
 Alpha  occ. eigenvalues --   -0.74645  -0.72563  -0.71794  -0.70724  -0.69860
 Alpha  occ. eigenvalues --   -0.68464  -0.67661  -0.66903  -0.66668  -0.65575
 Alpha  occ. eigenvalues --   -0.64645  -0.63980  -0.62232  -0.61526  -0.61130
 Alpha  occ. eigenvalues --   -0.60213  -0.59920  -0.58158  -0.57869  -0.57650
 Alpha  occ. eigenvalues --   -0.56951  -0.56445  -0.56144  -0.55782  -0.54603
 Alpha  occ. eigenvalues --   -0.54149  -0.53640  -0.53123  -0.52519  -0.52296
 Alpha  occ. eigenvalues --   -0.51605  -0.51239  -0.50661  -0.50451  -0.50235
 Alpha  occ. eigenvalues --   -0.50009  -0.49737  -0.48683  -0.48599  -0.47798
 Alpha  occ. eigenvalues --   -0.47205  -0.46929  -0.46585  -0.45747  -0.45387
 Alpha  occ. eigenvalues --   -0.44515  -0.44419  -0.44184  -0.43379  -0.42973
 Alpha  occ. eigenvalues --   -0.42444  -0.41928  -0.41448  -0.40859  -0.40527
 Alpha  occ. eigenvalues --   -0.40417  -0.39642  -0.39035  -0.38629  -0.38248
 Alpha  occ. eigenvalues --   -0.36518  -0.35411  -0.34596
 Alpha virt. eigenvalues --   -0.11395  -0.10029  -0.09016  -0.07990  -0.06529
 Alpha virt. eigenvalues --   -0.04727  -0.03213  -0.02407  -0.01236  -0.01012
 Alpha virt. eigenvalues --    0.00204   0.00419   0.00634   0.01082   0.01355

 Mulliken charges:
               1
     1  N   -0.751859
     2  H    0.343039
     3  H    0.337591
     4  C   -0.250477
     5  H    0.192258
     6  H    0.189910
     7  C    0.628994
     8  O   -0.544260
     9  N   -0.638478
    10  H    0.347504
    11  C   -0.019321
    12  H    0.200967
    13  C    0.633116
    14  C   -0.305564
    15  H    0.152372
    16  H    0.140963
    17  O   -0.527730
    18  C   -0.079163
    19  H    0.152282
    20  C   -0.458666
    21  H    0.140180
    22  H    0.161216
    23  H    0.164175
    24  C   -0.447553
    25  H    0.147605
    26  H    0.144192
    27  H    0.162514
    28  N   -0.603910
    29  H    0.329571
    30  C   -0.029309
    31  H    0.172609
    32  C    0.647717
    33  C   -0.105040
    34  H    0.140452
    35  O   -0.598014
    36  C   -0.463973
    37  H    0.154639
    38  H    0.168924
    39  H    0.160639
    40  C   -0.447193
    41  H    0.158796
    42  H    0.166065
    43  H    0.141957
    44  N   -0.586454
    45  H    0.377152
    46  C   -0.055442
    47  H    0.198486
    48  C    0.594744
    49  C   -0.299807
    50  H    0.155595
    51  H    0.180159
    52  O   -0.441314
    53  C   -0.285394
    54  H    0.198751
    55  H    0.152955
    56  C   -0.294855
    57  H    0.186400
    58  H    0.171305
    59  C   -0.178213
    60  H    0.190035
    61  H    0.196571
    62  N   -0.815315
    63  H    0.417515
    64  H    0.431196
    65  H    0.431490
    66  O   -0.569057
    67  H    0.433761
 Sum of Mulliken charges =   1.00000

 Dipole moment (field-independent basis, Debye):
    X=             -0.7951    Y=             -6.8027    Z=             -7.6648  Tot=             10.2790
 Quadrupole moment (field-independent basis, Debye-Ang):
   XX=           -135.7499   YY=           -125.9779   ZZ=           -139.6846
   XY=             12.3141   XZ=             -9.5197   YZ=             23.5357

 Normal termination of Gaussian 16 at Fri May 27 02:25:06 2022.
