 Gaussian 16, Revision C.01,
 Gaussian 16:  ES64L-G16RevC.01  3-Jul-2019

 -------------------------------------------------------------------
 # B3LYP/6-31G* guess=read geom=check nosymm integral(ultrafinegrid)
 -------------------------------------------------------------------

 ------------------------------------------------------
 Candidate Structure: Conf:605 Charge calc in gas phase
 ------------------------------------------------------
 Structure from the checkpoint file:  "conf-605.chk"
 Charge =  1 Multiplicity = 1

                          Input orientation:
 ---------------------------------------------------------------------
 Center     Atomic      Atomic             Coordinates (Angstroms)
 Number     Number       Type             X           Y           Z
 ---------------------------------------------------------------------
      1          7           0       -2.417724    3.721273    2.933347
      2          1           0       -2.648139    4.668668    3.220940
      3          1           0       -1.736380    3.371623    3.603920
      4          6           0       -3.614048    2.875481    2.924220
      5          1           0       -4.464524    3.470696    2.570981
      6          1           0       -3.907429    2.462707    3.899223
      7          6           0       -3.485138    1.684394    1.968331
      8          8           0       -4.246166    0.722996    2.032957
      9          7           0       -2.496949    1.815373    1.037598
     10          1           0       -1.846599    2.587370    1.175183
     11          6           0       -2.101194    0.719208    0.182231
     12          1           0       -2.593242   -0.180681    0.565455
     13          6           0       -0.571541    0.571544    0.256713
     14          6           0       -2.502051    0.935669   -1.301554
     15          1           0       -1.963387    1.826467   -1.657671
     16          1           0       -2.127765    0.078618   -1.884625
     17          8           0        0.151543    1.549446    0.454569
     18          6           0       -4.009187    1.108017   -1.567150
     19          1           0       -4.353647    1.967629   -0.978581
     20          6           0       -4.247746    1.444599   -3.051065
     21          1           0       -3.974992    0.574945   -3.674493
     22          1           0       -5.302294    1.662350   -3.250033
     23          1           0       -3.662650    2.328251   -3.355617
     24          6           0       -4.836492   -0.119955   -1.159926
     25          1           0       -4.473462   -1.026960   -1.663846
     26          1           0       -4.798494   -0.274836   -0.078514
     27          1           0       -5.888822    0.013142   -1.435873
     28          7           0       -0.087496   -0.675853    0.030834
     29          1           0       -0.736458   -1.439755   -0.098527
     30          6           0        1.347274   -0.991152    0.041161
     31          1           0        1.792571   -0.354350    0.813358
     32          6           0        1.977712   -0.583076   -1.314629
     33          6           0        1.609145   -2.468476    0.417065
     34          1           0        2.672263   -2.634147    0.202720
     35          8           0        2.178300   -1.368857   -2.238957
     36          6           0        1.380900   -2.690644    1.920496
     37          1           0        0.338166   -2.498957    2.201973
     38          1           0        1.610525   -3.726081    2.193060
     39          1           0        2.016774   -2.035562    2.526715
     40          6           0        0.814012   -3.484372   -0.422019
     41          1           0       -0.260623   -3.466228   -0.188158
     42          1           0        1.155455   -4.498608   -0.190127
     43          1           0        0.953632   -3.310310   -1.490624
     44          7           0        2.267761    0.744644   -1.395747
     45          1           0        2.029644    1.351188   -0.614766
     46          6           0        2.914909    1.340270   -2.545727
     47          1           0        3.454731    0.548770   -3.074960
     48          6           0        3.918129    2.380692   -2.051398
     49          6           0        1.907433    2.010984   -3.514601
     50          1           0        1.306548    2.721611   -2.930982
     51          1           0        2.459400    2.590156   -4.263802
     52          8           0        3.942134    2.840396   -0.934043
     53          6           0        0.990831    0.992751   -4.207270
     54          1           0        0.638304    0.254864   -3.480109
     55          1           0        1.563286    0.434205   -4.958741
     56          6           0       -0.225167    1.670449   -4.861067
     57          1           0       -0.816787    2.164969   -4.078088
     58          1           0        0.099950    2.448728   -5.565454
     59          6           0       -1.091225    0.648696   -5.587293
     60          1           0       -0.621261    0.268064   -6.497080
     61          1           0       -1.358224   -0.195625   -4.947009
     62          7           0       -2.419708    1.274347   -6.015489
     63          1           0       -2.982545    0.634385   -6.588627
     64          1           0       -2.981199    1.521764   -5.184747
     65          1           0       -2.267912    2.131172   -6.561087
     66          8           0        4.758011    2.755748   -3.039333
     67          1           0        5.355505    3.431093   -2.663840
 ---------------------------------------------------------------------

 SCF Done:  E(RB3LYP) =  -1396.63103386     A.U. after    1 cycles

 Alpha  occ. eigenvalues --  -19.28384 -19.22766 -19.21019 -19.19844 -19.17988
 Alpha  occ. eigenvalues --  -14.64458 -14.45708 -14.43983 -14.42425 -14.39829
 Alpha  occ. eigenvalues --  -10.41945 -10.40808 -10.37958 -10.36975 -10.35202
 Alpha  occ. eigenvalues --  -10.34704 -10.33042 -10.32030 -10.31587 -10.31058
 Alpha  occ. eigenvalues --  -10.30590 -10.29901 -10.29312 -10.29123 -10.28871
 Alpha  occ. eigenvalues --  -10.27316 -10.25529 -10.24735 -10.24523  -1.19303
 Alpha  occ. eigenvalues --   -1.18502  -1.12990  -1.11600  -1.10422  -1.09817
 Alpha  occ. eigenvalues --   -1.01825  -1.00894  -0.99708  -0.95849  -0.95638
 Alpha  occ. eigenvalues --   -0.91173  -0.89475  -0.88135  -0.84624  -0.84134
 Alpha  occ. eigenvalues --   -0.79916  -0.78933  -0.78377  -0.77146  -0.76884
 Alpha  occ. eigenvalues --   -0.75636  -0.75549  -0.73793  -0.71430  -0.70482
 Alpha  occ. eigenvalues --   -0.68050  -0.66724  -0.66588  -0.66267  -0.65344
 Alpha  occ. eigenvalues --   -0.64934  -0.63007  -0.61632  -0.59606  -0.58377
 Alpha  occ. eigenvalues --   -0.57933  -0.57639  -0.57435  -0.56646  -0.56350
 Alpha  occ. eigenvalues --   -0.56069  -0.55748  -0.54750  -0.54274  -0.53749
 Alpha  occ. eigenvalues --   -0.53542  -0.52583  -0.52101  -0.51492  -0.51334
 Alpha  occ. eigenvalues --   -0.50848  -0.50344  -0.49972  -0.49507  -0.48916
 Alpha  occ. eigenvalues --   -0.48879  -0.48231  -0.47917  -0.47700  -0.47506
 Alpha  occ. eigenvalues --   -0.46532  -0.46192  -0.45864  -0.45508  -0.45222
 Alpha  occ. eigenvalues --   -0.44670  -0.44283  -0.43372  -0.42818  -0.42471
 Alpha  occ. eigenvalues --   -0.41654  -0.41353  -0.40916  -0.40824  -0.40460
 Alpha  occ. eigenvalues --   -0.36762  -0.36194  -0.35321  -0.33797  -0.33420
 Alpha  occ. eigenvalues --   -0.32541  -0.32054  -0.30920
 Alpha virt. eigenvalues --   -0.14851  -0.08558  -0.08278  -0.07850  -0.07313
 Alpha virt. eigenvalues --   -0.06651  -0.06108  -0.04558  -0.04153  -0.02846
 Alpha virt. eigenvalues --   -0.02428  -0.01270  -0.00543   0.00052   0.00920

 Mulliken charges:
               1
     1  N   -0.743092
     2  H    0.322771
     3  H    0.321559
     4  C   -0.234807
     5  H    0.181493
     6  H    0.176265
     7  C    0.581355
     8  O   -0.519495
     9  N   -0.594192
    10  H    0.372442
    11  C   -0.059260
    12  H    0.182099
    13  C    0.622159
    14  C   -0.262305
    15  H    0.135036
    16  H    0.110304
    17  O   -0.539333
    18  C   -0.062777
    19  H    0.165838
    20  C   -0.479181
    21  H    0.103915
    22  H    0.186759
    23  H    0.127054
    24  C   -0.476870
    25  H    0.123660
    26  H    0.218122
    27  H    0.153399
    28  N   -0.617613
    29  H    0.342754
    30  C   -0.050242
    31  H    0.182097
    32  C    0.615591
    33  C   -0.099915
    34  H    0.161811
    35  O   -0.536648
    36  C   -0.451945
    37  H    0.144087
    38  H    0.163493
    39  H    0.156052
    40  C   -0.476309
    41  H    0.122883
    42  H    0.166803
    43  H    0.184529
    44  N   -0.604695
    45  H    0.379434
    46  C   -0.048874
    47  H    0.205928
    48  C    0.582603
    49  C   -0.276560
    50  H    0.156753
    51  H    0.172708
    52  O   -0.443509
    53  C   -0.273933
    54  H    0.182778
    55  H    0.168648
    56  C   -0.301184
    57  H    0.171394
    58  H    0.170706
    59  C   -0.205348
    60  H    0.229100
    61  H    0.229371
    62  N   -0.747737
    63  H    0.427133
    64  H    0.421824
    65  H    0.422451
    66  O   -0.565637
    67  H    0.426301
 Sum of Mulliken charges =   1.00000

 Dipole moment (field-independent basis, Debye):
    X=             -8.1300    Y=              7.6904    Z=            -22.9752  Tot=             25.5558
 Quadrupole moment (field-independent basis, Debye-Ang):
   XX=           -141.4375   YY=           -147.0042   ZZ=            -13.9444
   XY=            -14.2439   XZ=             50.6694   YZ=            -30.4729

 Normal termination of Gaussian 16 at Fri May 27 02:24:42 2022.
