 Gaussian 16, Revision C.01,
 Gaussian 16:  ES64L-G16RevC.01  3-Jul-2019

 -------------------------------------------------------------------
 # B3LYP/6-31G* guess=read geom=check nosymm integral(ultrafinegrid)
 -------------------------------------------------------------------

 ------------------------------------------------------
 Candidate Structure: Conf:879 Charge calc in gas phase
 ------------------------------------------------------
 Structure from the checkpoint file:  "conf-879.chk"
 Charge =  1 Multiplicity = 1

                          Input orientation:
 ---------------------------------------------------------------------
 Center     Atomic      Atomic             Coordinates (Angstroms)
 Number     Number       Type             X           Y           Z
 ---------------------------------------------------------------------
      1          7           0       -3.964912    2.035286    3.667604
      2          1           0       -3.176611    1.563395    4.102607
      3          1           0       -3.636854    2.902997    3.252763
      4          6           0       -4.667065    1.190491    2.713767
      5          1           0       -5.546360    1.730073    2.342653
      6          1           0       -5.062206    0.312750    3.237275
      7          6           0       -3.933722    0.649895    1.472742
      8          8           0       -4.492101   -0.124343    0.700867
      9          7           0       -2.659841    1.106794    1.287013
     10          1           0       -2.198628    1.583234    2.053859
     11          6           0       -1.766549    0.530516    0.300365
     12          1           0       -2.226020   -0.398570   -0.051688
     13          6           0       -0.432524    0.233334    1.001218
     14          6           0       -1.502192    1.476239   -0.899218
     15          1           0       -1.046657    2.393818   -0.501560
     16          1           0       -0.747713    1.009218   -1.550945
     17          8           0       -0.075657    0.858401    1.997255
     18          6           0       -2.737082    1.842314   -1.744402
     19          1           0       -3.490268    2.266284   -1.067058
     20          6           0       -2.359242    2.926169   -2.766197
     21          1           0       -1.605238    2.553381   -3.473864
     22          1           0       -3.233430    3.236880   -3.349499
     23          1           0       -1.947649    3.817769   -2.277322
     24          6           0       -3.359105    0.622149   -2.439265
     25          1           0       -2.620221    0.107750   -3.070413
     26          1           0       -3.761926   -0.088268   -1.712039
     27          1           0       -4.187411    0.930916   -3.087631
     28          7           0        0.323265   -0.742420    0.421118
     29          1           0        0.048598   -1.100848   -0.486356
     30          6           0        1.719874   -0.947700    0.764695
     31          1           0        2.023036   -0.094889    1.382323
     32          6           0        2.518974   -0.945711   -0.544780
     33          6           0        1.972497   -2.251721    1.583225
     34          1           0        3.059028   -2.302272    1.751033
     35          8           0        1.991158   -1.149792   -1.639796
     36          6           0        1.286679   -2.169896    2.953489
     37          1           0        0.197832   -2.131994    2.844243
     38          1           0        1.533563   -3.052970    3.552837
     39          1           0        1.596386   -1.279044    3.509525
     40          6           0        1.545918   -3.513399    0.819650
     41          1           0        0.465106   -3.511561    0.638145
     42          1           0        1.779740   -4.407830    1.406481
     43          1           0        2.049749   -3.606593   -0.149125
     44          7           0        3.855949   -0.717986   -0.429109
     45          1           0        4.303336   -0.625293    0.475890
     46          6           0        4.732919   -0.845629   -1.577185
     47          1           0        4.474781   -1.764429   -2.120814
     48          6           0        6.154226   -0.987191   -1.047069
     49          6           0        4.567511    0.350255   -2.555896
     50          1           0        3.498697    0.580860   -2.555900
     51          1           0        5.096257    1.228236   -2.163760
     52          8           0        6.464619   -0.894319    0.118254
     53          6           0        5.003776    0.045440   -3.995171
     54          1           0        4.508126   -0.877073   -4.326366
     55          1           0        6.082985   -0.135014   -4.041817
     56          6           0        4.618152    1.190310   -4.949938
     57          1           0        3.536268    1.370157   -4.879448
     58          1           0        5.124683    2.116572   -4.644405
     59          6           0        4.987273    0.850354   -6.387922
     60          1           0        6.064418    0.736405   -6.531872
     61          1           0        4.483643   -0.051125   -6.745355
     62          7           0        4.554319    1.972172   -7.339407
     63          1           0        4.790524    1.764610   -8.317819
     64          1           0        3.538931    2.123883   -7.289393
     65          1           0        5.005338    2.861681   -7.091464
     66          8           0        7.043710   -1.221143   -2.036304
     67          1           0        7.919515   -1.306825   -1.610965
 ---------------------------------------------------------------------

 SCF Done:  E(RB3LYP) =  -1396.62003495     A.U. after    3 cycles

 Alpha  occ. eigenvalues --  -19.30888 -19.25168 -19.20966 -19.18295 -19.15175
 Alpha  occ. eigenvalues --  -14.66617 -14.45537 -14.42641 -14.40180 -14.36718
 Alpha  occ. eigenvalues --  -10.43634 -10.43175 -10.37790 -10.36218 -10.35199
 Alpha  occ. eigenvalues --  -10.34935 -10.32619 -10.32402 -10.30920 -10.30583
 Alpha  occ. eigenvalues --  -10.28694 -10.26653 -10.25882 -10.24547 -10.24070
 Alpha  occ. eigenvalues --  -10.23839 -10.23108 -10.22985 -10.21496  -1.21755
 Alpha  occ. eigenvalues --   -1.20456  -1.13173  -1.12628  -1.10154  -1.07039
 Alpha  occ. eigenvalues --   -1.02314  -0.99345  -0.97247  -0.97012  -0.92870
 Alpha  occ. eigenvalues --   -0.90901  -0.87507  -0.86006  -0.85320  -0.81015
 Alpha  occ. eigenvalues --   -0.80556  -0.79038  -0.77820  -0.77266  -0.74553
 Alpha  occ. eigenvalues --   -0.73708  -0.73587  -0.73079  -0.71687  -0.69852
 Alpha  occ. eigenvalues --   -0.68516  -0.67768  -0.65948  -0.64644  -0.63593
 Alpha  occ. eigenvalues --   -0.62900  -0.62539  -0.61506  -0.59913  -0.59558
 Alpha  occ. eigenvalues --   -0.58706  -0.57363  -0.56682  -0.55742  -0.55240
 Alpha  occ. eigenvalues --   -0.55005  -0.54625  -0.53624  -0.52847  -0.52630
 Alpha  occ. eigenvalues --   -0.52074  -0.51867  -0.51404  -0.50962  -0.49926
 Alpha  occ. eigenvalues --   -0.49473  -0.49026  -0.48492  -0.48075  -0.47473
 Alpha  occ. eigenvalues --   -0.46740  -0.46381  -0.45695  -0.45542  -0.45291
 Alpha  occ. eigenvalues --   -0.44956  -0.44508  -0.44150  -0.43869  -0.43149
 Alpha  occ. eigenvalues --   -0.42892  -0.42757  -0.41557  -0.40706  -0.40039
 Alpha  occ. eigenvalues --   -0.39841  -0.39241  -0.38819  -0.38042  -0.37577
 Alpha  occ. eigenvalues --   -0.37238  -0.35348  -0.34721  -0.32681  -0.32227
 Alpha  occ. eigenvalues --   -0.31551  -0.29753  -0.26682
 Alpha virt. eigenvalues --   -0.16892  -0.10242  -0.10172  -0.10083  -0.08135
 Alpha virt. eigenvalues --   -0.06712  -0.04539  -0.04127  -0.03246  -0.02800
 Alpha virt. eigenvalues --   -0.01673  -0.01360   0.00223   0.00615   0.01766

 Mulliken charges:
               1
     1  N   -0.713743
     2  H    0.311373
     3  H    0.306471
     4  C   -0.235471
     5  H    0.185866
     6  H    0.187123
     7  C    0.573314
     8  O   -0.518611
     9  N   -0.597325
    10  H    0.323928
    11  C   -0.063980
    12  H    0.181936
    13  C    0.609417
    14  C   -0.253193
    15  H    0.136849
    16  H    0.119873
    17  O   -0.534520
    18  C   -0.062591
    19  H    0.146901
    20  C   -0.441870
    21  H    0.115761
    22  H    0.150649
    23  H    0.138176
    24  C   -0.467125
    25  H    0.115356
    26  H    0.194975
    27  H    0.145035
    28  N   -0.599484
    29  H    0.350359
    30  C   -0.069109
    31  H    0.183667
    32  C    0.631127
    33  C   -0.076440
    34  H    0.125237
    35  O   -0.555711
    36  C   -0.445515
    37  H    0.163164
    38  H    0.153542
    39  H    0.159538
    40  C   -0.462178
    41  H    0.159856
    42  H    0.160628
    43  H    0.145411
    44  N   -0.629992
    45  H    0.364674
    46  C   -0.017242
    47  H    0.196209
    48  C    0.581660
    49  C   -0.278279
    50  H    0.191994
    51  H    0.156923
    52  O   -0.443778
    53  C   -0.282448
    54  H    0.168212
    55  H    0.180329
    56  C   -0.294855
    57  H    0.176619
    58  H    0.171968
    59  C   -0.207496
    60  H    0.231863
    61  H    0.234199
    62  N   -0.731910
    63  H    0.434537
    64  H    0.430806
    65  H    0.429338
    66  O   -0.572359
    67  H    0.430363
 Sum of Mulliken charges =   1.00000

 Dipole moment (field-independent basis, Debye):
    X=             27.3840    Y=              7.4748    Z=            -31.8815  Tot=             42.6871
 Quadrupole moment (field-independent basis, Debye-Ang):
   XX=            -57.5982   YY=           -150.5032   ZZ=             52.8629
   XY=             25.6459   XZ=           -152.6167   YZ=            -63.5677

 Normal termination of Gaussian 16 at Fri May 27 02:24:56 2022.
