 Gaussian 16, Revision C.01,
 Gaussian 16:  ES64L-G16RevC.01  3-Jul-2019

 -------------------------------------------------------------------
 # B3LYP/6-31G* guess=read geom=check nosymm integral(ultrafinegrid)
 -------------------------------------------------------------------

 ------------------------------------------------------
 Candidate Structure: Conf:234 Charge calc in gas phase
 ------------------------------------------------------
 Structure from the checkpoint file:  "conf-234.chk"
 Charge =  1 Multiplicity = 1

                          Input orientation:
 ---------------------------------------------------------------------
 Center     Atomic      Atomic             Coordinates (Angstroms)
 Number     Number       Type             X           Y           Z
 ---------------------------------------------------------------------
      1          7           0       -1.943070   -2.890279   -0.757150
      2          1           0       -2.849087   -3.293853   -0.980830
      3          1           0       -1.456071   -3.551712   -0.160083
      4          6           0       -1.175170   -2.592508   -1.963613
      5          1           0       -1.411401   -3.228146   -2.829372
      6          1           0       -0.105343   -2.714564   -1.754878
      7          6           0       -1.330575   -1.137058   -2.398957
      8          8           0       -0.919451   -0.726744   -3.506166
      9          7           0       -1.883071   -0.319541   -1.501516
     10          1           0       -2.201467   -0.777586   -0.647610
     11          6           0       -1.986479    1.130604   -1.690786
     12          1           0       -2.407953    1.314942   -2.681198
     13          6           0       -0.593622    1.798117   -1.713715
     14          6           0       -2.902130    1.717009   -0.597562
     15          1           0       -3.870389    1.200680   -0.666633
     16          1           0       -2.475919    1.463416    0.383669
     17          8           0       -0.378051    2.776091   -2.416530
     18          6           0       -3.140945    3.239593   -0.662126
     19          1           0       -2.170208    3.741944   -0.556955
     20          6           0       -3.754550    3.683355   -1.998574
     21          1           0       -4.689405    3.144991   -2.204813
     22          1           0       -3.990029    4.752823   -1.972776
     23          1           0       -3.064542    3.521991   -2.832498
     24          6           0       -4.025371    3.663919    0.520225
     25          1           0       -5.019795    3.203768    0.456043
     26          1           0       -3.583555    3.374296    1.481200
     27          1           0       -4.163689    4.750251    0.530350
     28          7           0        0.324739    1.255632   -0.855995
     29          1           0        0.135561    0.321034   -0.515288
     30          6           0        1.737754    1.578609   -0.948486
     31          1           0        1.827982    2.353842   -1.717046
     32          6           0        2.481136    0.314446   -1.415924
     33          6           0        2.325278    2.133129    0.384230
     34          1           0        3.399291    2.291631    0.209404
     35          8           0        1.972812   -0.808871   -1.345862
     36          6           0        1.694573    3.490062    0.722973
     37          1           0        0.618858    3.387273    0.902723
     38          1           0        2.148611    3.905625    1.628793
     39          1           0        1.832005    4.213595   -0.088075
     40          6           0        2.178137    1.139233    1.545623
     41          1           0        1.121796    0.969127    1.785470
     42          1           0        2.657920    1.536037    2.446053
     43          1           0        2.636090    0.168388    1.324061
     44          7           0        3.722733    0.528611   -1.928969
     45          1           0        4.136952    1.447185   -1.802037
     46          6           0        4.698835   -0.537247   -2.119065
     47          1           0        4.309608   -1.441002   -1.639291
     48          6           0        5.974934   -0.105501   -1.390696
     49          6           0        5.025546   -0.841731   -3.604158
     50          1           0        5.203535    0.108930   -4.123481
     51          1           0        5.970337   -1.394836   -3.626918
     52          8           0        6.180044    1.019534   -0.990802
     53          6           0        3.986196   -1.678571   -4.369006
     54          1           0        3.820483   -2.623197   -3.833515
     55          1           0        4.435557   -1.946828   -5.334987
     56          6           0        2.631064   -0.996368   -4.617948
     57          1           0        2.097869   -0.865591   -3.672303
     58          1           0        2.789589   -0.000716   -5.055503
     59          6           0        1.767660   -1.830261   -5.560775
     60          1           0        2.204525   -1.913339   -6.559980
     61          1           0        1.603006   -2.838802   -5.170928
     62          7           0        0.398160   -1.210256   -5.711534
     63          1           0       -0.175864   -1.713138   -6.394778
     64          1           0       -0.133406   -1.177859   -4.773652
     65          1           0        0.468733   -0.237846   -6.029598
     66          8           0        6.849610   -1.118662   -1.273646
     67          1           0        7.644800   -0.768439   -0.826730
 ---------------------------------------------------------------------

 SCF Done:  E(RB3LYP) =  -1396.67504198     A.U. after    1 cycles

 Alpha  occ. eigenvalues --  -19.29834 -19.24908 -19.24391 -19.22557 -19.20212
 Alpha  occ. eigenvalues --  -14.57648 -14.47401 -14.46432 -14.44417 -14.44034
 Alpha  occ. eigenvalues --  -10.42350 -10.40924 -10.39163 -10.38191 -10.37408
 Alpha  occ. eigenvalues --  -10.34394 -10.33827 -10.32736 -10.32047 -10.31485
 Alpha  occ. eigenvalues --  -10.30527 -10.29998 -10.28087 -10.27683 -10.26260
 Alpha  occ. eigenvalues --  -10.25393 -10.24716 -10.23871 -10.23682  -1.20877
 Alpha  occ. eigenvalues --   -1.15983  -1.14188  -1.12444  -1.12063  -1.11943
 Alpha  occ. eigenvalues --   -1.04526  -1.03086  -1.01165  -0.99934  -0.93003
 Alpha  occ. eigenvalues --   -0.89891  -0.89064  -0.87838  -0.84445  -0.83355
 Alpha  occ. eigenvalues --   -0.80621  -0.79240  -0.76862  -0.76119  -0.74898
 Alpha  occ. eigenvalues --   -0.73761  -0.72709  -0.72050  -0.71420  -0.69445
 Alpha  occ. eigenvalues --   -0.68694  -0.68506  -0.67430  -0.65398  -0.64098
 Alpha  occ. eigenvalues --   -0.63268  -0.62630  -0.62521  -0.61327  -0.60417
 Alpha  occ. eigenvalues --   -0.59333  -0.58868  -0.58410  -0.57036  -0.56902
 Alpha  occ. eigenvalues --   -0.56012  -0.55861  -0.55335  -0.54466  -0.54273
 Alpha  occ. eigenvalues --   -0.53935  -0.53061  -0.52592  -0.51923  -0.51538
 Alpha  occ. eigenvalues --   -0.51449  -0.50646  -0.50141  -0.49917  -0.49447
 Alpha  occ. eigenvalues --   -0.49124  -0.48333  -0.48133  -0.47651  -0.46275
 Alpha  occ. eigenvalues --   -0.46128  -0.46047  -0.45720  -0.45455  -0.45293
 Alpha  occ. eigenvalues --   -0.44773  -0.44409  -0.43473  -0.42371  -0.41932
 Alpha  occ. eigenvalues --   -0.41419  -0.41358  -0.40589  -0.39820  -0.39734
 Alpha  occ. eigenvalues --   -0.39528  -0.38552  -0.38121  -0.36632  -0.36150
 Alpha  occ. eigenvalues --   -0.35975  -0.34206  -0.33262
 Alpha virt. eigenvalues --   -0.09993  -0.09687  -0.09350  -0.08410  -0.06593
 Alpha virt. eigenvalues --   -0.04124  -0.03576  -0.03082  -0.01837  -0.01190
 Alpha virt. eigenvalues --   -0.00558  -0.00146   0.00744   0.01622   0.02069

 Mulliken charges:
               1
     1  N   -0.744875
     2  H    0.332046
     3  H    0.337754
     4  C   -0.252185
     5  H    0.158909
     6  H    0.213543
     7  C    0.645789
     8  O   -0.601203
     9  N   -0.613915
    10  H    0.376280
    11  C   -0.021534
    12  H    0.188830
    13  C    0.613379
    14  C   -0.295725
    15  H    0.151944
    16  H    0.142358
    17  O   -0.515651
    18  C   -0.080759
    19  H    0.153403
    20  C   -0.458255
    21  H    0.137034
    22  H    0.158320
    23  H    0.163090
    24  C   -0.446721
    25  H    0.145829
    26  H    0.143774
    27  H    0.159282
    28  N   -0.590341
    29  H    0.340680
    30  C   -0.083059
    31  H    0.188915
    32  C    0.626478
    33  C   -0.083537
    34  H    0.142537
    35  O   -0.564713
    36  C   -0.448969
    37  H    0.157626
    38  H    0.160934
    39  H    0.158016
    40  C   -0.464195
    41  H    0.148405
    42  H    0.167827
    43  H    0.150133
    44  N   -0.592416
    45  H    0.359919
    46  C   -0.051976
    47  H    0.202203
    48  C    0.583354
    49  C   -0.276882
    50  H    0.159154
    51  H    0.184633
    52  O   -0.453868
    53  C   -0.274821
    54  H    0.158770
    55  H    0.155705
    56  C   -0.297062
    57  H    0.204976
    58  H    0.155898
    59  C   -0.190635
    60  H    0.202375
    61  H    0.202186
    62  N   -0.757876
    63  H    0.400203
    64  H    0.447412
    65  H    0.404975
    66  O   -0.555751
    67  H    0.432047
 Sum of Mulliken charges =   1.00000

 Dipole moment (field-independent basis, Debye):
    X=              4.4802    Y=             -7.8829    Z=            -17.1712  Tot=             19.4181
 Quadrupole moment (field-independent basis, Debye-Ang):
   XX=           -115.6357   YY=           -153.9294   ZZ=            -68.4327
   XY=             -2.3572   XZ=            -20.1389   YZ=             34.5569

 Normal termination of Gaussian 16 at Fri May 27 02:05:59 2022.
