 Gaussian 16, Revision C.01,
 Gaussian 16:  ES64L-G16RevC.01  3-Jul-2019

 -------------------------------------------------------------------
 # B3LYP/6-31G* guess=read geom=check nosymm integral(ultrafinegrid)
 -------------------------------------------------------------------

 ------------------------------------------------------
 Candidate Structure: Conf:983 Charge calc in gas phase
 ------------------------------------------------------
 Structure from the checkpoint file:  "conf-983.chk"
 Charge =  1 Multiplicity = 1

                          Input orientation:
 ---------------------------------------------------------------------
 Center     Atomic      Atomic             Coordinates (Angstroms)
 Number     Number       Type             X           Y           Z
 ---------------------------------------------------------------------
      1          7           0       -3.271814    1.925050    3.096043
      2          1           0       -4.227380    1.577034    3.133585
      3          1           0       -3.182964    2.618000    3.834142
      4          6           0       -2.314551    0.832168    3.287003
      5          1           0       -2.647579    0.028699    3.958536
      6          1           0       -1.393983    1.237970    3.722744
      7          6           0       -1.914223    0.165903    1.968296
      8          8           0       -1.302596   -0.912181    1.959109
      9          7           0       -2.246792    0.853731    0.858852
     10          1           0       -2.728627    1.735485    1.019025
     11          6           0       -2.044883    0.350565   -0.503009
     12          1           0       -2.219136   -0.730744   -0.462654
     13          6           0       -0.573036    0.576018   -0.935586
     14          6           0       -3.031289    1.030917   -1.458399
     15          1           0       -4.019472    1.035465   -0.977536
     16          1           0       -2.717593    2.074617   -1.578717
     17          8           0       -0.236645    1.401882   -1.776063
     18          6           0       -3.156619    0.380952   -2.851517
     19          1           0       -2.146373    0.281391   -3.266880
     20          6           0       -3.794917   -1.015149   -2.793300
     21          1           0       -4.810023   -0.966453   -2.377565
     22          1           0       -3.867384   -1.448180   -3.797320
     23          1           0       -3.213354   -1.716602   -2.185359
     24          6           0       -3.959078    1.303806   -3.781060
     25          1           0       -4.976132    1.462388   -3.398992
     26          1           0       -3.480669    2.285020   -3.879090
     27          1           0       -4.048790    0.871054   -4.784344
     28          7           0        0.329023   -0.241152   -0.304926
     29          1           0       -0.022825   -0.761859    0.501640
     30          6           0        1.759927    0.026034   -0.433175
     31          1           0        1.958992    1.091150   -0.260658
     32          6           0        2.240481   -0.212567   -1.875801
     33          6           0        2.563058   -0.810841    0.601751
     34          1           0        2.294811   -1.866547    0.445743
     35          8           0        3.164642    0.429921   -2.364328
     36          6           0        4.080842   -0.665295    0.409012
     37          1           0        4.390994    0.381257    0.507767
     38          1           0        4.606980   -1.247325    1.173799
     39          1           0        4.413714   -1.009923   -0.574461
     40          6           0        2.187162   -0.420516    2.042667
     41          1           0        2.410951    0.638685    2.222926
     42          1           0        2.776206   -1.009565    2.754504
     43          1           0        1.131752   -0.591961    2.271884
     44          7           0        1.623253   -1.239538   -2.544564
     45          1           0        0.740438   -1.562453   -2.157883
     46          6           0        1.726197   -1.327106   -3.989918
     47          1           0        1.974120   -0.331667   -4.381109
     48          6           0        0.357282   -1.719253   -4.537959
     49          6           0        2.807549   -2.318922   -4.485015
     50          1           0        2.560578   -3.327275   -4.126638
     51          1           0        2.770043   -2.343066   -5.580539
     52          8           0       -0.600083   -2.014369   -3.857003
     53          6           0        4.213076   -1.926702   -4.014473
     54          1           0        4.258116   -1.981479   -2.921814
     55          1           0        4.407779   -0.879988   -4.271628
     56          6           0        5.305825   -2.826138   -4.618636
     57          1           0        5.128391   -3.874794   -4.340087
     58          1           0        5.272343   -2.768186   -5.716000
     59          6           0        6.673794   -2.381160   -4.120411
     60          1           0        6.907375   -1.353471   -4.408630
     61          1           0        6.775560   -2.475976   -3.036739
     62          7           0        7.788411   -3.247230   -4.722216
     63          1           0        8.720490   -2.960776   -4.398293
     64          1           0        7.660529   -4.235740   -4.473083
     65          1           0        7.782850   -3.190429   -5.748088
     66          8           0        0.338648   -1.713681   -5.885379
     67          1           0       -0.565264   -1.963741   -6.157990
 ---------------------------------------------------------------------

 SCF Done:  E(RB3LYP) =  -1396.63419322     A.U. after    1 cycles

 Alpha  occ. eigenvalues --  -19.28541 -19.23048 -19.18367 -19.17668 -19.17551
 Alpha  occ. eigenvalues --  -14.65493 -14.42604 -14.41925 -14.41097 -14.39338
 Alpha  occ. eigenvalues --  -10.42231 -10.40964 -10.35286 -10.34724 -10.34598
 Alpha  occ. eigenvalues --  -10.34156 -10.32462 -10.30410 -10.29340 -10.29256
 Alpha  occ. eigenvalues --  -10.28952 -10.28375 -10.26670 -10.24323 -10.23583
 Alpha  occ. eigenvalues --  -10.23468 -10.23346 -10.21767 -10.21674  -1.19529
 Alpha  occ. eigenvalues --   -1.19324  -1.10797  -1.10243  -1.09546  -1.08788
 Alpha  occ. eigenvalues --   -0.99954  -0.98776  -0.97679  -0.95729  -0.95119
 Alpha  occ. eigenvalues --   -0.88888  -0.86830  -0.85806  -0.83862  -0.80772
 Alpha  occ. eigenvalues --   -0.79295  -0.77939  -0.77055  -0.75812  -0.75388
 Alpha  occ. eigenvalues --   -0.74737  -0.72606  -0.71076  -0.70338  -0.69051
 Alpha  occ. eigenvalues --   -0.66661  -0.65443  -0.64827  -0.64802  -0.63187
 Alpha  occ. eigenvalues --   -0.62263  -0.60368  -0.59553  -0.58511  -0.58017
 Alpha  occ. eigenvalues --   -0.57496  -0.57460  -0.56256  -0.55603  -0.54941
 Alpha  occ. eigenvalues --   -0.54463  -0.54219  -0.52995  -0.52737  -0.51902
 Alpha  occ. eigenvalues --   -0.50966  -0.50462  -0.50108  -0.49892  -0.49052
 Alpha  occ. eigenvalues --   -0.48386  -0.47964  -0.47857  -0.47537  -0.46969
 Alpha  occ. eigenvalues --   -0.46538  -0.46116  -0.45890  -0.45800  -0.44935
 Alpha  occ. eigenvalues --   -0.44720  -0.44073  -0.43421  -0.42830  -0.42721
 Alpha  occ. eigenvalues --   -0.42375  -0.41946  -0.40716  -0.40629  -0.40605
 Alpha  occ. eigenvalues --   -0.40011  -0.39048  -0.37667  -0.37088  -0.36863
 Alpha  occ. eigenvalues --   -0.36663  -0.33756  -0.33341  -0.33019  -0.32978
 Alpha  occ. eigenvalues --   -0.30866  -0.30314  -0.29606
 Alpha virt. eigenvalues --   -0.15895  -0.09190  -0.09158  -0.07984  -0.06679
 Alpha virt. eigenvalues --   -0.04828  -0.04605  -0.03269  -0.03056  -0.01983
 Alpha virt. eigenvalues --   -0.01060  -0.00464   0.01352   0.01552   0.02771

 Mulliken charges:
               1
     1  N   -0.742888
     2  H    0.321001
     3  H    0.325010
     4  C   -0.235146
     5  H    0.175635
     6  H    0.184032
     7  C    0.602108
     8  O   -0.555100
     9  N   -0.594625
    10  H    0.366463
    11  C   -0.053253
    12  H    0.176214
    13  C    0.620556
    14  C   -0.279556
    15  H    0.133653
    16  H    0.160243
    17  O   -0.516753
    18  C   -0.081561
    19  H    0.145258
    20  C   -0.442443
    21  H    0.138671
    22  H    0.140870
    23  H    0.147217
    24  C   -0.446309
    25  H    0.141611
    26  H    0.150690
    27  H    0.137973
    28  N   -0.681393
    29  H    0.385630
    30  C    0.005438
    31  H    0.176609
    32  C    0.618050
    33  C   -0.112568
    34  H    0.132082
    35  O   -0.544529
    36  C   -0.450142
    37  H    0.162452
    38  H    0.143090
    39  H    0.133756
    40  C   -0.471358
    41  H    0.147320
    42  H    0.150458
    43  H    0.180565
    44  N   -0.613491
    45  H    0.363150
    46  C   -0.036183
    47  H    0.206260
    48  C    0.589417
    49  C   -0.271715
    50  H    0.151568
    51  H    0.164928
    52  O   -0.456438
    53  C   -0.275660
    54  H    0.180867
    55  H    0.185042
    56  C   -0.294633
    57  H    0.166187
    58  H    0.166146
    59  C   -0.207147
    60  H    0.235901
    61  H    0.233255
    62  N   -0.732350
    63  H    0.432387
    64  H    0.427299
    65  H    0.427689
    66  O   -0.564384
    67  H    0.426874
 Sum of Mulliken charges =   1.00000

 Dipole moment (field-independent basis, Debye):
    X=             27.7518    Y=            -14.0142    Z=            -17.7869  Tot=             35.8180
 Quadrupole moment (field-independent basis, Debye-Ang):
   XX=             91.7417   YY=           -128.7959   ZZ=            -48.3016
   XY=           -117.0165   XZ=           -156.3365   YZ=             85.5541

 Normal termination of Gaussian 16 at Fri May 27 02:24:36 2022.
