 Gaussian 16, Revision C.01,
 Gaussian 16:  ES64L-G16RevC.01  3-Jul-2019

 -------------------------------------------------------------------
 # B3LYP/6-31G* guess=read geom=check nosymm integral(ultrafinegrid)
 -------------------------------------------------------------------

 ------------------------------------------------------
 Candidate Structure: Conf:123 Charge calc in gas phase
 ------------------------------------------------------
 Structure from the checkpoint file:  "conf-123.chk"
 Charge =  1 Multiplicity = 1

                          Input orientation:
 ---------------------------------------------------------------------
 Center     Atomic      Atomic             Coordinates (Angstroms)
 Number     Number       Type             X           Y           Z
 ---------------------------------------------------------------------
      1          7           0       -4.069698    0.543121    3.481036
      2          1           0       -4.706640    0.917554    4.179252
      3          1           0       -3.629535   -0.275529    3.895891
      4          6           0       -4.793552    0.176755    2.260730
      5          1           0       -5.566845    0.931233    2.073133
      6          1           0       -5.306146   -0.794977    2.290067
      7          6           0       -3.891954    0.157847    1.020348
      8          8           0       -4.242922   -0.402859   -0.015374
      9          7           0       -2.724488    0.839240    1.167446
     10          1           0       -2.499216    1.166404    2.104000
     11          6           0       -1.692776    0.839572    0.152719
     12          1           0       -1.994173    0.101204   -0.596543
     13          6           0       -0.364250    0.430382    0.803734
     14          6           0       -1.505274    2.224982   -0.515649
     15          1           0       -1.189409    2.930200    0.264815
     16          1           0       -0.668476    2.151403   -1.228388
     17          8           0       -0.071806    0.767365    1.945874
     18          6           0       -2.739979    2.785593   -1.245928
     19          1           0       -3.560669    2.832532   -0.517647
     20          6           0       -2.453063    4.217727   -1.722987
     21          1           0       -1.638578    4.231592   -2.461111
     22          1           0       -3.336506    4.657554   -2.199522
     23          1           0       -2.160522    4.870099   -0.891494
     24          6           0       -3.193220    1.894855   -2.412471
     25          1           0       -2.377024    1.746624   -3.134873
     26          1           0       -3.535551    0.916536   -2.062405
     27          1           0       -4.026422    2.361442   -2.950956
     28          7           0        0.471469   -0.295647    0.001819
     29          1           0        0.208874   -0.486904   -0.956721
     30          6           0        1.844933   -0.608847    0.369076
     31          1           0        2.025417   -0.105472    1.324397
     32          6           0        2.737895   -0.029643   -0.731990
     33          6           0        2.082955   -2.135886    0.537599
     34          1           0        1.861832   -2.598645   -0.434932
     35          8           0        2.492039   -0.215456   -1.927088
     36          6           0        3.546261   -2.440681    0.893960
     37          1           0        3.833072   -1.959589    1.838222
     38          1           0        3.687355   -3.518867    1.021745
     39          1           0        4.245252   -2.108926    0.117942
     40          6           0        1.131329   -2.720886    1.589366
     41          1           0        1.309361   -2.273874    2.574718
     42          1           0        1.283735   -3.802154    1.676667
     43          1           0        0.084256   -2.548049    1.325925
     44          7           0        3.803455    0.717342   -0.334913
     45          1           0        4.052286    0.821808    0.641964
     46          6           0        4.740624    1.219623   -1.318584
     47          1           0        4.959740    0.412171   -2.029935
     48          6           0        6.027681    1.586553   -0.595424
     49          6           0        4.143934    2.411292   -2.119222
     50          1           0        3.073256    2.207846   -2.204858
     51          1           0        4.257306    3.344350   -1.553907
     52          8           0        6.165932    1.581539    0.591973
     53          6           0        4.721675    2.553019   -3.532833
     54          1           0        4.610798    1.568069   -4.017933
     55          1           0        5.795320    2.768876   -3.496423
     56          6           0        3.993442    3.641632   -4.337572
     57          1           0        2.904794    3.493853   -4.292326
     58          1           0        4.178424    4.624227   -3.887068
     59          6           0        4.428975    3.748564   -5.795028
     60          1           0        3.940832    4.570362   -6.323528
     61          1           0        5.512229    3.844326   -5.903731
     62          7           0        4.046718    2.477523   -6.562102
     63          1           0        4.356549    2.505994   -7.540759
     64          1           0        4.464514    1.648999   -6.120122
     65          1           0        3.028267    2.338271   -6.559237
     66          8           0        7.005458    1.938640   -1.456554
     67          1           0        7.788339    2.163267   -0.915867
 ---------------------------------------------------------------------

 SCF Done:  E(RB3LYP) =  -1396.62488527     A.U. after    1 cycles

 Alpha  occ. eigenvalues --  -19.30814 -19.25203 -19.20840 -19.17767 -19.15182
 Alpha  occ. eigenvalues --  -14.65866 -14.45747 -14.42859 -14.39679 -14.37700
 Alpha  occ. eigenvalues --  -10.43236 -10.43069 -10.37735 -10.35840 -10.35014
 Alpha  occ. eigenvalues --  -10.34920 -10.33441 -10.32518 -10.31266 -10.30538
 Alpha  occ. eigenvalues --  -10.28556 -10.26579 -10.26516 -10.24548 -10.24535
 Alpha  occ. eigenvalues --  -10.24222 -10.23280 -10.22992 -10.21915  -1.22106
 Alpha  occ. eigenvalues --   -1.19817  -1.13479  -1.12726  -1.09781  -1.06997
 Alpha  occ. eigenvalues --   -1.02396  -0.99285  -0.96960  -0.96887  -0.93578
 Alpha  occ. eigenvalues --   -0.91155  -0.87608  -0.86122  -0.85540  -0.81052
 Alpha  occ. eigenvalues --   -0.80178  -0.78500  -0.77710  -0.77199  -0.74899
 Alpha  occ. eigenvalues --   -0.74237  -0.74128  -0.73296  -0.71723  -0.69751
 Alpha  occ. eigenvalues --   -0.68476  -0.67848  -0.65542  -0.64559  -0.62862
 Alpha  occ. eigenvalues --   -0.62794  -0.62065  -0.61699  -0.60086  -0.59730
 Alpha  occ. eigenvalues --   -0.59336  -0.57743  -0.57185  -0.56006  -0.55728
 Alpha  occ. eigenvalues --   -0.55414  -0.53897  -0.53435  -0.52746  -0.52685
 Alpha  occ. eigenvalues --   -0.52180  -0.51980  -0.51136  -0.51057  -0.50743
 Alpha  occ. eigenvalues --   -0.49285  -0.48794  -0.48728  -0.48075  -0.47963
 Alpha  occ. eigenvalues --   -0.47167  -0.46735  -0.46311  -0.45927  -0.45716
 Alpha  occ. eigenvalues --   -0.45468  -0.44727  -0.44378  -0.44160  -0.43422
 Alpha  occ. eigenvalues --   -0.43124  -0.42792  -0.41622  -0.40810  -0.40484
 Alpha  occ. eigenvalues --   -0.39937  -0.39747  -0.38949  -0.38115  -0.37746
 Alpha  occ. eigenvalues --   -0.37393  -0.35452  -0.34972  -0.32187  -0.31668
 Alpha  occ. eigenvalues --   -0.30907  -0.29241  -0.28411
 Alpha virt. eigenvalues --   -0.16155  -0.09963  -0.09675  -0.09519  -0.07157
 Alpha virt. eigenvalues --   -0.06961  -0.04261  -0.03639  -0.03141  -0.02756
 Alpha virt. eigenvalues --   -0.01581  -0.01363   0.00031   0.00645   0.01405

 Mulliken charges:
               1
     1  N   -0.739855
     2  H    0.318929
     3  H    0.316409
     4  C   -0.233817
     5  H    0.180309
     6  H    0.166644
     7  C    0.583265
     8  O   -0.528649
     9  N   -0.587605
    10  H    0.368107
    11  C   -0.063442
    12  H    0.172942
    13  C    0.613572
    14  C   -0.249882
    15  H    0.147506
    16  H    0.106231
    17  O   -0.526061
    18  C   -0.063592
    19  H    0.146241
    20  C   -0.440663
    21  H    0.113770
    22  H    0.150476
    23  H    0.144195
    24  C   -0.467157
    25  H    0.106838
    26  H    0.194970
    27  H    0.145184
    28  N   -0.608823
    29  H    0.340304
    30  C   -0.048918
    31  H    0.178640
    32  C    0.630208
    33  C   -0.076388
    34  H    0.140213
    35  O   -0.568902
    36  C   -0.463569
    37  H    0.150067
    38  H    0.165431
    39  H    0.138977
    40  C   -0.448303
    41  H    0.158150
    42  H    0.153897
    43  H    0.161411
    44  N   -0.622096
    45  H    0.365726
    46  C   -0.017725
    47  H    0.188073
    48  C    0.580028
    49  C   -0.273029
    50  H    0.189935
    51  H    0.167951
    52  O   -0.432120
    53  C   -0.298940
    54  H    0.124843
    55  H    0.188691
    56  C   -0.295850
    57  H    0.176506
    58  H    0.211727
    59  C   -0.209771
    60  H    0.232646
    61  H    0.230448
    62  N   -0.731703
    63  H    0.433324
    64  H    0.430131
    65  H    0.430353
    66  O   -0.576662
    67  H    0.430254
 Sum of Mulliken charges =   1.00000

 Dipole moment (field-independent basis, Debye):
    X=             21.5690    Y=             12.8452    Z=            -25.2947  Tot=             35.6376
 Quadrupole moment (field-independent basis, Debye-Ang):
   XX=            -61.0496   YY=           -129.8998   ZZ=             11.4550
   XY=             52.8166   XZ=           -133.9155   YZ=            -82.3949

 Normal termination of Gaussian 16 at Fri May 27 02:05:55 2022.
