 Gaussian 16, Revision C.01,
 Gaussian 16:  ES64L-G16RevC.01  3-Jul-2019

 -------------------------------------------------------------------
 # B3LYP/6-31G* guess=read geom=check nosymm integral(ultrafinegrid)
 -------------------------------------------------------------------

 ------------------------------------------------------
 Candidate Structure: Conf:876 Charge calc in gas phase
 ------------------------------------------------------
 Structure from the checkpoint file:  "conf-876.chk"
 Charge =  1 Multiplicity = 1

                          Input orientation:
 ---------------------------------------------------------------------
 Center     Atomic      Atomic             Coordinates (Angstroms)
 Number     Number       Type             X           Y           Z
 ---------------------------------------------------------------------
      1          7           0       -1.553804   -2.022380   -4.692523
      2          1           0       -1.900131   -2.857682   -5.163816
      3          1           0       -1.876613   -1.226725   -5.243150
      4          6           0       -2.146645   -1.944971   -3.349475
      5          1           0       -1.888508   -2.858666   -2.801033
      6          1           0       -3.245518   -1.879524   -3.360479
      7          6           0       -1.573377   -0.731207   -2.607667
      8          8           0       -0.735134   -0.003447   -3.135683
      9          7           0       -2.028448   -0.533191   -1.341834
     10          1           0       -2.811905   -1.083982   -1.011970
     11          6           0       -1.660077    0.665977   -0.574139
     12          1           0       -1.771527    1.541585   -1.218937
     13          6           0       -0.171515    0.669971   -0.177728
     14          6           0       -2.546293    0.809908    0.676815
     15          1           0       -2.406304   -0.076560    1.311761
     16          1           0       -2.151840    1.661082    1.244776
     17          8           0        0.442662    1.723802   -0.073025
     18          6           0       -4.052686    1.032569    0.419558
     19          1           0       -4.443992    0.180975   -0.161739
     20          6           0       -4.803028    1.050640    1.760473
     21          1           0       -4.466678    1.887684    2.384417
     22          1           0       -5.880780    1.165091    1.603572
     23          1           0       -4.641770    0.125757    2.326491
     24          6           0       -4.328909    2.314221   -0.379855
     25          1           0       -3.938568    3.193958    0.146522
     26          1           0       -3.875616    2.293304   -1.377546
     27          1           0       -5.406156    2.459069   -0.514303
     28          7           0        0.385715   -0.550111    0.097166
     29          1           0       -0.118929   -1.367397   -0.222654
     30          6           0        1.840769   -0.687537    0.197570
     31          1           0        2.198501    0.153296    0.798653
     32          6           0        2.365825   -0.570238   -1.240424
     33          6           0        2.248108   -2.015463    0.865743
     34          1           0        1.843779   -2.826808    0.243437
     35          8           0        2.134610   -1.477975   -2.062282
     36          6           0        3.777671   -2.159113    0.893177
     37          1           0        4.240899   -1.349106    1.470129
     38          1           0        4.059953   -3.104157    1.367876
     39          1           0        4.209812   -2.153904   -0.113206
     40          6           0        1.659844   -2.126208    2.279536
     41          1           0        2.060453   -1.341975    2.933378
     42          1           0        1.920257   -3.093012    2.722769
     43          1           0        0.569214   -2.035735    2.281409
     44          7           0        3.009401    0.566600   -1.560650
     45          1           0        3.006336    1.326966   -0.890373
     46          6           0        3.353994    0.881159   -2.942253
     47          1           0        3.542377   -0.069475   -3.443093
     48          6           0        4.652648    1.670406   -3.041158
     49          6           0        2.205726    1.657770   -3.650183
     50          1           0        1.254902    1.251857   -3.291913
     51          1           0        2.240960    2.694494   -3.295727
     52          8           0        5.383943    1.637879   -4.002968
     53          6           0        2.256979    1.629822   -5.192215
     54          1           0        3.296932    1.573267   -5.537207
     55          1           0        1.876675    2.589244   -5.560164
     56          6           0        1.413313    0.541590   -5.888694
     57          1           0        0.378176    0.588661   -5.528830
     58          1           0        1.378724    0.794515   -6.955009
     59          6           0        1.906195   -0.913571   -5.824252
     60          1           0        1.592962   -1.456378   -6.720296
     61          1           0        2.997133   -0.971951   -5.767322
     62          7           0        1.353698   -1.707495   -4.665066
     63          1           0        1.677615   -2.677197   -4.729531
     64          1           0        1.666765   -1.382329   -3.716195
     65          1           0        0.294311   -1.739978   -4.664903
     66          8           0        4.850918    2.461939   -1.965729
     67          1           0        5.671794    2.968039   -2.121890
 ---------------------------------------------------------------------

 SCF Done:  E(RB3LYP) =  -1396.68064472     A.U. after    1 cycles

 Alpha  occ. eigenvalues --  -19.29810 -19.24732 -19.23882 -19.23836 -19.21427
 Alpha  occ. eigenvalues --  -14.53968 -14.48641 -14.47686 -14.47441 -14.46138
 Alpha  occ. eigenvalues --  -10.42178 -10.41701 -10.40284 -10.38590 -10.36291
 Alpha  occ. eigenvalues --  -10.35753 -10.34663 -10.33752 -10.33292 -10.30452
 Alpha  occ. eigenvalues --  -10.28992 -10.28965 -10.28754 -10.28741 -10.28469
 Alpha  occ. eigenvalues --  -10.26168 -10.25944 -10.25702 -10.25412  -1.20602
 Alpha  occ. eigenvalues --   -1.16512  -1.15304  -1.13279  -1.11658  -1.09200
 Alpha  occ. eigenvalues --   -1.04916  -1.04175  -1.03016  -1.02340  -0.91521
 Alpha  occ. eigenvalues --   -0.90958  -0.89823  -0.87857  -0.86077  -0.82746
 Alpha  occ. eigenvalues --   -0.81891  -0.79787  -0.77086  -0.76604  -0.76193
 Alpha  occ. eigenvalues --   -0.74510  -0.72114  -0.71203  -0.70531  -0.69810
 Alpha  occ. eigenvalues --   -0.68593  -0.67679  -0.66793  -0.66338  -0.65741
 Alpha  occ. eigenvalues --   -0.65108  -0.64167  -0.61897  -0.61472  -0.60817
 Alpha  occ. eigenvalues --   -0.60103  -0.59606  -0.57942  -0.57549  -0.57196
 Alpha  occ. eigenvalues --   -0.56728  -0.56539  -0.55884  -0.55663  -0.54430
 Alpha  occ. eigenvalues --   -0.53988  -0.53055  -0.52951  -0.52458  -0.51984
 Alpha  occ. eigenvalues --   -0.51864  -0.51281  -0.50959  -0.50368  -0.49989
 Alpha  occ. eigenvalues --   -0.49695  -0.48725  -0.48478  -0.48074  -0.47553
 Alpha  occ. eigenvalues --   -0.47353  -0.47162  -0.46576  -0.46354  -0.44930
 Alpha  occ. eigenvalues --   -0.44801  -0.44210  -0.43452  -0.43232  -0.42739
 Alpha  occ. eigenvalues --   -0.42269  -0.41789  -0.41737  -0.41623  -0.41424
 Alpha  occ. eigenvalues --   -0.40533  -0.39066  -0.38761  -0.38539  -0.38312
 Alpha  occ. eigenvalues --   -0.36259  -0.35242  -0.34269
 Alpha virt. eigenvalues --   -0.10663  -0.10014  -0.08963  -0.07653  -0.07132
 Alpha virt. eigenvalues --   -0.05090  -0.04388  -0.02296  -0.01566  -0.01059
 Alpha virt. eigenvalues --   -0.00356   0.00004   0.00780   0.00895   0.01568

 Mulliken charges:
               1
     1  N   -0.760583
     2  H    0.339883
     3  H    0.343423
     4  C   -0.248463
     5  H    0.193370
     6  H    0.184946
     7  C    0.616225
     8  O   -0.515323
     9  N   -0.637323
    10  H    0.345814
    11  C   -0.025105
    12  H    0.195254
    13  C    0.623434
    14  C   -0.305675
    15  H    0.144125
    16  H    0.184242
    17  O   -0.525519
    18  C   -0.080986
    19  H    0.106581
    20  C   -0.444695
    21  H    0.158750
    22  H    0.160750
    23  H    0.147014
    24  C   -0.450944
    25  H    0.161291
    26  H    0.141341
    27  H    0.162464
    28  N   -0.597375
    29  H    0.330976
    30  C   -0.035583
    31  H    0.175526
    32  C    0.653310
    33  C   -0.100216
    34  H    0.137703
    35  O   -0.606484
    36  C   -0.463577
    37  H    0.155091
    38  H    0.168405
    39  H    0.156965
    40  C   -0.447332
    41  H    0.158114
    42  H    0.163736
    43  H    0.148125
    44  N   -0.575959
    45  H    0.376758
    46  C   -0.067400
    47  H    0.172192
    48  C    0.600800
    49  C   -0.315624
    50  H    0.208852
    51  H    0.173910
    52  O   -0.444603
    53  C   -0.287132
    54  H    0.178771
    55  H    0.167979
    56  C   -0.293071
    57  H    0.173469
    58  H    0.176032
    59  C   -0.190596
    60  H    0.189261
    61  H    0.203941
    62  N   -0.808569
    63  H    0.380789
    64  H    0.453428
    65  H    0.451083
    66  O   -0.568794
    67  H    0.432806
 Sum of Mulliken charges =   1.00000

 Dipole moment (field-independent basis, Debye):
    X=             -0.8480    Y=             -6.1388    Z=            -14.6595  Tot=             15.9156
 Quadrupole moment (field-independent basis, Debye-Ang):
   XX=           -131.3976   YY=           -149.0315   ZZ=            -90.2689
   XY=              9.5904   XZ=              1.5012   YZ=             24.1318

 Normal termination of Gaussian 16 at Fri May 27 02:24:42 2022.
