 Gaussian 16, Revision C.01,
 Gaussian 16:  ES64L-G16RevC.01  3-Jul-2019

 -------------------------------------------------------------------
 # B3LYP/6-31G* guess=read geom=check nosymm integral(ultrafinegrid)
 -------------------------------------------------------------------

 ------------------------------------------------------
 Candidate Structure: Conf:962 Charge calc in gas phase
 ------------------------------------------------------
 Structure from the checkpoint file:  "conf-962.chk"
 Charge =  1 Multiplicity = 1

                          Input orientation:
 ---------------------------------------------------------------------
 Center     Atomic      Atomic             Coordinates (Angstroms)
 Number     Number       Type             X           Y           Z
 ---------------------------------------------------------------------
      1          7           0       -2.851191    1.594149    4.247415
      2          1           0       -2.958575    0.589747    4.376139
      3          1           0       -1.862645    1.789549    4.392699
      4          6           0       -3.239191    1.952193    2.900409
      5          1           0       -3.074659    3.026807    2.746390
      6          1           0       -4.320647    1.792000    2.787034
      7          6           0       -2.542849    1.164136    1.780166
      8          8           0       -1.921006    0.119739    2.004447
      9          7           0       -2.670636    1.663959    0.519527
     10          1           0       -3.153239    2.543866    0.387465
     11          6           0       -2.267900    0.917415   -0.677222
     12          1           0       -2.426636   -0.141466   -0.445364
     13          6           0       -0.748987    1.101250   -0.936412
     14          6           0       -3.110497    1.328097   -1.889707
     15          1           0       -2.901350    2.379907   -2.124484
     16          1           0       -2.752143    0.753759   -2.755623
     17          8           0       -0.305636    1.733579   -1.912470
     18          6           0       -4.631783    1.107543   -1.754078
     19          1           0       -4.987567    1.680968   -0.885705
     20          6           0       -5.346122    1.660519   -2.996658
     21          1           0       -5.045045    1.114304   -3.900167
     22          1           0       -6.432191    1.561446   -2.899337
     23          1           0       -5.119395    2.721385   -3.154868
     24          6           0       -4.996163   -0.366661   -1.523843
     25          1           0       -4.636277   -0.994715   -2.349741
     26          1           0       -4.577545   -0.762413   -0.591804
     27          1           0       -6.082785   -0.490063   -1.468702
     28          7           0        0.036792    0.515922   -0.015183
     29          1           0       -0.448537    0.090179    0.778877
     30          6           0        1.481452    0.671054    0.050854
     31          1           0        1.711801    1.736174    0.198094
     32          6           0        2.162360    0.241698   -1.263537
     33          6           0        2.071471   -0.117869    1.259573
     34          1           0        3.159704    0.010496    1.181208
     35          8           0        1.688728   -0.618971   -2.021539
     36          6           0        1.631315    0.497627    2.598459
     37          1           0        0.555603    0.381565    2.770720
     38          1           0        2.149203   -0.002620    3.423222
     39          1           0        1.875469    1.565410    2.649633
     40          6           0        1.767716   -1.623645    1.199324
     41          1           0        0.701511   -1.828803    1.347719
     42          1           0        2.310032   -2.140473    1.997455
     43          1           0        2.064819   -2.066500    0.243900
     44          7           0        3.334860    0.868286   -1.494540
     45          1           0        3.667269    1.537423   -0.811374
     46          6           0        4.231297    0.615139   -2.627892
     47          1           0        4.663895   -0.390322   -2.518864
     48          6           0        5.424814    1.576986   -2.577028
     49          6           0        3.545614    0.680437   -4.011493
     50          1           0        4.343955    0.685144   -4.759577
     51          1           0        2.994931   -0.254283   -4.136440
     52          8           0        6.132766    1.815730   -3.522835
     53          6           0        2.629078    1.899693   -4.192555
     54          1           0        3.239693    2.803149   -4.305826
     55          1           0        2.028661    2.056620   -3.289157
     56          6           0        1.678998    1.818674   -5.400673
     57          1           0        1.038226    2.708771   -5.400662
     58          1           0        2.243334    1.846811   -6.340727
     59          6           0        0.796246    0.567531   -5.470345
     60          1           0       -0.013470    0.708316   -6.190276
     61          1           0        1.360809   -0.319111   -5.767596
     62          7           0        0.158827    0.224617   -4.143467
     63          1           0       -0.586355   -0.466761   -4.264717
     64          1           0        0.838721   -0.177394   -3.449857
     65          1           0       -0.239286    1.032817   -3.621104
     66          8           0        5.621455    2.099090   -1.342980
     67          1           0        6.412493    2.670409   -1.392014
 ---------------------------------------------------------------------

 SCF Done:  E(RB3LYP) =  -1396.66884658     A.U. after    2 cycles

 Alpha  occ. eigenvalues --  -19.31500 -19.25289 -19.24623 -19.24398 -19.22871
 Alpha  occ. eigenvalues --  -14.56313 -14.48857 -14.47446 -14.47156 -14.39721
 Alpha  occ. eigenvalues --  -10.43737 -10.41707 -10.40754 -10.39227 -10.37587
 Alpha  occ. eigenvalues --  -10.36303 -10.34996 -10.34686 -10.31759 -10.31202
 Alpha  occ. eigenvalues --  -10.30558 -10.30293 -10.30165 -10.29629 -10.28884
 Alpha  occ. eigenvalues --  -10.26998 -10.26717 -10.26399 -10.26232  -1.22202
 Alpha  occ. eigenvalues --   -1.16538  -1.15278  -1.14264  -1.13233  -1.11352
 Alpha  occ. eigenvalues --   -1.05321  -1.04280  -1.03283  -0.96860  -0.93134
 Alpha  occ. eigenvalues --   -0.91616  -0.90944  -0.89148  -0.85888  -0.84166
 Alpha  occ. eigenvalues --   -0.81519  -0.78639  -0.78524  -0.77932  -0.77286
 Alpha  occ. eigenvalues --   -0.75322  -0.73099  -0.71645  -0.70536  -0.70027
 Alpha  occ. eigenvalues --   -0.69596  -0.68824  -0.68458  -0.68026  -0.66283
 Alpha  occ. eigenvalues --   -0.65008  -0.62575  -0.62026  -0.61485  -0.60590
 Alpha  occ. eigenvalues --   -0.60253  -0.59528  -0.58944  -0.58608  -0.58296
 Alpha  occ. eigenvalues --   -0.57884  -0.56831  -0.55739  -0.55248  -0.54442
 Alpha  occ. eigenvalues --   -0.54228  -0.53923  -0.53513  -0.52913  -0.52290
 Alpha  occ. eigenvalues --   -0.52204  -0.51743  -0.51675  -0.50916  -0.50609
 Alpha  occ. eigenvalues --   -0.50205  -0.49650  -0.49088  -0.48818  -0.48609
 Alpha  occ. eigenvalues --   -0.48078  -0.47366  -0.47224  -0.46005  -0.45912
 Alpha  occ. eigenvalues --   -0.45263  -0.45188  -0.45107  -0.44330  -0.43603
 Alpha  occ. eigenvalues --   -0.43487  -0.43289  -0.42394  -0.42192  -0.42072
 Alpha  occ. eigenvalues --   -0.39614  -0.39254  -0.38637  -0.38252  -0.37221
 Alpha  occ. eigenvalues --   -0.36624  -0.35786  -0.32258
 Alpha virt. eigenvalues --   -0.11508  -0.10919  -0.10220  -0.08626  -0.08243
 Alpha virt. eigenvalues --   -0.04244  -0.02832  -0.02410  -0.01787  -0.01224
 Alpha virt. eigenvalues --   -0.00737  -0.00169   0.00218   0.00953   0.01246

 Mulliken charges:
               1
     1  N   -0.674857
     2  H    0.320182
     3  H    0.307609
     4  C   -0.247550
     5  H    0.169694
     6  H    0.192637
     7  C    0.587534
     8  O   -0.536724
     9  N   -0.591816
    10  H    0.345153
    11  C   -0.069885
    12  H    0.192482
    13  C    0.636546
    14  C   -0.279971
    15  H    0.158626
    16  H    0.109860
    17  O   -0.588242
    18  C   -0.077556
    19  H    0.128325
    20  C   -0.444739
    21  H    0.139170
    22  H    0.166466
    23  H    0.148844
    24  C   -0.454788
    25  H    0.138481
    26  H    0.154330
    27  H    0.168967
    28  N   -0.625965
    29  H    0.406289
    30  C   -0.026297
    31  H    0.164030
    32  C    0.668738
    33  C   -0.125261
    34  H    0.146610
    35  O   -0.593006
    36  C   -0.469148
    37  H    0.172611
    38  H    0.173060
    39  H    0.147425
    40  C   -0.462799
    41  H    0.164732
    42  H    0.170223
    43  H    0.167228
    44  N   -0.627291
    45  H    0.373404
    46  C   -0.024724
    47  H    0.214895
    48  C    0.592359
    49  C   -0.294444
    50  H    0.197449
    51  H    0.149167
    52  O   -0.432703
    53  C   -0.311245
    54  H    0.178209
    55  H    0.168746
    56  C   -0.285726
    57  H    0.174746
    58  H    0.187615
    59  C   -0.187765
    60  H    0.203686
    61  H    0.206915
    62  N   -0.805122
    63  H    0.395070
    64  H    0.460760
    65  H    0.434662
    66  O   -0.584183
    67  H    0.438276
 Sum of Mulliken charges =   1.00000

 Dipole moment (field-independent basis, Debye):
    X=              1.9457    Y=              4.9996    Z=            -11.3137  Tot=             12.5213
 Quadrupole moment (field-independent basis, Debye-Ang):
   XX=           -124.4591   YY=           -161.7251   ZZ=           -114.9702
   XY=              4.2823   XZ=              5.9984   YZ=             -4.0657

 Normal termination of Gaussian 16 at Fri May 27 02:24:48 2022.
