 Gaussian 16, Revision C.01,
 Gaussian 16:  ES64L-G16RevC.01  3-Jul-2019

 -------------------------------------------------------------------
 # B3LYP/6-31G* guess=read geom=check nosymm integral(ultrafinegrid)
 -------------------------------------------------------------------

 ------------------------------------------------------
 Candidate Structure: Conf:731 Charge calc in gas phase
 ------------------------------------------------------
 Structure from the checkpoint file:  "conf-731.chk"
 Charge =  1 Multiplicity = 1

                          Input orientation:
 ---------------------------------------------------------------------
 Center     Atomic      Atomic             Coordinates (Angstroms)
 Number     Number       Type             X           Y           Z
 ---------------------------------------------------------------------
      1          7           0       -3.027309   -1.727735    3.869355
      2          1           0       -3.035847   -2.520147    3.229691
      3          1           0       -2.058539   -1.619664    4.163499
      4          6           0       -3.471380   -0.541241    3.170291
      5          1           0       -3.405062    0.324661    3.842204
      6          1           0       -4.536453   -0.651744    2.922016
      7          6           0       -2.728781   -0.229424    1.861640
      8          8           0       -2.008911   -1.062629    1.303652
      9          7           0       -2.928895    1.012339    1.334907
     10          1           0       -3.498704    1.675648    1.844391
     11          6           0       -2.486408    1.378413   -0.013461
     12          1           0       -2.546529    0.467222   -0.617893
     13          6           0       -0.995528    1.800368   -0.002550
     14          6           0       -3.386207    2.464665   -0.612237
     15          1           0       -3.294892    3.374046   -0.002079
     16          1           0       -2.985163    2.717660   -1.603579
     17          8           0       -0.624815    2.978564   -0.194129
     18          6           0       -4.875106    2.088546   -0.767852
     19          1           0       -5.269347    1.824753    0.224280
     20          6           0       -5.665128    3.306558   -1.270311
     21          1           0       -5.327923    3.609528   -2.270340
     22          1           0       -6.733481    3.077550   -1.340169
     23          1           0       -5.551536    4.167570   -0.600646
     24          6           0       -5.084124    0.881321   -1.694089
     25          1           0       -4.675352    1.076656   -2.694126
     26          1           0       -4.612132   -0.029425   -1.309615
     27          1           0       -6.151784    0.667973   -1.811031
     28          7           0       -0.137557    0.805531    0.240863
     29          1           0       -0.553684   -0.112529    0.414617
     30          6           0        1.316541    0.936399    0.245054
     31          1           0        1.587385    1.813179    0.847478
     32          6           0        1.814138    1.156871   -1.206239
     33          6           0        1.930480   -0.339293    0.898892
     34          1           0        1.561615   -1.195938    0.316556
     35          8           0        1.189636    0.748230   -2.179136
     36          6           0        3.465765   -0.364322    0.849961
     37          1           0        3.903504    0.504381    1.358997
     38          1           0        3.830819   -1.256911    1.367240
     39          1           0        3.858369   -0.398066   -0.170006
     40          6           0        1.450972   -0.489593    2.353233
     41          1           0        1.762920    0.370806    2.958623
     42          1           0        1.893763   -1.386583    2.798204
     43          1           0        0.364928   -0.589575    2.427561
     44          7           0        2.981141    1.858643   -1.329800
     45          1           0        3.531845    2.062793   -0.500822
     46          6           0        3.767005    1.821240   -2.563086
     47          1           0        3.718720    0.809321   -2.985625
     48          6           0        5.215133    2.091039   -2.161250
     49          6           0        3.298319    2.789327   -3.679959
     50          1           0        3.952216    2.612866   -4.538787
     51          1           0        2.300850    2.457720   -3.985336
     52          8           0        5.566477    2.384672   -1.037217
     53          6           0        3.306208    4.296311   -3.312636
     54          1           0        3.897049    4.849967   -4.048688
     55          1           0        3.805100    4.452855   -2.347076
     56          6           0        1.907776    4.947433   -3.253324
     57          1           0        2.015506    6.021231   -3.050685
     58          1           0        1.415248    4.848616   -4.230838
     59          6           0        1.072069    4.279513   -2.175571
     60          1           0        0.917083    3.221434   -2.379785
     61          1           0        1.529316    4.361617   -1.189242
     62          7           0       -0.325099    4.840925   -2.011903
     63          1           0       -0.780588    4.223636   -1.280480
     64          1           0       -0.321528    5.815458   -1.696446
     65          1           0       -0.859585    4.796288   -2.884699
     66          8           0        6.052259    1.975904   -3.202655
     67          1           0        6.955086    2.155592   -2.875437
 ---------------------------------------------------------------------

 SCF Done:  E(RB3LYP) =  -1396.65903500     A.U. after    2 cycles

 Alpha  occ. eigenvalues --  -19.30457 -19.25150 -19.24801 -19.22421 -19.22320
 Alpha  occ. eigenvalues --  -14.58525 -14.47092 -14.46925 -14.46530 -14.39374
 Alpha  occ. eigenvalues --  -10.43063 -10.40834 -10.39324 -10.38812 -10.37060
 Alpha  occ. eigenvalues --  -10.34808 -10.34492 -10.34117 -10.32250 -10.30871
 Alpha  occ. eigenvalues --  -10.30443 -10.29861 -10.29824 -10.29700 -10.28855
 Alpha  occ. eigenvalues --  -10.26877 -10.26423 -10.26370 -10.26141  -1.21603
 Alpha  occ. eigenvalues --   -1.15922  -1.14160  -1.13943  -1.12991  -1.12699
 Alpha  occ. eigenvalues --   -1.04017  -1.03059  -1.02953  -0.96517  -0.93205
 Alpha  occ. eigenvalues --   -0.91334  -0.90621  -0.88393  -0.85725  -0.83072
 Alpha  occ. eigenvalues --   -0.81176  -0.78379  -0.77766  -0.77600  -0.77199
 Alpha  occ. eigenvalues --   -0.74977  -0.73444  -0.72471  -0.72343  -0.70106
 Alpha  occ. eigenvalues --   -0.69291  -0.68673  -0.67348  -0.66611  -0.66207
 Alpha  occ. eigenvalues --   -0.63819  -0.62978  -0.61850  -0.60945  -0.59959
 Alpha  occ. eigenvalues --   -0.59568  -0.59318  -0.58809  -0.58324  -0.58027
 Alpha  occ. eigenvalues --   -0.57159  -0.55629  -0.55073  -0.54997  -0.54453
 Alpha  occ. eigenvalues --   -0.53801  -0.53357  -0.52616  -0.52170  -0.52053
 Alpha  occ. eigenvalues --   -0.51912  -0.51354  -0.50743  -0.50540  -0.50148
 Alpha  occ. eigenvalues --   -0.49311  -0.48817  -0.48724  -0.48581  -0.48233
 Alpha  occ. eigenvalues --   -0.47693  -0.47308  -0.47130  -0.46000  -0.45899
 Alpha  occ. eigenvalues --   -0.45260  -0.44956  -0.44815  -0.43741  -0.43341
 Alpha  occ. eigenvalues --   -0.42710  -0.42608  -0.42329  -0.42135  -0.42027
 Alpha  occ. eigenvalues --   -0.39816  -0.38809  -0.37851  -0.36669  -0.36488
 Alpha  occ. eigenvalues --   -0.35680  -0.35382  -0.31925
 Alpha virt. eigenvalues --   -0.10878  -0.10292  -0.10005  -0.08785  -0.07876
 Alpha virt. eigenvalues --   -0.04870  -0.02973  -0.02662  -0.01983  -0.01787
 Alpha virt. eigenvalues --   -0.00840  -0.00449   0.00404   0.00625   0.01554

 Mulliken charges:
               1
     1  N   -0.675575
     2  H    0.320426
     3  H    0.308592
     4  C   -0.248240
     5  H    0.168465
     6  H    0.190732
     7  C    0.592257
     8  O   -0.534516
     9  N   -0.593815
    10  H    0.342396
    11  C   -0.066691
    12  H    0.201714
    13  C    0.660103
    14  C   -0.288406
    15  H    0.142135
    16  H    0.123948
    17  O   -0.611747
    18  C   -0.076012
    19  H    0.128790
    20  C   -0.445644
    21  H    0.138448
    22  H    0.168199
    23  H    0.143164
    24  C   -0.455762
    25  H    0.145422
    26  H    0.156842
    27  H    0.167450
    28  N   -0.602982
    29  H    0.399776
    30  C   -0.034603
    31  H    0.161666
    32  C    0.617269
    33  C   -0.116414
    34  H    0.163115
    35  O   -0.529250
    36  C   -0.470485
    37  H    0.153696
    38  H    0.175567
    39  H    0.154827
    40  C   -0.460425
    41  H    0.149584
    42  H    0.169517
    43  H    0.160858
    44  N   -0.625371
    45  H    0.362854
    46  C   -0.037582
    47  H    0.206030
    48  C    0.590061
    49  C   -0.296064
    50  H    0.188977
    51  H    0.176227
    52  O   -0.465493
    53  C   -0.278506
    54  H    0.177379
    55  H    0.160727
    56  C   -0.292106
    57  H    0.160304
    58  H    0.160921
    59  C   -0.193318
    60  H    0.231954
    61  H    0.209263
    62  N   -0.757953
    63  H    0.448250
    64  H    0.400959
    65  H    0.399587
    66  O   -0.555057
    67  H    0.433564
 Sum of Mulliken charges =   1.00000

 Dipole moment (field-independent basis, Debye):
    X=              0.9908    Y=             17.5618    Z=             -6.5288  Tot=             18.7623
 Quadrupole moment (field-independent basis, Debye-Ang):
   XX=           -114.1955   YY=            -92.0172   ZZ=           -148.7316
   XY=             -3.3026   XZ=            -14.8099   YZ=            -39.0253

 Normal termination of Gaussian 16 at Fri May 27 02:24:52 2022.
