 Gaussian 16, Revision C.01,
 Gaussian 16:  ES64L-G16RevC.01  3-Jul-2019

 -------------------------------------------------------------------
 # B3LYP/6-31G* guess=read geom=check nosymm integral(ultrafinegrid)
 -------------------------------------------------------------------

 ------------------------------------------------------
 Candidate Structure: Conf:584 Charge calc in gas phase
 ------------------------------------------------------
 Structure from the checkpoint file:  "conf-584.chk"
 Charge =  1 Multiplicity = 1

                          Input orientation:
 ---------------------------------------------------------------------
 Center     Atomic      Atomic             Coordinates (Angstroms)
 Number     Number       Type             X           Y           Z
 ---------------------------------------------------------------------
      1          7           0       -3.769823    1.403391    3.726916
      2          1           0       -4.750011    1.194865    3.549914
      3          1           0       -3.705641    1.693779    4.698751
      4          6           0       -2.935993    0.222894    3.478506
      5          1           0       -3.434997   -0.742035    3.638249
      6          1           0       -2.073697    0.239238    4.154962
      7          6           0       -2.371317    0.199221    2.057225
      8          8           0       -1.826054   -0.808549    1.594059
      9          7           0       -2.490307    1.365295    1.378953
     10          1           0       -2.957763    2.116123    1.883599
     11          6           0       -2.123145    1.493581   -0.029686
     12          1           0       -2.344941    0.526683   -0.494325
     13          6           0       -0.590378    1.705679   -0.144897
     14          6           0       -2.942840    2.600672   -0.699132
     15          1           0       -3.977771    2.513660   -0.344438
     16          1           0       -2.569614    3.571361   -0.346094
     17          8           0       -0.061313    2.806595   -0.416844
     18          6           0       -2.951165    2.566178   -2.243064
     19          1           0       -1.907906    2.504354   -2.591439
     20          6           0       -3.693170    1.341463   -2.801692
     21          1           0       -4.740460    1.339773   -2.475558
     22          1           0       -3.686371    1.350854   -3.896932
     23          1           0       -3.239785    0.397281   -2.483406
     24          6           0       -3.577399    3.856807   -2.796776
     25          1           0       -4.631072    3.935956   -2.504008
     26          1           0       -3.086132    4.763342   -2.410242
     27          1           0       -3.540203    3.883296   -3.891473
     28          7           0        0.124886    0.614561    0.129639
     29          1           0       -0.406082   -0.195742    0.464067
     30          6           0        1.580558    0.565767    0.191855
     31          1           0        1.926302    1.357341    0.869995
     32          6           0        2.182158    0.839220   -1.206203
     33          6           0        1.991426   -0.818841    0.786424
     34          1           0        1.308764   -0.963560    1.635598
     35          8           0        1.545100    0.692519   -2.243447
     36          6           0        1.770931   -1.974947   -0.201888
     37          1           0        2.463620   -1.914252   -1.049021
     38          1           0        1.942047   -2.932222    0.300565
     39          1           0        0.754061   -1.988568   -0.607670
     40          6           0        3.417538   -0.828107    1.354690
     41          1           0        4.183740   -0.763835    0.575545
     42          1           0        3.590030   -1.763575    1.896795
     43          1           0        3.577849   -0.006272    2.063579
     44          7           0        3.478017    1.274692   -1.186556
     45          1           0        3.994859    1.249882   -0.313317
     46          6           0        4.319936    1.264770   -2.378698
     47          1           0        3.888436    0.553524   -3.092240
     48          6           0        5.693124    0.746283   -1.952038
     49          6           0        4.472862    2.631134   -3.095964
     50          1           0        4.888039    3.365879   -2.393370
     51          1           0        5.219353    2.491580   -3.884029
     52          8           0        6.036214    0.588153   -0.799301
     53          6           0        3.174511    3.161076   -3.730723
     54          1           0        2.620732    2.316297   -4.156473
     55          1           0        3.433098    3.825105   -4.564715
     56          6           0        2.266915    3.922274   -2.748301
     57          1           0        2.193103    3.381310   -1.802520
     58          1           0        2.703084    4.907636   -2.529387
     59          6           0        0.864056    4.087053   -3.318059
     60          1           0        0.835673    4.735651   -4.198100
     61          1           0        0.437790    3.113774   -3.572485
     62          7           0       -0.059780    4.681895   -2.277216
     63          1           0       -0.987113    4.887279   -2.661773
     64          1           0       -0.180466    3.980291   -1.477684
     65          1           0        0.322895    5.552020   -1.894733
     66          8           0        6.486703    0.506061   -3.007966
     67          1           0        7.347040    0.197621   -2.662722
 ---------------------------------------------------------------------

 SCF Done:  E(RB3LYP) =  -1396.67313399     A.U. after    2 cycles

 Alpha  occ. eigenvalues --  -19.29529 -19.24373 -19.24149 -19.21357 -19.21208
 Alpha  occ. eigenvalues --  -14.57151 -14.46215 -14.45675 -14.45646 -14.42263
 Alpha  occ. eigenvalues --  -10.42091 -10.40261 -10.38510 -10.38083 -10.37042
 Alpha  occ. eigenvalues --  -10.34025 -10.33810 -10.33196 -10.31340 -10.30656
 Alpha  occ. eigenvalues --  -10.30233 -10.29540 -10.29195 -10.29133 -10.28969
 Alpha  occ. eigenvalues --  -10.28613 -10.26891 -10.25812 -10.25493  -1.20629
 Alpha  occ. eigenvalues --   -1.15350  -1.13151  -1.12871  -1.11871  -1.11696
 Alpha  occ. eigenvalues --   -1.03428  -1.02341  -1.02229  -0.98185  -0.92114
 Alpha  occ. eigenvalues --   -0.91853  -0.89988  -0.87727  -0.85589  -0.82611
 Alpha  occ. eigenvalues --   -0.80549  -0.79135  -0.78518  -0.76799  -0.76105
 Alpha  occ. eigenvalues --   -0.74987  -0.72363  -0.71745  -0.71260  -0.69123
 Alpha  occ. eigenvalues --   -0.68633  -0.67893  -0.67694  -0.66162  -0.65807
 Alpha  occ. eigenvalues --   -0.63211  -0.61927  -0.61306  -0.60756  -0.59454
 Alpha  occ. eigenvalues --   -0.59301  -0.58795  -0.58337  -0.57630  -0.56704
 Alpha  occ. eigenvalues --   -0.56413  -0.56291  -0.55405  -0.54863  -0.54380
 Alpha  occ. eigenvalues --   -0.53515  -0.52757  -0.52467  -0.52025  -0.51730
 Alpha  occ. eigenvalues --   -0.51417  -0.51068  -0.50609  -0.50451  -0.49647
 Alpha  occ. eigenvalues --   -0.49154  -0.48771  -0.48371  -0.48259  -0.47741
 Alpha  occ. eigenvalues --   -0.47265  -0.46857  -0.46556  -0.46036  -0.45254
 Alpha  occ. eigenvalues --   -0.45142  -0.44319  -0.44111  -0.43673  -0.43192
 Alpha  occ. eigenvalues --   -0.43120  -0.42550  -0.42367  -0.41945  -0.41399
 Alpha  occ. eigenvalues --   -0.39160  -0.37974  -0.37264  -0.36503  -0.35414
 Alpha  occ. eigenvalues --   -0.34917  -0.34606  -0.33692
 Alpha virt. eigenvalues --   -0.10163  -0.09402  -0.09099  -0.07768  -0.06979
 Alpha virt. eigenvalues --   -0.04340  -0.02274  -0.01534  -0.01406  -0.01245
 Alpha virt. eigenvalues --   -0.00454   0.00300   0.01124   0.01714   0.01917

 Mulliken charges:
               1
     1  N   -0.748982
     2  H    0.325810
     3  H    0.331358
     4  C   -0.237952
     5  H    0.188487
     6  H    0.191721
     7  C    0.602541
     8  O   -0.544363
     9  N   -0.599862
    10  H    0.366138
    11  C   -0.055497
    12  H    0.192386
    13  C    0.665151
    14  C   -0.285518
    15  H    0.160449
    16  H    0.134094
    17  O   -0.613978
    18  C   -0.098074
    19  H    0.113178
    20  C   -0.452771
    21  H    0.159490
    22  H    0.162287
    23  H    0.164514
    24  C   -0.461951
    25  H    0.176835
    26  H    0.111784
    27  H    0.164323
    28  N   -0.614886
    29  H    0.405742
    30  C   -0.036293
    31  H    0.165803
    32  C    0.631837
    33  C   -0.123496
    34  H    0.162211
    35  O   -0.538745
    36  C   -0.454575
    37  H    0.155056
    38  H    0.167657
    39  H    0.163640
    40  C   -0.478343
    41  H    0.168614
    42  H    0.171564
    43  H    0.147922
    44  N   -0.615857
    45  H    0.360743
    46  C   -0.040315
    47  H    0.204437
    48  C    0.586944
    49  C   -0.278731
    50  H    0.152814
    51  H    0.184212
    52  O   -0.459170
    53  C   -0.277347
    54  H    0.175200
    55  H    0.156344
    56  C   -0.291165
    57  H    0.196758
    58  H    0.150090
    59  C   -0.198734
    60  H    0.197634
    61  H    0.229646
    62  N   -0.781991
    63  H    0.405804
    64  H    0.463850
    65  H    0.396261
    66  O   -0.554362
    67  H    0.431628
 Sum of Mulliken charges =   1.00000

 Dipole moment (field-independent basis, Debye):
    X=             -0.0585    Y=             15.6296    Z=             -4.7074  Tot=             16.3233
 Quadrupole moment (field-independent basis, Debye-Ang):
   XX=           -107.2908   YY=           -103.1450   ZZ=           -125.8873
   XY=             -6.8313   XZ=            -28.4947   YZ=            -35.2986

 Normal termination of Gaussian 16 at Fri May 27 02:25:05 2022.
