 Gaussian 16, Revision C.01,
 Gaussian 16:  ES64L-G16RevC.01  3-Jul-2019

 -------------------------------------------------------------------
 # B3LYP/6-31G* guess=read geom=check nosymm integral(ultrafinegrid)
 -------------------------------------------------------------------

 ------------------------------------------------------
 Candidate Structure: Conf:448 Charge calc in gas phase
 ------------------------------------------------------
 Structure from the checkpoint file:  "conf-448.chk"
 Charge =  1 Multiplicity = 1

                          Input orientation:
 ---------------------------------------------------------------------
 Center     Atomic      Atomic             Coordinates (Angstroms)
 Number     Number       Type             X           Y           Z
 ---------------------------------------------------------------------
      1          7           0       -2.491707   -1.627652   -3.498357
      2          1           0       -2.857818   -2.567727   -3.643035
      3          1           0       -2.850779   -1.052447   -4.260618
      4          6           0       -3.005776   -1.093745   -2.226342
      5          1           0       -2.722944   -1.777451   -1.418183
      6          1           0       -4.103561   -1.007434   -2.204380
      7          6           0       -2.406139    0.295317   -1.976288
      8          8           0       -1.876087    0.934258   -2.891237
      9          7           0       -2.475707    0.764964   -0.709297
     10          1           0       -2.990977    0.234121   -0.016898
     11          6           0       -2.067485    2.132714   -0.360312
     12          1           0       -2.349876    2.783830   -1.192081
     13          6           0       -0.541591    2.318422   -0.220196
     14          6           0       -2.766242    2.595668    0.931082
     15          1           0       -2.481851    1.914366    1.747572
     16          1           0       -2.338685    3.572272    1.181716
     17          8           0       -0.081708    3.445430   -0.093568
     18          6           0       -4.303871    2.707990    0.863363
     19          1           0       -4.718711    1.726210    0.582096
     20          6           0       -4.853151    3.056744    2.255446
     21          1           0       -4.481074    4.033266    2.588698
     22          1           0       -5.947203    3.104341    2.243333
     23          1           0       -4.557427    2.313052    3.004854
     24          6           0       -4.770599    3.733365   -0.180413
     25          1           0       -4.364148    4.727937    0.040774
     26          1           0       -4.465370    3.466777   -1.198889
     27          1           0       -5.862963    3.813228   -0.179143
     28          7           0        0.232332    1.196679   -0.236015
     29          1           0       -0.187859    0.280208   -0.290065
     30          6           0        1.668948    1.262462   -0.023566
     31          1           0        1.997447    2.232468   -0.412497
     32          6           0        2.308691    0.129345   -0.834903
     33          6           0        2.026129    1.223276    1.501464
     34          1           0        1.366120    1.988137    1.929044
     35          8           0        1.655173   -0.883116   -1.146837
     36          6           0        1.696132   -0.124918    2.155166
     37          1           0        2.335714   -0.930687    1.774979
     38          1           0        1.849379   -0.066385    3.237655
     39          1           0        0.653407   -0.416077    1.986841
     40          6           0        3.469284    1.656835    1.792991
     41          1           0        4.205454    0.914128    1.467427
     42          1           0        3.604341    1.791236    2.871252
     43          1           0        3.707682    2.615533    1.315444
     44          7           0        3.606089    0.288621   -1.177029
     45          1           0        4.086415    1.120733   -0.855679
     46          6           0        4.458011   -0.807035   -1.654939
     47          1           0        4.005541   -1.740861   -1.306672
     48          6           0        5.850405   -0.743336   -1.020403
     49          6           0        4.632403   -0.905841   -3.192421
     50          1           0        5.002105    0.051354   -3.582253
     51          1           0        5.428918   -1.639000   -3.351268
     52          8           0        6.646447   -1.645510   -1.087562
     53          6           0        3.370582   -1.359503   -3.952654
     54          1           0        2.777721   -2.002385   -3.290295
     55          1           0        3.673437   -1.994268   -4.793789
     56          6           0        2.500561   -0.217441   -4.514143
     57          1           0        2.449678    0.626538   -3.814195
     58          1           0        2.960513    0.178432   -5.426562
     59          6           0        1.079002   -0.677385   -4.848983
     60          1           0        0.575709   -0.001583   -5.544294
     61          1           0        1.079762   -1.679482   -5.287057
     62          7           0        0.234880   -0.724516   -3.604598
     63          1           0       -0.645558   -1.304212   -3.678814
     64          1           0        0.779579   -1.020053   -2.770417
     65          1           0       -0.151441    0.205592   -3.377460
     66          8           0        6.107183    0.443992   -0.420272
     67          1           0        7.019665    0.402141   -0.073252
 ---------------------------------------------------------------------

 SCF Done:  E(RB3LYP) =  -1396.67903741     A.U. after    1 cycles

 Alpha  occ. eigenvalues --  -19.30929 -19.24940 -19.24898 -19.24506 -19.20780
 Alpha  occ. eigenvalues --  -14.53833 -14.49133 -14.48780 -14.47180 -14.46103
 Alpha  occ. eigenvalues --  -10.42998 -10.42129 -10.41632 -10.38430 -10.36518
 Alpha  occ. eigenvalues --  -10.35773 -10.35571 -10.33997 -10.33755 -10.31307
 Alpha  occ. eigenvalues --  -10.30165 -10.30099 -10.29388 -10.28305 -10.28029
 Alpha  occ. eigenvalues --  -10.26767 -10.26732 -10.25327 -10.25111  -1.21513
 Alpha  occ. eigenvalues --   -1.16814  -1.16286  -1.13002  -1.12527  -1.09479
 Alpha  occ. eigenvalues --   -1.05228  -1.05013  -1.02802  -1.02358  -0.92537
 Alpha  occ. eigenvalues --   -0.90883  -0.90099  -0.88482  -0.86045  -0.83456
 Alpha  occ. eigenvalues --   -0.81990  -0.80626  -0.77803  -0.76706  -0.76261
 Alpha  occ. eigenvalues --   -0.74426  -0.72607  -0.71544  -0.71244  -0.70752
 Alpha  occ. eigenvalues --   -0.69618  -0.68638  -0.66911  -0.66615  -0.65954
 Alpha  occ. eigenvalues --   -0.65071  -0.64770  -0.62242  -0.61506  -0.61069
 Alpha  occ. eigenvalues --   -0.59897  -0.59200  -0.58777  -0.58213  -0.57705
 Alpha  occ. eigenvalues --   -0.57049  -0.56441  -0.56160  -0.55625  -0.54793
 Alpha  occ. eigenvalues --   -0.54600  -0.54334  -0.53916  -0.52861  -0.52434
 Alpha  occ. eigenvalues --   -0.52306  -0.51964  -0.51522  -0.50488  -0.50293
 Alpha  occ. eigenvalues --   -0.50163  -0.49647  -0.49316  -0.48396  -0.47979
 Alpha  occ. eigenvalues --   -0.47175  -0.47157  -0.46966  -0.46077  -0.45662
 Alpha  occ. eigenvalues --   -0.45345  -0.45030  -0.44824  -0.43832  -0.43232
 Alpha  occ. eigenvalues --   -0.43034  -0.42285  -0.41440  -0.41313  -0.40908
 Alpha  occ. eigenvalues --   -0.40541  -0.39792  -0.39598  -0.38649  -0.38327
 Alpha  occ. eigenvalues --   -0.37019  -0.35090  -0.34133
 Alpha virt. eigenvalues --   -0.11383  -0.11209  -0.09833  -0.07042  -0.06210
 Alpha virt. eigenvalues --   -0.04591  -0.03796  -0.02806  -0.01354  -0.00900
 Alpha virt. eigenvalues --   -0.00056   0.00047   0.00455   0.00909   0.01577

 Mulliken charges:
               1
     1  N   -0.755852
     2  H    0.343922
     3  H    0.345351
     4  C   -0.249760
     5  H    0.187070
     6  H    0.198435
     7  C    0.614066
     8  O   -0.545939
     9  N   -0.623540
    10  H    0.348794
    11  C   -0.031649
    12  H    0.206762
    13  C    0.627230
    14  C   -0.305949
    15  H    0.135229
    16  H    0.193602
    17  O   -0.515173
    18  C   -0.076856
    19  H    0.105415
    20  C   -0.444757
    21  H    0.158510
    22  H    0.159780
    23  H    0.144455
    24  C   -0.452446
    25  H    0.161860
    26  H    0.142257
    27  H    0.161389
    28  N   -0.627700
    29  H    0.334230
    30  C   -0.062829
    31  H    0.190767
    32  C    0.632552
    33  C   -0.072625
    34  H    0.171689
    35  O   -0.589336
    36  C   -0.456762
    37  H    0.152201
    38  H    0.170703
    39  H    0.137088
    40  C   -0.480527
    41  H    0.149617
    42  H    0.174378
    43  H    0.156017
    44  N   -0.603174
    45  H    0.374873
    46  C   -0.058134
    47  H    0.211031
    48  C    0.593683
    49  C   -0.280796
    50  H    0.160922
    51  H    0.196807
    52  O   -0.430554
    53  C   -0.284504
    54  H    0.151779
    55  H    0.169622
    56  C   -0.292553
    57  H    0.161350
    58  H    0.185307
    59  C   -0.177988
    60  H    0.202458
    61  H    0.196831
    62  N   -0.820303
    63  H    0.424306
    64  H    0.433260
    65  H    0.417634
    66  O   -0.580213
    67  H    0.436687
 Sum of Mulliken charges =   1.00000

 Dipole moment (field-independent basis, Debye):
    X=             -0.1462    Y=             -2.5777    Z=            -10.0360  Tot=             10.3628
 Quadrupole moment (field-independent basis, Debye-Ang):
   XX=           -108.0103   YY=           -176.0794   ZZ=           -116.9303
   XY=             13.8030   XZ=             -1.4932   YZ=             18.7574

 Normal termination of Gaussian 16 at Fri May 27 02:24:46 2022.
