 Gaussian 16, Revision C.01,
 Gaussian 16:  ES64L-G16RevC.01  3-Jul-2019

 -------------------------------------------------------------------
 # B3LYP/6-31G* guess=read geom=check nosymm integral(ultrafinegrid)
 -------------------------------------------------------------------

 ------------------------------------------------------
 Candidate Structure: Conf:746 Charge calc in gas phase
 ------------------------------------------------------
 Structure from the checkpoint file:  "conf-746.chk"
 Charge =  1 Multiplicity = 1

                          Input orientation:
 ---------------------------------------------------------------------
 Center     Atomic      Atomic             Coordinates (Angstroms)
 Number     Number       Type             X           Y           Z
 ---------------------------------------------------------------------
      1          7           0       -4.943787    2.839494    3.269300
      2          1           0       -5.609641    2.732020    2.504480
      3          1           0       -4.972375    1.947562    3.761735
      4          6           0       -3.621938    3.022463    2.697875
      5          1           0       -2.872599    3.003142    3.499573
      6          1           0       -3.563143    4.024981    2.249543
      7          6           0       -3.244667    2.002631    1.608352
      8          8           0       -4.073691    1.260618    1.091919
      9          7           0       -1.929498    1.997324    1.238015
     10          1           0       -1.259433    2.630571    1.656390
     11          6           0       -1.433651    1.133254    0.177980
     12          1           0       -2.005047    0.202298    0.232132
     13          6           0        0.048755    0.888526    0.467934
     14          6           0       -1.631802    1.780102   -1.216192
     15          1           0       -2.689365    2.063678   -1.277115
     16          1           0       -1.045254    2.708733   -1.232462
     17          8           0        0.775773    1.817879    0.848517
     18          6           0       -1.268905    0.912110   -2.437837
     19          1           0       -0.227652    0.570395   -2.329172
     20          6           0       -2.166756   -0.329166   -2.565980
     21          1           0       -3.220890   -0.040307   -2.654921
     22          1           0       -1.901193   -0.912725   -3.454458
     23          1           0       -2.088622   -0.999366   -1.701891
     24          6           0       -1.346574    1.758731   -3.718267
     25          1           0       -2.365160    2.132884   -3.879444
     26          1           0       -0.679358    2.629107   -3.663688
     27          1           0       -1.066150    1.170365   -4.599469
     28          7           0        0.511173   -0.367967    0.273966
     29          1           0       -0.126123   -1.077045   -0.063786
     30          6           0        1.893203   -0.772017    0.574101
     31          1           0        2.195286   -0.196250    1.456767
     32          6           0        2.795401   -0.353987   -0.613114
     33          6           0        1.989845   -2.277941    0.886911
     34          1           0        1.749643   -2.820032   -0.037751
     35          8           0        3.171860   -1.127181   -1.482619
     36          6           0        3.426583   -2.648172    1.290207
     37          1           0        3.730552   -2.111085    2.197992
     38          1           0        3.489745   -3.719766    1.505442
     39          1           0        4.140433   -2.424583    0.493984
     40          6           0        1.005240   -2.692512    1.992407
     41          1           0        1.212138   -2.154629    2.925935
     42          1           0        1.105567   -3.763215    2.197481
     43          1           0       -0.041917   -2.507983    1.729988
     44          7           0        3.116014    0.980619   -0.603540
     45          1           0        2.587047    1.575437    0.035197
     46          6           0        3.866835    1.568089   -1.694651
     47          1           0        4.266444    0.712720   -2.254893
     48          6           0        5.059500    2.359393   -1.149249
     49          6           0        3.004613    2.441172   -2.623348
     50          1           0        2.080284    1.892805   -2.828672
     51          1           0        2.713112    3.345515   -2.074318
     52          8           0        5.297941    3.528047   -1.408772
     53          6           0        3.700388    2.799808   -3.957952
     54          1           0        3.359743    2.117559   -4.743098
     55          1           0        4.783915    2.655406   -3.881163
     56          6           0        3.433346    4.241879   -4.435607
     57          1           0        3.711368    4.334770   -5.494280
     58          1           0        2.357384    4.457398   -4.362927
     59          6           0        4.226775    5.253666   -3.615800
     60          1           0        4.030269    5.193058   -2.545883
     61          1           0        5.303802    5.153971   -3.762896
     62          7           0        3.874490    6.683663   -4.048071
     63          1           0        4.409285    7.383802   -3.519986
     64          1           0        4.068316    6.830029   -5.046329
     65          1           0        2.876703    6.878340   -3.901404
     66          8           0        5.835916    1.620715   -0.349036
     67          1           0        6.568919    2.188583   -0.042476
 ---------------------------------------------------------------------

 SCF Done:  E(RB3LYP) =  -1396.62520681     A.U. after    1 cycles

 Alpha  occ. eigenvalues --  -19.30164 -19.25316 -19.21302 -19.20261 -19.17361
 Alpha  occ. eigenvalues --  -14.64949 -14.45924 -14.44474 -14.42340 -14.36309
 Alpha  occ. eigenvalues --  -10.43054 -10.41120 -10.38067 -10.37169 -10.34907
 Alpha  occ. eigenvalues --  -10.34253 -10.33888 -10.31693 -10.31675 -10.31035
 Alpha  occ. eigenvalues --  -10.30336 -10.27392 -10.27005 -10.27005 -10.26151
 Alpha  occ. eigenvalues --  -10.25380 -10.24634 -10.24578 -10.23881  -1.21488
 Alpha  occ. eigenvalues --   -1.18782  -1.13133  -1.12386  -1.11982  -1.09221
 Alpha  occ. eigenvalues --   -1.01996  -1.01411  -0.98827  -0.95591  -0.93289
 Alpha  occ. eigenvalues --   -0.89655  -0.88803  -0.87849  -0.84523  -0.82733
 Alpha  occ. eigenvalues --   -0.80037  -0.78340  -0.77426  -0.76701  -0.75804
 Alpha  occ. eigenvalues --   -0.75224  -0.75123  -0.72706  -0.71664  -0.69749
 Alpha  occ. eigenvalues --   -0.68409  -0.67072  -0.66769  -0.65495  -0.64984
 Alpha  occ. eigenvalues --   -0.63772  -0.62955  -0.62141  -0.59891  -0.59089
 Alpha  occ. eigenvalues --   -0.58290  -0.58247  -0.57426  -0.56742  -0.55283
 Alpha  occ. eigenvalues --   -0.55094  -0.54583  -0.54427  -0.53923  -0.52873
 Alpha  occ. eigenvalues --   -0.52656  -0.51931  -0.51678  -0.51253  -0.50285
 Alpha  occ. eigenvalues --   -0.49960  -0.49623  -0.49441  -0.48522  -0.48330
 Alpha  occ. eigenvalues --   -0.48013  -0.47154  -0.46457  -0.46269  -0.46146
 Alpha  occ. eigenvalues --   -0.45681  -0.45589  -0.45134  -0.45065  -0.44697
 Alpha  occ. eigenvalues --   -0.44520  -0.43894  -0.42580  -0.41789  -0.41587
 Alpha  occ. eigenvalues --   -0.40781  -0.40596  -0.40290  -0.40115  -0.39873
 Alpha  occ. eigenvalues --   -0.39204  -0.36724  -0.35390  -0.34164  -0.32770
 Alpha  occ. eigenvalues --   -0.31794  -0.31387  -0.28849
 Alpha virt. eigenvalues --   -0.15499  -0.10591  -0.08923  -0.08718  -0.07595
 Alpha virt. eigenvalues --   -0.06190  -0.06023  -0.03034  -0.02486  -0.02345
 Alpha virt. eigenvalues --   -0.02158  -0.01553  -0.00863  -0.00034   0.01776

 Mulliken charges:
               1
     1  N   -0.680711
     2  H    0.313676
     3  H    0.305952
     4  C   -0.246593
     5  H    0.160698
     6  H    0.168623
     7  C    0.578554
     8  O   -0.519723
     9  N   -0.615520
    10  H    0.340459
    11  C   -0.030820
    12  H    0.177709
    13  C    0.623004
    14  C   -0.253744
    15  H    0.172129
    16  H    0.125335
    17  O   -0.571489
    18  C   -0.094363
    19  H    0.123146
    20  C   -0.447943
    21  H    0.166994
    22  H    0.154709
    23  H    0.134663
    24  C   -0.442352
    25  H    0.158207
    26  H    0.114058
    27  H    0.149953
    28  N   -0.610637
    29  H    0.351154
    30  C   -0.044003
    31  H    0.176987
    32  C    0.624831
    33  C   -0.107427
    34  H    0.155248
    35  O   -0.511137
    36  C   -0.463669
    37  H    0.143615
    38  H    0.161371
    39  H    0.176814
    40  C   -0.451072
    41  H    0.153135
    42  H    0.166884
    43  H    0.137902
    44  N   -0.626503
    45  H    0.373011
    46  C   -0.050177
    47  H    0.218731
    48  C    0.595125
    49  C   -0.279878
    50  H    0.184690
    51  H    0.137786
    52  O   -0.505235
    53  C   -0.269427
    54  H    0.183052
    55  H    0.165976
    56  C   -0.303547
    57  H    0.167614
    58  H    0.164987
    59  C   -0.200974
    60  H    0.250169
    61  H    0.231018
    62  N   -0.734084
    63  H    0.431779
    64  H    0.423910
    65  H    0.424166
    66  O   -0.531879
    67  H    0.425081
 Sum of Mulliken charges =   1.00000

 Dipole moment (field-independent basis, Debye):
    X=             18.4227    Y=             25.4694    Z=            -16.4807  Tot=             35.4923
 Quadrupole moment (field-independent basis, Debye-Ang):
   XX=           -110.1665   YY=              1.8700   ZZ=            -99.1443
   XY=            110.2822   XZ=            -53.8706   YZ=           -117.2361

 Normal termination of Gaussian 16 at Fri May 27 02:24:39 2022.
