 Gaussian 16, Revision C.01,
 Gaussian 16:  ES64L-G16RevC.01  3-Jul-2019

 -------------------------------------------------------------------
 # B3LYP/6-31G* guess=read geom=check nosymm integral(ultrafinegrid)
 -------------------------------------------------------------------

 ------------------------------------------------------
 Candidate Structure: Conf:102 Charge calc in gas phase
 ------------------------------------------------------
 Structure from the checkpoint file:  "conf-102.chk"
 Charge =  1 Multiplicity = 1

                          Input orientation:
 ---------------------------------------------------------------------
 Center     Atomic      Atomic             Coordinates (Angstroms)
 Number     Number       Type             X           Y           Z
 ---------------------------------------------------------------------
      1          7           0       -3.313137    0.630502    4.295818
      2          1           0       -3.552050   -0.344931    4.127171
      3          1           0       -2.335777    0.629135    4.581187
      4          6           0       -3.471877    1.385023    3.071989
      5          1           0       -3.181390    2.429608    3.247435
      6          1           0       -4.537092    1.407725    2.802343
      7          6           0       -2.698684    0.845949    1.858088
      8          8           0       -2.156014   -0.261339    1.863214
      9          7           0       -2.663709    1.653315    0.757109
     10          1           0       -3.110515    2.560636    0.792309
     11          6           0       -2.135347    1.180047   -0.525275
     12          1           0       -2.340950    0.106410   -0.555230
     13          6           0       -0.594866    1.347243   -0.554139
     14          6           0       -2.843687    1.866462   -1.695518
     15          1           0       -3.922870    1.833202   -1.497178
     16          1           0       -2.561204    2.929740   -1.703609
     17          8           0       -0.014907    2.274935   -1.160203
     18          6           0       -2.577905    1.240055   -3.083032
     19          1           0       -1.489665    1.206817   -3.243095
     20          6           0       -3.097797   -0.202753   -3.187794
     21          1           0       -4.173607   -0.248980   -2.977837
     22          1           0       -2.939253   -0.594163   -4.198128
     23          1           0       -2.585285   -0.880797   -2.498299
     24          6           0       -3.213198    2.110669   -4.179628
     25          1           0       -4.304581    2.135529   -4.077589
     26          1           0       -2.871023    3.155673   -4.137595
     27          1           0       -2.986899    1.720460   -5.177852
     28          7           0        0.058656    0.424430    0.157642
     29          1           0       -0.524835   -0.228354    0.681180
     30          6           0        1.508799    0.261804    0.199664
     31          1           0        1.960822    1.181999    0.595223
     32          6           0        2.008208    0.054234   -1.253204
     33          6           0        1.861288   -0.920069    1.148917
     34          1           0        1.344724   -1.805176    0.750871
     35          8           0        1.288109   -0.419181   -2.123359
     36          6           0        3.367581   -1.221674    1.177378
     37          1           0        3.938545   -0.356688    1.542676
     38          1           0        3.560438   -2.045688    1.871362
     39          1           0        3.766798   -1.509911    0.201904
     40          6           0        1.359277   -0.649854    2.579043
     41          1           0        1.840730    0.244417    2.995236
     42          1           0        1.617142   -1.494842    3.225720
     43          1           0        0.275603   -0.513647    2.639558
     44          7           0        3.284258    0.476658   -1.496236
     45          1           0        3.856666    0.804734   -0.730596
     46          6           0        3.846505    0.460698   -2.837598
     47          1           0        3.198956   -0.213599   -3.410583
     48          6           0        5.253939   -0.124889   -2.906624
     49          6           0        3.817067    1.855625   -3.512534
     50          1           0        4.607010    2.492018   -3.091450
     51          1           0        4.057466    1.722896   -4.572208
     52          8           0        5.969997   -0.010183   -3.872896
     53          6           0        2.454151    2.524459   -3.313527
     54          1           0        2.305964    2.691362   -2.241416
     55          1           0        1.668102    1.818645   -3.610669
     56          6           0        2.272981    3.855838   -4.054036
     57          1           0        3.183783    4.464348   -3.989642
     58          1           0        2.093149    3.691993   -5.125024
     59          6           0        1.150695    4.705801   -3.458476
     60          1           0        1.400183    5.049854   -2.451604
     61          1           0        0.920728    5.574498   -4.080323
     62          7           0       -0.137968    3.915701   -3.303461
     63          1           0       -0.929529    4.542581   -3.132431
     64          1           0       -0.357400    3.386865   -4.153769
     65          1           0       -0.112913    3.225942   -2.486581
     66          8           0        5.611868   -0.787540   -1.784029
     67          1           0        6.509820   -1.138538   -1.943863
 ---------------------------------------------------------------------

 SCF Done:  E(RB3LYP) =  -1396.65537093     A.U. after    2 cycles

 Alpha  occ. eigenvalues --  -19.29178 -19.25100 -19.23043 -19.22635 -19.21562
 Alpha  occ. eigenvalues --  -14.58685 -14.47380 -14.47062 -14.46408 -14.39570
 Alpha  occ. eigenvalues --  -10.41454 -10.41024 -10.39038 -10.38901 -10.38815
 Alpha  occ. eigenvalues --  -10.34801 -10.33942 -10.33878 -10.32452 -10.31120
 Alpha  occ. eigenvalues --  -10.30585 -10.30447 -10.30015 -10.29599 -10.29490
 Alpha  occ. eigenvalues --  -10.28794 -10.27015 -10.26411 -10.26210  -1.19904
 Alpha  occ. eigenvalues --   -1.16016  -1.14192  -1.13579  -1.13192  -1.10881
 Alpha  occ. eigenvalues --   -1.04211  -1.03175  -1.02901  -0.96736  -0.93286
 Alpha  occ. eigenvalues --   -0.92436  -0.90687  -0.88350  -0.86284  -0.83735
 Alpha  occ. eigenvalues --   -0.81142  -0.78868  -0.78610  -0.77576  -0.77063
 Alpha  occ. eigenvalues --   -0.75153  -0.73041  -0.71817  -0.71322  -0.70384
 Alpha  occ. eigenvalues --   -0.69704  -0.69556  -0.68196  -0.67447  -0.66411
 Alpha  occ. eigenvalues --   -0.63381  -0.63195  -0.62526  -0.61385  -0.60384
 Alpha  occ. eigenvalues --   -0.59710  -0.59260  -0.58488  -0.58100  -0.57504
 Alpha  occ. eigenvalues --   -0.56928  -0.56289  -0.55465  -0.54821  -0.54463
 Alpha  occ. eigenvalues --   -0.53850  -0.53396  -0.53248  -0.52670  -0.52447
 Alpha  occ. eigenvalues --   -0.51644  -0.51201  -0.50846  -0.50513  -0.49606
 Alpha  occ. eigenvalues --   -0.49555  -0.49509  -0.48866  -0.48628  -0.47979
 Alpha  occ. eigenvalues --   -0.47729  -0.47358  -0.47286  -0.46824  -0.45871
 Alpha  occ. eigenvalues --   -0.45425  -0.45157  -0.44578  -0.44111  -0.43652
 Alpha  occ. eigenvalues --   -0.43470  -0.43384  -0.42965  -0.42384  -0.40936
 Alpha  occ. eigenvalues --   -0.39900  -0.37948  -0.37570  -0.36683  -0.35988
 Alpha  occ. eigenvalues --   -0.35285  -0.34776  -0.32149
 Alpha virt. eigenvalues --   -0.11391  -0.10725  -0.08485  -0.08074  -0.07911
 Alpha virt. eigenvalues --   -0.05891  -0.03844  -0.02595  -0.02195  -0.01606
 Alpha virt. eigenvalues --   -0.00872  -0.00417   0.00086   0.00436   0.00488

 Mulliken charges:
               1
     1  N   -0.674063
     2  H    0.319931
     3  H    0.309222
     4  C   -0.247659
     5  H    0.169254
     6  H    0.188637
     7  C    0.588600
     8  O   -0.526877
     9  N   -0.603350
    10  H    0.337902
    11  C   -0.060201
    12  H    0.199571
    13  C    0.680101
    14  C   -0.283545
    15  H    0.164262
    16  H    0.104539
    17  O   -0.612311
    18  C   -0.097155
    19  H    0.126284
    20  C   -0.454564
    21  H    0.157788
    22  H    0.165840
    23  H    0.168341
    24  C   -0.450924
    25  H    0.175458
    26  H    0.091377
    27  H    0.167875
    28  N   -0.610757
    29  H    0.394693
    30  C   -0.019565
    31  H    0.155460
    32  C    0.632079
    33  C   -0.116822
    34  H    0.161387
    35  O   -0.528978
    36  C   -0.479982
    37  H    0.138689
    38  H    0.172654
    39  H    0.180881
    40  C   -0.470107
    41  H    0.146824
    42  H    0.170233
    43  H    0.171117
    44  N   -0.606335
    45  H    0.341232
    46  C   -0.064584
    47  H    0.226151
    48  C    0.591746
    49  C   -0.268593
    50  H    0.151982
    51  H    0.184456
    52  O   -0.444446
    53  C   -0.297619
    54  H    0.164482
    55  H    0.158166
    56  C   -0.291735
    57  H    0.189736
    58  H    0.170132
    59  C   -0.188656
    60  H    0.213865
    61  H    0.206469
    62  N   -0.789073
    63  H    0.404480
    64  H    0.405751
    65  H    0.478935
    66  O   -0.566660
    67  H    0.427978
 Sum of Mulliken charges =   1.00000

 Dipole moment (field-independent basis, Debye):
    X=              0.6821    Y=             14.5623    Z=             -9.0936  Tot=             17.1819
 Quadrupole moment (field-independent basis, Debye-Ang):
   XX=           -133.9991   YY=           -109.8978   ZZ=           -137.9573
   XY=             -7.9091   XZ=             12.1384   YZ=            -47.2114

 Normal termination of Gaussian 16 at Fri May 27 02:06:05 2022.
