 Gaussian 16, Revision C.01,
 Gaussian 16:  ES64L-G16RevC.01  3-Jul-2019

 -------------------------------------------------------------------
 # B3LYP/6-31G* guess=read geom=check nosymm integral(ultrafinegrid)
 -------------------------------------------------------------------

 ------------------------------------------------------
 Candidate Structure: Conf:302 Charge calc in gas phase
 ------------------------------------------------------
 Structure from the checkpoint file:  "conf-302.chk"
 Charge =  1 Multiplicity = 1

                          Input orientation:
 ---------------------------------------------------------------------
 Center     Atomic      Atomic             Coordinates (Angstroms)
 Number     Number       Type             X           Y           Z
 ---------------------------------------------------------------------
      1          7           0       -4.076012   -2.174987    0.580901
      2          1           0       -5.058241   -1.947701    0.446058
      3          1           0       -4.042027   -2.960093    1.224799
      4          6           0       -3.432830   -2.503889   -0.693500
      5          1           0       -4.115853   -2.859303   -1.475563
      6          1           0       -2.696053   -3.301495   -0.543014
      7          6           0       -2.672277   -1.311744   -1.279833
      8          8           0       -2.262898   -1.345514   -2.450901
      9          7           0       -2.489590   -0.281731   -0.430661
     10          1           0       -2.984555   -0.396575    0.455241
     11          6           0       -1.940048    1.004666   -0.841514
     12          1           0       -2.208038    1.164643   -1.888874
     13          6           0       -0.400161    1.059314   -0.814420
     14          6           0       -2.507011    2.151547    0.020890
     15          1           0       -2.226257    1.972505    1.068585
     16          1           0       -1.991367    3.070766   -0.284071
     17          8           0        0.207097    1.720090   -1.661039
     18          6           0       -4.032082    2.369164   -0.074858
     19          1           0       -4.534211    1.435383    0.220196
     20          6           0       -4.456248    3.459210    0.921691
     21          1           0       -3.990660    4.421069    0.673430
     22          1           0       -5.541898    3.602038    0.904717
     23          1           0       -4.167980    3.202484    1.947735
     24          6           0       -4.486702    2.723747   -1.498254
     25          1           0       -3.986408    3.633132   -1.854543
     26          1           0       -4.280943    1.922149   -2.217213
     27          1           0       -5.565739    2.909784   -1.521703
     28          7           0        0.221576    0.427524    0.208554
     29          1           0       -0.316583   -0.220798    0.767179
     30          6           0        1.665876    0.491654    0.422140
     31          1           0        1.938873    1.544693    0.571736
     32          6           0        2.402334   -0.051533   -0.821817
     33          6           0        2.038826   -0.314510    1.695575
     34          1           0        1.669299   -1.337801    1.533846
     35          8           0        2.013129   -1.079339   -1.383997
     36          6           0        3.559001   -0.390814    1.903603
     37          1           0        4.000402    0.609050    2.001264
     38          1           0        3.779123   -0.937001    2.826094
     39          1           0        4.066471   -0.908671    1.084695
     40          6           0        1.363657    0.275465    2.945279
     41          1           0        1.725060    1.292586    3.139401
     42          1           0        1.599572   -0.334307    3.823327
     43          1           0        0.272497    0.323568    2.863155
     44          7           0        3.482365    0.673991   -1.212302
     45          1           0        3.712206    1.512643   -0.695676
     46          6           0        4.379040    0.324842   -2.316531
     47          1           0        4.404463   -0.768024   -2.379731
     48          6           0        5.810419    0.783123   -2.058110
     49          6           0        3.905743    0.870018   -3.701663
     50          1           0        3.967070    1.965619   -3.716105
     51          1           0        4.592710    0.486138   -4.462812
     52          8           0        6.740329    0.462983   -2.756082
     53          6           0        2.469285    0.393786   -3.887418
     54          1           0        1.909396    0.836291   -3.059649
     55          1           0        2.490074   -0.687764   -3.719299
     56          6           0        1.642188    0.664648   -5.147065
     57          1           0        1.754082    1.694984   -5.504292
     58          1           0        1.924583    0.006088   -5.977694
     59          6           0        0.160358    0.481028   -4.766896
     60          1           0       -0.167267    1.302463   -4.126465
     61          1           0       -0.504309    0.401848   -5.629962
     62          7           0       -0.057711   -0.768167   -3.928350
     63          1           0       -1.005014   -0.818635   -3.476398
     64          1           0        0.071470   -1.623237   -4.477324
     65          1           0        0.611586   -0.810440   -3.140809
     66          8           0        5.917549    1.621514   -0.999118
     67          1           0        6.856616    1.883864   -0.938553
 ---------------------------------------------------------------------

 SCF Done:  E(RB3LYP) =  -1396.67115231     A.U. after    1 cycles

 Alpha  occ. eigenvalues --  -19.29806 -19.24398 -19.23444 -19.22906 -19.22438
 Alpha  occ. eigenvalues --  -14.55584 -14.47696 -14.47295 -14.47116 -14.44045
 Alpha  occ. eigenvalues --  -10.41966 -10.40826 -10.39758 -10.39725 -10.36106
 Alpha  occ. eigenvalues --  -10.34503 -10.34348 -10.34174 -10.33395 -10.30699
 Alpha  occ. eigenvalues --  -10.30188 -10.29405 -10.29174 -10.28621 -10.28483
 Alpha  occ. eigenvalues --  -10.27292 -10.26948 -10.26044 -10.25605  -1.20418
 Alpha  occ. eigenvalues --   -1.15677  -1.14846  -1.13723  -1.11425  -1.10439
 Alpha  occ. eigenvalues --   -1.04981  -1.03449  -1.03267  -0.99954  -0.92006
 Alpha  occ. eigenvalues --   -0.91280  -0.90415  -0.88034  -0.85868  -0.82916
 Alpha  occ. eigenvalues --   -0.81006  -0.80292  -0.78104  -0.76896  -0.76328
 Alpha  occ. eigenvalues --   -0.74882  -0.71714  -0.71327  -0.70395  -0.69896
 Alpha  occ. eigenvalues --   -0.68963  -0.68588  -0.67645  -0.67380  -0.65927
 Alpha  occ. eigenvalues --   -0.63582  -0.62933  -0.62084  -0.60899  -0.60586
 Alpha  occ. eigenvalues --   -0.59920  -0.59111  -0.58678  -0.57554  -0.56831
 Alpha  occ. eigenvalues --   -0.56696  -0.56210  -0.55127  -0.54770  -0.54224
 Alpha  occ. eigenvalues --   -0.54043  -0.53918  -0.53627  -0.52491  -0.52318
 Alpha  occ. eigenvalues --   -0.51872  -0.51584  -0.51148  -0.50267  -0.49932
 Alpha  occ. eigenvalues --   -0.49611  -0.49216  -0.48555  -0.48189  -0.47801
 Alpha  occ. eigenvalues --   -0.47568  -0.47149  -0.47011  -0.46517  -0.45314
 Alpha  occ. eigenvalues --   -0.45014  -0.44627  -0.44079  -0.43802  -0.43476
 Alpha  occ. eigenvalues --   -0.42940  -0.42145  -0.41754  -0.41611  -0.41405
 Alpha  occ. eigenvalues --   -0.39745  -0.39335  -0.38102  -0.37556  -0.36154
 Alpha  occ. eigenvalues --   -0.36009  -0.35421  -0.35106
 Alpha virt. eigenvalues --   -0.09919  -0.09769  -0.09047  -0.08443  -0.06555
 Alpha virt. eigenvalues --   -0.03952  -0.02767  -0.02469  -0.00973  -0.00504
 Alpha virt. eigenvalues --   -0.00250   0.00133   0.01041   0.01415   0.01964

 Mulliken charges:
               1
     1  N   -0.752997
     2  H    0.333866
     3  H    0.336891
     4  C   -0.241436
     5  H    0.191975
     6  H    0.195952
     7  C    0.613470
     8  O   -0.573705
     9  N   -0.605116
    10  H    0.376566
    11  C   -0.046054
    12  H    0.172141
    13  C    0.619354
    14  C   -0.293567
    15  H    0.142751
    16  H    0.173859
    17  O   -0.545219
    18  C   -0.075471
    19  H    0.120831
    20  C   -0.446165
    21  H    0.154679
    22  H    0.161294
    23  H    0.147890
    24  C   -0.453847
    25  H    0.154743
    26  H    0.140513
    27  H    0.164336
    28  N   -0.606966
    29  H    0.342771
    30  C   -0.005731
    31  H    0.159730
    32  C    0.643509
    33  C   -0.122600
    34  H    0.151924
    35  O   -0.567848
    36  C   -0.464147
    37  H    0.151245
    38  H    0.171771
    39  H    0.165036
    40  C   -0.450765
    41  H    0.161152
    42  H    0.172446
    43  H    0.137366
    44  N   -0.602798
    45  H    0.360926
    46  C   -0.061267
    47  H    0.210092
    48  C    0.596225
    49  C   -0.268852
    50  H    0.158868
    51  H    0.185343
    52  O   -0.437381
    53  C   -0.335563
    54  H    0.200614
    55  H    0.149571
    56  C   -0.273277
    57  H    0.183692
    58  H    0.165174
    59  C   -0.201637
    60  H    0.232669
    61  H    0.197885
    62  N   -0.792959
    63  H    0.447971
    64  H    0.394265
    65  H    0.433214
    66  O   -0.581508
    67  H    0.432306
 Sum of Mulliken charges =   1.00000

 Dipole moment (field-independent basis, Debye):
    X=             -2.4159    Y=             -0.7545    Z=             -6.1983  Tot=              6.6951
 Quadrupole moment (field-independent basis, Debye-Ang):
   XX=           -121.7912   YY=           -155.1271   ZZ=           -123.0602
   XY=             20.2991   XZ=              1.0827   YZ=              0.7240

 Normal termination of Gaussian 16 at Fri May 27 02:05:58 2022.
