 Gaussian 16, Revision C.01,
 Gaussian 16:  ES64L-G16RevC.01  3-Jul-2019

 -------------------------------------------------------------------
 # B3LYP/6-31G* guess=read geom=check nosymm integral(ultrafinegrid)
 -------------------------------------------------------------------

 ------------------------------------------------------
 Candidate Structure: Conf:472 Charge calc in gas phase
 ------------------------------------------------------
 Structure from the checkpoint file:  "conf-472.chk"
 Charge =  1 Multiplicity = 1

                          Input orientation:
 ---------------------------------------------------------------------
 Center     Atomic      Atomic             Coordinates (Angstroms)
 Number     Number       Type             X           Y           Z
 ---------------------------------------------------------------------
      1          7           0       -3.856925   -1.534031    3.000139
      2          1           0       -3.293259   -0.938867    3.599427
      3          1           0       -4.688486   -1.032932    2.702942
      4          6           0       -3.112915   -2.124468    1.901928
      5          1           0       -3.756196   -2.841175    1.378310
      6          1           0       -2.287549   -2.718268    2.311149
      7          6           0       -2.502017   -1.229399    0.810752
      8          8           0       -1.875211   -1.728465   -0.129590
      9          7           0       -2.690219    0.106966    0.942655
     10          1           0       -3.176898    0.438254    1.765038
     11          6           0       -2.252890    1.087725   -0.055745
     12          1           0       -2.344350    0.590011   -1.027292
     13          6           0       -0.755517    1.436677    0.148998
     14          6           0       -3.124030    2.346075   -0.004149
     15          1           0       -2.999161    2.812432    0.981881
     16          1           0       -2.706109    3.068123   -0.716044
     17          8           0       -0.381403    2.533627    0.551658
     18          6           0       -4.621536    2.136785   -0.305072
     19          1           0       -5.018225    1.391860    0.401524
     20          6           0       -5.386045    3.449145   -0.073889
     21          1           0       -5.037191    4.231865   -0.759630
     22          1           0       -6.460613    3.314910   -0.241728
     23          1           0       -5.248735    3.819645    0.948758
     24          6           0       -4.868909    1.607483   -1.725986
     25          1           0       -4.464363    2.300445   -2.475672
     26          1           0       -4.409011    0.626687   -1.890926
     27          1           0       -5.942447    1.501639   -1.919033
     28          7           0        0.086164    0.409602   -0.157836
     29          1           0       -0.319703   -0.469281   -0.476671
     30          6           0        1.520083    0.514481    0.012310
     31          1           0        1.712009    1.561166    0.270775
     32          6           0        2.217304    0.183019   -1.311360
     33          6           0        2.073300   -0.382427    1.165715
     34          1           0        3.162025   -0.220504    1.181590
     35          8           0        1.767477   -0.612551   -2.131305
     36          6           0        1.508130    0.077367    2.516759
     37          1           0        0.423558   -0.072273    2.555774
     38          1           0        1.955629   -0.499693    3.333491
     39          1           0        1.704594    1.139436    2.699582
     40          6           0        1.816367   -1.879113    0.931905
     41          1           0        0.742979   -2.096898    0.890228
     42          1           0        2.244144   -2.466239    1.752066
     43          1           0        2.259393   -2.232754   -0.004522
     44          7           0        3.413430    0.819268   -1.519174
     45          1           0        3.815029    1.395187   -0.792483
     46          6           0        4.248424    0.430225   -2.643292
     47          1           0        4.227555   -0.668808   -2.704755
     48          6           0        5.706892    0.822728   -2.437195
     49          6           0        3.701537    0.979586   -3.984061
     50          1           0        2.612381    0.913417   -3.917560
     51          1           0        3.971167    2.037958   -4.086442
     52          8           0        6.526304    0.872963   -3.328560
     53          6           0        4.181688    0.181221   -5.202647
     54          1           0        3.921476   -0.876361   -5.057592
     55          1           0        5.271505    0.245225   -5.278995
     56          6           0        3.529846    0.682852   -6.502889
     57          1           0        2.436028    0.623341   -6.412216
     58          1           0        3.790055    1.738632   -6.663521
     59          6           0        3.994155   -0.147851   -7.690782
     60          1           0        5.071119   -0.073276   -7.859502
     61          1           0        3.720511   -1.201525   -7.596448
     62          7           0        3.332750    0.338591   -8.986696
     63          1           0        3.629298   -0.208098   -9.804574
     64          1           0        2.309254    0.273728   -8.921248
     65          1           0        3.562497    1.323460   -9.168489
     66          8           0        6.004346    1.095243   -1.149530
     67          1           0        6.954990    1.317956   -1.115349
 ---------------------------------------------------------------------

 SCF Done:  E(RB3LYP) =  -1396.62217321     A.U. after    1 cycles

 Alpha  occ. eigenvalues --  -19.29772 -19.23858 -19.19251 -19.17339 -19.16692
 Alpha  occ. eigenvalues --  -14.65666 -14.44352 -14.42627 -14.40577 -14.38420
 Alpha  occ. eigenvalues --  -10.42504 -10.42211 -10.36129 -10.34919 -10.34390
 Alpha  occ. eigenvalues --  -10.33794 -10.33709 -10.30891 -10.29225 -10.29174
 Alpha  occ. eigenvalues --  -10.29023 -10.27692 -10.25834 -10.24578 -10.23949
 Alpha  occ. eigenvalues --  -10.22933 -10.22694 -10.22659 -10.22358  -1.20635
 Alpha  occ. eigenvalues --   -1.19503  -1.11544  -1.11294  -1.09306  -1.08259
 Alpha  occ. eigenvalues --   -1.00946  -0.98858  -0.97509  -0.96006  -0.94515
 Alpha  occ. eigenvalues --   -0.89423  -0.86554  -0.86066  -0.84090  -0.80875
 Alpha  occ. eigenvalues --   -0.79768  -0.78103  -0.77052  -0.76415  -0.75126
 Alpha  occ. eigenvalues --   -0.73829  -0.73439  -0.72338  -0.70503  -0.69283
 Alpha  occ. eigenvalues --   -0.66831  -0.66820  -0.65271  -0.64002  -0.63595
 Alpha  occ. eigenvalues --   -0.62899  -0.62097  -0.61934  -0.58239  -0.58071
 Alpha  occ. eigenvalues --   -0.57727  -0.57103  -0.57019  -0.55689  -0.55364
 Alpha  occ. eigenvalues --   -0.54667  -0.53812  -0.53640  -0.52332  -0.52234
 Alpha  occ. eigenvalues --   -0.51386  -0.51310  -0.50469  -0.49825  -0.48767
 Alpha  occ. eigenvalues --   -0.48344  -0.47993  -0.47626  -0.47487  -0.47325
 Alpha  occ. eigenvalues --   -0.46644  -0.46364  -0.46027  -0.45622  -0.45399
 Alpha  occ. eigenvalues --   -0.44151  -0.43814  -0.43527  -0.43397  -0.43124
 Alpha  occ. eigenvalues --   -0.42608  -0.41693  -0.41575  -0.41041  -0.39888
 Alpha  occ. eigenvalues --   -0.39328  -0.39068  -0.38018  -0.37876  -0.37694
 Alpha  occ. eigenvalues --   -0.37510  -0.34050  -0.33859  -0.33313  -0.32931
 Alpha  occ. eigenvalues --   -0.30168  -0.29395  -0.28540
 Alpha virt. eigenvalues --   -0.16021  -0.09339  -0.09266  -0.09046  -0.06970
 Alpha virt. eigenvalues --   -0.05380  -0.04061  -0.03391  -0.02562  -0.02149
 Alpha virt. eigenvalues --   -0.01757  -0.00708  -0.00236   0.01470   0.02092

 Mulliken charges:
               1
     1  N   -0.715219
     2  H    0.311300
     3  H    0.311376
     4  C   -0.232352
     5  H    0.192555
     6  H    0.188855
     7  C    0.594144
     8  O   -0.545157
     9  N   -0.592881
    10  H    0.314407
    11  C   -0.064099
    12  H    0.177084
    13  C    0.619390
    14  C   -0.278413
    15  H    0.152110
    16  H    0.154222
    17  O   -0.528606
    18  C   -0.071533
    19  H    0.112281
    20  C   -0.442608
    21  H    0.145010
    22  H    0.148649
    23  H    0.145075
    24  C   -0.452164
    25  H    0.138453
    26  H    0.149834
    27  H    0.151030
    28  N   -0.621689
    29  H    0.385721
    30  C   -0.073637
    31  H    0.175787
    32  C    0.636401
    33  C   -0.075000
    34  H    0.121877
    35  O   -0.538736
    36  C   -0.445380
    37  H    0.147323
    38  H    0.151557
    39  H    0.156487
    40  C   -0.470998
    41  H    0.168101
    42  H    0.149700
    43  H    0.154894
    44  N   -0.631465
    45  H    0.355987
    46  C   -0.026656
    47  H    0.200879
    48  C    0.585972
    49  C   -0.265277
    50  H    0.186162
    51  H    0.151578
    52  O   -0.459869
    53  C   -0.288835
    54  H    0.163606
    55  H    0.193068
    56  C   -0.294241
    57  H    0.173261
    58  H    0.169843
    59  C   -0.207766
    60  H    0.233121
    61  H    0.232419
    62  N   -0.732012
    63  H    0.432506
    64  H    0.428975
    65  H    0.428168
    66  O   -0.565235
    67  H    0.430659
 Sum of Mulliken charges =   1.00000

 Dipole moment (field-independent basis, Debye):
    X=             15.0507    Y=              3.0814    Z=            -34.5604  Tot=             37.8211
 Quadrupole moment (field-independent basis, Debye-Ang):
   XX=            -86.5638   YY=           -180.4494   ZZ=            163.6210
   XY=              3.6431   XZ=           -125.4283   YZ=            -14.8534

 Normal termination of Gaussian 16 at Fri May 27 02:24:42 2022.
