 Gaussian 16, Revision C.01,
 Gaussian 16:  ES64L-G16RevC.01  3-Jul-2019

 -------------------------------------------------------------------
 # B3LYP/6-31G* guess=read geom=check nosymm integral(ultrafinegrid)
 -------------------------------------------------------------------

 ------------------------------------------------------
 Candidate Structure: Conf:684 Charge calc in gas phase
 ------------------------------------------------------
 Structure from the checkpoint file:  "conf-684.chk"
 Charge =  1 Multiplicity = 1

                          Input orientation:
 ---------------------------------------------------------------------
 Center     Atomic      Atomic             Coordinates (Angstroms)
 Number     Number       Type             X           Y           Z
 ---------------------------------------------------------------------
      1          7           0       -5.808623    0.625927    3.803276
      2          1           0       -6.435745    0.433370    3.022287
      3          1           0       -5.512056   -0.295295    4.123813
      4          6           0       -4.652527    1.336732    3.283844
      5          1           0       -3.900280    1.438188    4.076411
      6          1           0       -4.954336    2.359771    3.017229
      7          6           0       -4.015927    0.698303    2.036283
      8          8           0       -4.591250   -0.168016    1.382903
      9          7           0       -2.785395    1.175284    1.694428
     10          1           0       -2.327112    1.901951    2.231301
     11          6           0       -2.085099    0.721507    0.503814
     12          1           0       -2.296080   -0.345945    0.390033
     13          6           0       -0.593526    0.958905    0.757007
     14          6           0       -2.574626    1.483427   -0.756382
     15          1           0       -3.669398    1.422092   -0.742741
     16          1           0       -2.308290    2.540784   -0.627508
     17          8           0       -0.201607    1.929519    1.400240
     18          6           0       -2.064460    0.978598   -2.121322
     19          1           0       -0.964307    0.971012   -2.110781
     20          6           0       -2.545961   -0.447424   -2.435531
     21          1           0       -3.641449   -0.498252   -2.433752
     22          1           0       -2.194942   -0.768734   -3.423070
     23          1           0       -2.188091   -1.185854   -1.708445
     24          6           0       -2.510308    1.948076   -3.227639
     25          1           0       -3.604643    2.000321   -3.284898
     26          1           0       -2.139061    2.963724   -3.045159
     27          1           0       -2.144127    1.623294   -4.209310
     28          7           0        0.259910    0.031195    0.228827
     29          1           0       -0.097282   -0.658034   -0.421301
     30          6           0        1.696989    0.233314    0.229158
     31          1           0        1.862291    1.267111    0.552133
     32          6           0        2.205796    0.059481   -1.203641
     33          6           0        2.454654   -0.709405    1.217622
     34          1           0        3.524898   -0.474489    1.108558
     35          8           0        1.582654   -0.551730   -2.069757
     36          6           0        2.051253   -0.404155    2.666375
     37          1           0        0.994589   -0.636284    2.834554
     38          1           0        2.642759   -1.012391    3.359120
     39          1           0        2.204432    0.650529    2.916881
     40          6           0        2.253703   -2.194016    0.882176
     41          1           0        1.201677   -2.479752    0.994229
     42          1           0        2.837658   -2.818671    1.566028
     43          1           0        2.561002   -2.438660   -0.141084
     44          7           0        3.422265    0.624084   -1.481576
     45          1           0        4.004495    0.993335   -0.739584
     46          6           0        4.048888    0.348895   -2.758712
     47          1           0        3.973039   -0.731281   -2.960028
     48          6           0        5.526130    0.673368   -2.625963
     49          6           0        3.370874    1.090405   -3.944282
     50          1           0        2.339193    1.293409   -3.652971
     51          1           0        3.852947    2.066857   -4.084574
     52          8           0        6.110931    0.906576   -1.602206
     53          6           0        3.368507    0.239269   -5.227633
     54          1           0        2.559754   -0.494592   -5.147949
     55          1           0        4.287130   -0.361783   -5.289611
     56          6           0        3.185002    1.026703   -6.535451
     57          1           0        3.145122    0.328829   -7.381603
     58          1           0        2.225284    1.557251   -6.534606
     59          6           0        4.259018    2.081783   -6.801608
     60          1           0        4.213785    2.466859   -7.822522
     61          1           0        4.207963    2.923793   -6.108970
     62          7           0        5.657993    1.494869   -6.619679
     63          1           0        6.383109    2.176604   -6.869185
     64          1           0        5.816760    1.197679   -5.633372
     65          1           0        5.792266    0.670607   -7.217242
     66          8           0        6.206333    0.670533   -3.835336
     67          1           0        7.143987    0.802831   -3.586517
 ---------------------------------------------------------------------

 SCF Done:  E(RB3LYP) =  -1396.62377352     A.U. after    1 cycles

 Alpha  occ. eigenvalues --  -19.36530 -19.29814 -19.22660 -19.18841 -19.15618
 Alpha  occ. eigenvalues --  -14.64229 -14.47556 -14.43627 -14.40426 -14.34873
 Alpha  occ. eigenvalues --  -10.47644 -10.42511 -10.39377 -10.37950 -10.35872
 Alpha  occ. eigenvalues --  -10.35631 -10.33749 -10.33107 -10.32511 -10.31723
 Alpha  occ. eigenvalues --  -10.29093 -10.27880 -10.25733 -10.25222 -10.24951
 Alpha  occ. eigenvalues --  -10.24217 -10.24107 -10.23519 -10.23271  -1.26330
 Alpha  occ. eigenvalues --   -1.18529  -1.17520  -1.14672  -1.10833  -1.07429
 Alpha  occ. eigenvalues --   -1.04419  -1.00204  -0.96976  -0.96849  -0.92247
 Alpha  occ. eigenvalues --   -0.91781  -0.88476  -0.86940  -0.86639  -0.81626
 Alpha  occ. eigenvalues --   -0.81233  -0.79229  -0.77123  -0.76792  -0.75668
 Alpha  occ. eigenvalues --   -0.75310  -0.74204  -0.73722  -0.73391  -0.70754
 Alpha  occ. eigenvalues --   -0.69942  -0.66906  -0.66580  -0.65310  -0.64746
 Alpha  occ. eigenvalues --   -0.64445  -0.63408  -0.62515  -0.62078  -0.61850
 Alpha  occ. eigenvalues --   -0.60550  -0.59651  -0.58183  -0.57134  -0.56413
 Alpha  occ. eigenvalues --   -0.56044  -0.55026  -0.54825  -0.54365  -0.53756
 Alpha  occ. eigenvalues --   -0.53520  -0.53058  -0.52270  -0.51558  -0.50990
 Alpha  occ. eigenvalues --   -0.50536  -0.49974  -0.49825  -0.48709  -0.48419
 Alpha  occ. eigenvalues --   -0.48258  -0.48026  -0.47741  -0.46863  -0.46421
 Alpha  occ. eigenvalues --   -0.45923  -0.45527  -0.44932  -0.44596  -0.44049
 Alpha  occ. eigenvalues --   -0.43497  -0.43102  -0.42876  -0.42338  -0.41730
 Alpha  occ. eigenvalues --   -0.41170  -0.40917  -0.40088  -0.38908  -0.38476
 Alpha  occ. eigenvalues --   -0.38105  -0.37216  -0.36224  -0.33156  -0.32732
 Alpha  occ. eigenvalues --   -0.30047  -0.29645  -0.27379
 Alpha virt. eigenvalues --   -0.14964  -0.14564  -0.08938  -0.08640  -0.08192
 Alpha virt. eigenvalues --   -0.06379  -0.05196  -0.04986  -0.03639  -0.02297
 Alpha virt. eigenvalues --   -0.01810  -0.01377  -0.01056  -0.00714   0.00020

 Mulliken charges:
               1
     1  N   -0.681783
     2  H    0.312044
     3  H    0.301897
     4  C   -0.247311
     5  H    0.158776
     6  H    0.173202
     7  C    0.578396
     8  O   -0.527566
     9  N   -0.613727
    10  H    0.344767
    11  C   -0.039417
    12  H    0.174011
    13  C    0.611700
    14  C   -0.256870
    15  H    0.171014
    16  H    0.141548
    17  O   -0.534496
    18  C   -0.090903
    19  H    0.115214
    20  C   -0.443539
    21  H    0.164642
    22  H    0.138311
    23  H    0.136843
    24  C   -0.442813
    25  H    0.156280
    26  H    0.139339
    27  H    0.128836
    28  N   -0.608191
    29  H    0.355799
    30  C   -0.072140
    31  H    0.189684
    32  C    0.633988
    33  C   -0.079405
    34  H    0.120093
    35  O   -0.540434
    36  C   -0.446580
    37  H    0.166022
    38  H    0.155832
    39  H    0.161717
    40  C   -0.461929
    41  H    0.162031
    42  H    0.163465
    43  H    0.143676
    44  N   -0.632112
    45  H    0.364296
    46  C   -0.012727
    47  H    0.214572
    48  C    0.592318
    49  C   -0.282476
    50  H    0.219384
    51  H    0.129130
    52  O   -0.412472
    53  C   -0.315537
    54  H    0.217765
    55  H    0.131926
    56  C   -0.297138
    57  H    0.181797
    58  H    0.210553
    59  C   -0.206025
    60  H    0.228673
    61  H    0.225618
    62  N   -0.771810
    63  H    0.421619
    64  H    0.454237
    65  H    0.418898
    66  O   -0.630283
    67  H    0.437772
 Sum of Mulliken charges =   1.00000

 Dipole moment (field-independent basis, Debye):
    X=             28.6353    Y=              6.2774    Z=            -29.9080  Tot=             41.8793
 Quadrupole moment (field-independent basis, Debye-Ang):
   XX=            -37.8183   YY=           -162.1455   ZZ=             17.3200
   XY=             32.9675   XZ=           -151.9738   YZ=            -49.8242

 Normal termination of Gaussian 16 at Fri May 27 02:24:38 2022.
