 Gaussian 16, Revision C.01,
 Gaussian 16:  ES64L-G16RevC.01  3-Jul-2019

 -------------------------------------------------------------------
 # B3LYP/6-31G* guess=read geom=check nosymm integral(ultrafinegrid)
 -------------------------------------------------------------------

 -----------------------------------------------------
 Candidate Structure: Conf:34 Charge calc in gas phase
 -----------------------------------------------------
 Structure from the checkpoint file:  "conf-34.chk"
 Charge =  1 Multiplicity = 1

                          Input orientation:
 ---------------------------------------------------------------------
 Center     Atomic      Atomic             Coordinates (Angstroms)
 Number     Number       Type             X           Y           Z
 ---------------------------------------------------------------------
      1          7           0       -3.372979    1.726885    3.698366
      2          1           0       -4.244392    1.784561    4.217647
      3          1           0       -2.649553    2.115761    4.298467
      4          6           0       -3.064597    0.337379    3.341901
      5          1           0       -3.990493   -0.246858    3.292457
      6          1           0       -2.410873   -0.183234    4.053172
      7          6           0       -2.416526    0.220805    1.960668
      8          8           0       -1.928183   -0.841342    1.559795
      9          7           0       -2.445997    1.354607    1.221490
     10          1           0       -2.873721    2.156484    1.681142
     11          6           0       -2.058341    1.380938   -0.184695
     12          1           0       -2.331955    0.407165   -0.605921
     13          6           0       -0.517628    1.493305   -0.317969
     14          6           0       -2.791928    2.493733   -0.939756
     15          1           0       -2.470774    3.464418   -0.535644
     16          1           0       -2.459198    2.453506   -1.987644
     17          8           0        0.065038    2.528809   -0.714963
     18          6           0       -4.333341    2.415641   -0.920156
     19          1           0       -4.663614    2.452411    0.127232
     20          6           0       -4.919883    3.642444   -1.635088
     21          1           0       -4.637494    3.653380   -2.696789
     22          1           0       -6.013746    3.636082   -1.590516
     23          1           0       -4.575303    4.579712   -1.180783
     24          6           0       -4.864584    1.114929   -1.540166
     25          1           0       -4.529251    1.006604   -2.580015
     26          1           0       -4.541057    0.226323   -0.987682
     27          1           0       -5.959630    1.112558   -1.545969
     28          7           0        0.145839    0.395767    0.044318
     29          1           0       -0.423277   -0.369657    0.415623
     30          6           0        1.596464    0.235326   -0.017022
     31          1           0        2.067681    1.008203    0.605491
     32          6           0        2.081434    0.414288   -1.474811
     33          6           0        1.955802   -1.170089    0.555874
     34          1           0        1.345784   -1.893088   -0.004121
     35          8           0        1.395547    0.096787   -2.439305
     36          6           0        3.430136   -1.548465    0.353332
     37          1           0        4.109633   -0.829059    0.826548
     38          1           0        3.618777   -2.523256    0.813899
     39          1           0        3.703374   -1.629379   -0.702360
     40          6           0        1.590097   -1.261557    2.048173
     41          1           0        2.163174   -0.530980    2.633263
     42          1           0        1.837871   -2.257742    2.428893
     43          1           0        0.525411   -1.098602    2.237752
     44          7           0        3.334605    0.951092   -1.592637
     45          1           0        3.900251    1.049422   -0.754778
     46          6           0        4.124429    0.807113   -2.813028
     47          1           0        3.702402   -0.020377   -3.394772
     48          6           0        5.541928    0.429517   -2.381980
     49          6           0        4.175929    2.057848   -3.727783
     50          1           0        4.642966    2.889132   -3.182791
     51          1           0        4.844645    1.811514   -4.558376
     52          8           0        5.942302    0.478660   -1.238149
     53          6           0        2.807848    2.485355   -4.289394
     54          1           0        2.218189    1.588238   -4.510453
     55          1           0        2.960504    3.012373   -5.239253
     56          6           0        2.019979    3.391390   -3.328432
     57          1           0        2.043308    2.971699   -2.319916
     58          1           0        2.494358    4.382577   -3.283864
     59          6           0        0.565130    3.532587   -3.757234
     60          1           0        0.445520    4.089654   -4.690563
     61          1           0        0.095414    2.551293   -3.859932
     62          7           0       -0.218929    4.253853   -2.680728
     63          1           0       -1.180661    4.451826   -2.970176
     64          1           0       -0.243232    3.627861   -1.806192
     65          1           0        0.223672    5.144836   -2.435336
     66          8           0        6.300935    0.061813   -3.426587
     67          1           0        7.192453   -0.142021   -3.082858
 ---------------------------------------------------------------------

 SCF Done:  E(RB3LYP) =  -1396.67288585     A.U. after    2 cycles

 Alpha  occ. eigenvalues --  -19.29447 -19.24734 -19.24057 -19.21457 -19.21344
 Alpha  occ. eigenvalues --  -14.57350 -14.46544 -14.45906 -14.45503 -14.42583
 Alpha  occ. eigenvalues --  -10.41985 -10.40538 -10.38449 -10.38318 -10.37200
 Alpha  occ. eigenvalues --  -10.34306 -10.33715 -10.33336 -10.31601 -10.30594
 Alpha  occ. eigenvalues --  -10.30136 -10.29099 -10.29071 -10.29037 -10.29008
 Alpha  occ. eigenvalues --  -10.26852 -10.26263 -10.25889 -10.25581  -1.20535
 Alpha  occ. eigenvalues --   -1.15673  -1.13173  -1.13098  -1.12008  -1.11624
 Alpha  occ. eigenvalues --   -1.03653  -1.02613  -1.02162  -0.98468  -0.92094
 Alpha  occ. eigenvalues --   -0.91303  -0.90035  -0.87735  -0.85542  -0.82645
 Alpha  occ. eigenvalues --   -0.80503  -0.79390  -0.77496  -0.76934  -0.76004
 Alpha  occ. eigenvalues --   -0.74943  -0.72375  -0.71777  -0.71196  -0.68969
 Alpha  occ. eigenvalues --   -0.68380  -0.67723  -0.67695  -0.66324  -0.66185
 Alpha  occ. eigenvalues --   -0.62889  -0.61964  -0.61270  -0.60792  -0.60101
 Alpha  occ. eigenvalues --   -0.59340  -0.59157  -0.58606  -0.57458  -0.57047
 Alpha  occ. eigenvalues --   -0.56305  -0.55958  -0.55420  -0.54657  -0.53840
 Alpha  occ. eigenvalues --   -0.53054  -0.52627  -0.52456  -0.52136  -0.51837
 Alpha  occ. eigenvalues --   -0.51626  -0.51009  -0.50266  -0.50161  -0.49696
 Alpha  occ. eigenvalues --   -0.49266  -0.48788  -0.48192  -0.47892  -0.47609
 Alpha  occ. eigenvalues --   -0.47333  -0.46522  -0.46276  -0.46098  -0.45375
 Alpha  occ. eigenvalues --   -0.45179  -0.44243  -0.44166  -0.43154  -0.42610
 Alpha  occ. eigenvalues --   -0.42565  -0.42353  -0.42224  -0.41712  -0.41391
 Alpha  occ. eigenvalues --   -0.39433  -0.37932  -0.37447  -0.36972  -0.35396
 Alpha  occ. eigenvalues --   -0.35153  -0.34606  -0.33910
 Alpha virt. eigenvalues --   -0.10343  -0.09658  -0.08992  -0.07717  -0.07375
 Alpha virt. eigenvalues --   -0.04425  -0.02086  -0.02026  -0.01338  -0.01087
 Alpha virt. eigenvalues --   -0.00195  -0.00089   0.00858   0.01364   0.01939

 Mulliken charges:
               1
     1  N   -0.751539
     2  H    0.333170
     3  H    0.326330
     4  C   -0.240597
     5  H    0.199250
     6  H    0.185906
     7  C    0.605913
     8  O   -0.541567
     9  N   -0.593458
    10  H    0.369461
    11  C   -0.061468
    12  H    0.199527
    13  C    0.668706
    14  C   -0.298445
    15  H    0.134694
    16  H    0.119025
    17  O   -0.610808
    18  C   -0.075543
    19  H    0.141681
    20  C   -0.449335
    21  H    0.133242
    22  H    0.171665
    23  H    0.139909
    24  C   -0.456862
    25  H    0.145696
    26  H    0.160590
    27  H    0.166641
    28  N   -0.614480
    29  H    0.401357
    30  C   -0.020619
    31  H    0.160873
    32  C    0.616054
    33  C   -0.118758
    34  H    0.162036
    35  O   -0.532763
    36  C   -0.468461
    37  H    0.157820
    38  H    0.170857
    39  H    0.154567
    40  C   -0.468133
    41  H    0.146766
    42  H    0.168731
    43  H    0.170335
    44  N   -0.610168
    45  H    0.357778
    46  C   -0.042685
    47  H    0.204129
    48  C    0.587611
    49  C   -0.279063
    50  H    0.151673
    51  H    0.183973
    52  O   -0.462233
    53  C   -0.278882
    54  H    0.178820
    55  H    0.155878
    56  C   -0.296857
    57  H    0.203500
    58  H    0.149935
    59  C   -0.195092
    60  H    0.199251
    61  H    0.222313
    62  N   -0.772465
    63  H    0.398586
    64  H    0.462880
    65  H    0.396865
    66  O   -0.554833
    67  H    0.431124
 Sum of Mulliken charges =   1.00000

 Dipole moment (field-independent basis, Debye):
    X=             -0.4255    Y=             14.6709    Z=             -5.5598  Tot=             15.6949
 Quadrupole moment (field-independent basis, Debye-Ang):
   XX=           -112.5116   YY=           -113.3297   ZZ=           -117.7802
   XY=            -13.9759   XZ=            -29.0862   YZ=            -34.4652

 Normal termination of Gaussian 16 at Fri May 27 02:06:06 2022.
