 Gaussian 16, Revision C.01,
 Gaussian 16:  ES64L-G16RevC.01  3-Jul-2019

 ----------------------------------------------------------------------
 # B3LYP/6-31G* empiricaldispersion=gd3 guess=read geom=check nosymm in
 tegral(ultrafinegrid)
 ----------------------------------------------------------------------

 -----------------------------------------------------
 Candidate Structure: Conf:14 Charge calc in gas phase
 -----------------------------------------------------
 Structure from the checkpoint file:  "conf-14.chk"
 Charge =  1 Multiplicity = 1

                          Input orientation:
 ---------------------------------------------------------------------
 Center     Atomic      Atomic             Coordinates (Angstroms)
 Number     Number       Type             X           Y           Z
 ---------------------------------------------------------------------
      1          7           0       -7.473705    3.821896    2.380143
      2          1           0       -8.335562    3.878005    1.842478
      3          1           0       -6.994708    4.718436    2.308505
      4          6           0       -6.601662    2.784579    1.858932
      5          1           0       -6.976128    1.808484    2.193677
      6          6           0       -5.199277    3.017861    2.435717
      7          6           0       -6.479489    2.757310    0.300495
      8          1           0       -7.470817    2.541488   -0.119386
      9          1           0       -6.159000    3.742006   -0.047031
     10          8           0       -4.730595    4.155804    2.509602
     11          6           0       -5.452545    1.743711   -0.185288
     12          7           0       -5.767448    0.424632    0.064833
     13          1           0       -5.142145   -0.261605   -0.340708
     14          1           0       -6.734856    0.145996    0.162867
     15          8           0       -4.372871    2.068394   -0.657288
     16          7           0       -4.515392    1.904906    2.800351
     17          1           0       -4.886313    1.002092    2.529113
     18          6           0       -3.113163    1.957197    3.226629
     19          1           0       -2.996960    2.901851    3.768026
     20          6           0       -2.246133    1.997528    1.950464
     21          6           0       -2.743904    0.785218    4.152676
     22          1           0       -2.801727   -0.134027    3.551867
     23          8           0       -1.707233    0.985244    1.488887
     24          6           0       -3.728198    0.678020    5.334405
     25          1           0       -4.756323    0.650119    4.954116
     26          1           0       -3.657715    1.593580    5.939160
     27          6           0       -1.291771    0.952341    4.629299
     28          1           0       -1.197129    1.835366    5.274705
     29          1           0       -0.971808    0.081974    5.210336
     30          1           0       -0.604837    1.066350    3.787600
     31          6           0       -3.499333   -0.548652    6.224630
     32          1           0       -4.279730   -0.622330    6.989723
     33          1           0       -3.521893   -1.473490    5.634237
     34          1           0       -2.535712   -0.507924    6.742674
     35          7           0       -2.163045    3.216113    1.368657
     36          1           0       -2.766901    3.947122    1.737425
     37          6           0       -1.649088    3.382506    0.003726
     38          1           0       -1.913184    2.475359   -0.550320
     39          6           0       -0.113198    3.496234    0.037897
     40          6           0       -2.291227    4.593792   -0.659740
     41          1           0       -1.924861    4.698068   -1.684822
     42          1           0       -3.372905    4.446132   -0.688454
     43          1           0       -2.047880    5.514035   -0.120120
     44          8           0        0.475833    4.551574   -0.263369
     45          7           0        0.529204    2.367508    0.395472
     46          1           0       -0.050196    1.595593    0.737153
     47          6           0        1.979590    2.293764    0.584011
     48          1           0        2.308918    3.213177    1.084458
     49          6           0        2.638914    2.203049   -0.809351
     50          6           0        2.337984    1.095722    1.466785
     51          1           0        2.021076    0.181850    0.942505
     52          8           0        3.040542    1.139479   -1.296043
     53          6           0        3.836356    1.023775    1.757212
     54          1           0        4.406372    0.864568    0.838468
     55          1           0        4.044218    0.187073    2.434160
     56          1           0        4.173521    1.944946    2.245110
     57          8           0        1.587256    1.277449    2.669324
     58          1           0        1.686673    0.477825    3.208010
     59          7           0        2.688194    3.388728   -1.458615
     60          1           0        2.185158    4.145014   -0.993483
     61          6           0        2.795755    3.479692   -2.916878
     62          1           0        2.319192    2.586619   -3.343048
     63          6           0        4.265304    3.493717   -3.366733
     64          6           0        2.032083    4.720968   -3.406559
     65          1           0        2.157214    4.796931   -4.489530
     66          1           0        2.485330    5.622601   -2.968556
     67          8           0        4.754932    4.444188   -3.989048
     68          8           0        0.646899    4.624593   -3.140785
     69          1           0        0.490740    4.817560   -2.197038
     70          7           0        4.960704    2.377831   -3.045275
     71          1           0        4.467779    1.659560   -2.511398
     72          6           0        6.404634    2.283379   -3.220568
     73          1           0        6.863957    3.234450   -2.923456
     74          1           0        6.784484    1.487010   -2.580239
     75          6           0        6.838377    1.953329   -4.657574
     76          8           0        7.474523    0.941441   -4.943717
     77          7           0        6.474482    2.881758   -5.583890
     78          1           0        5.970862    3.712660   -5.267712
     79          6           0        6.875898    2.706874   -6.964636
     80          1           0        7.933079    2.397548   -6.960361
     81          6           0        6.812550    4.023150   -7.732681
     82          6           0        6.062261    1.601713   -7.670260
     83          1           0        5.939545    0.792629   -6.944717
     84          1           0        5.068802    1.990055   -7.924184
     85          8           0        6.554773    4.111540   -8.915762
     86          6           0        6.756831    1.055840   -8.922499
     87          1           0        6.905192    1.868406   -9.640186
     88          1           0        7.746675    0.668830   -8.643516
     89          6           0        5.939331   -0.070911   -9.573482
     90          1           0        4.947707    0.311464   -9.854026
     91          1           0        5.787393   -0.884424   -8.849930
     92          6           0        6.653048   -0.602082  -10.806843
     93          1           0        6.783278    0.163563  -11.575580
     94          1           0        7.625626   -1.041090  -10.571029
     95          7           0        5.834446   -1.723013  -11.462598
     96          1           0        6.290730   -2.104669  -12.300260
     97          1           0        4.905874   -1.380555  -11.738764
     98          1           0        5.687076   -2.497819  -10.803952
     99          8           0        7.105312    5.083075   -6.958801
    100          1           0        7.048177    5.878197   -7.522758
 ---------------------------------------------------------------------

 SCF Done:  E(RB3LYP) =  -2418.55716701     A.U. after    3 cycles

 Alpha  occ. eigenvalues --  -19.27578 -19.22093 -19.20026 -19.18350 -19.18133
 Alpha  occ. eigenvalues --  -19.17964 -19.17932 -19.17725 -19.17638 -19.17590
 Alpha  occ. eigenvalues --  -19.16983 -14.65032 -14.42221 -14.42126 -14.41714
 Alpha  occ. eigenvalues --  -14.41572 -14.41249 -14.41158 -14.40523 -14.36541
 Alpha  occ. eigenvalues --  -10.41770 -10.40270 -10.35349 -10.34849 -10.34746
 Alpha  occ. eigenvalues --  -10.34632 -10.34454 -10.34258 -10.34022 -10.33582
 Alpha  occ. eigenvalues --  -10.31735 -10.29765 -10.29563 -10.28946 -10.28797
 Alpha  occ. eigenvalues --  -10.28790 -10.28528 -10.28107 -10.27921 -10.27652
 Alpha  occ. eigenvalues --  -10.27587 -10.25573 -10.23800 -10.22704 -10.22336
 Alpha  occ. eigenvalues --  -10.21649 -10.21424 -10.21200  -1.18860  -1.18655
 Alpha  occ. eigenvalues --   -1.10365  -1.09878  -1.09774  -1.09597  -1.09394
 Alpha  occ. eigenvalues --   -1.09171  -1.08965  -1.08251  -1.07433  -1.05387
 Alpha  occ. eigenvalues --   -0.98944  -0.98567  -0.98504  -0.98005  -0.97421
 Alpha  occ. eigenvalues --   -0.96846  -0.96583  -0.95193  -0.94215  -0.88102
 Alpha  occ. eigenvalues --   -0.85776  -0.84400  -0.83365  -0.81972  -0.81550
 Alpha  occ. eigenvalues --   -0.81210  -0.79032  -0.78161  -0.77535  -0.77470
 Alpha  occ. eigenvalues --   -0.75793  -0.75484  -0.74880  -0.71132  -0.70818
 Alpha  occ. eigenvalues --   -0.69796  -0.69178  -0.68070  -0.67696  -0.67143
 Alpha  occ. eigenvalues --   -0.65820  -0.65105  -0.64626  -0.64158  -0.63570
 Alpha  occ. eigenvalues --   -0.63255  -0.63157  -0.62658  -0.62152  -0.60943
 Alpha  occ. eigenvalues --   -0.60598  -0.59935  -0.59299  -0.58764  -0.58323
 Alpha  occ. eigenvalues --   -0.57397  -0.56600  -0.56470  -0.56369  -0.55988
 Alpha  occ. eigenvalues --   -0.55642  -0.55253  -0.54378  -0.54332  -0.53620
 Alpha  occ. eigenvalues --   -0.53279  -0.53068  -0.52619  -0.52435  -0.52013
 Alpha  occ. eigenvalues --   -0.51827  -0.51817  -0.50101  -0.49952  -0.49548
 Alpha  occ. eigenvalues --   -0.49449  -0.48929  -0.48583  -0.48349  -0.47997
 Alpha  occ. eigenvalues --   -0.47715  -0.47669  -0.47309  -0.46998  -0.46874
 Alpha  occ. eigenvalues --   -0.46686  -0.46413  -0.46300  -0.45794  -0.45690
 Alpha  occ. eigenvalues --   -0.45247  -0.44797  -0.44759  -0.44496  -0.44359
 Alpha  occ. eigenvalues --   -0.44192  -0.43852  -0.43427  -0.43318  -0.42996
 Alpha  occ. eigenvalues --   -0.42757  -0.42471  -0.42411  -0.41997  -0.41912
 Alpha  occ. eigenvalues --   -0.41839  -0.41712  -0.41529  -0.40944  -0.40074
 Alpha  occ. eigenvalues --   -0.39741  -0.39685  -0.38111  -0.37365  -0.37016
 Alpha  occ. eigenvalues --   -0.36842  -0.36469  -0.35688  -0.34222  -0.34003
 Alpha  occ. eigenvalues --   -0.33764  -0.33554  -0.33233  -0.32865  -0.32491
 Alpha  occ. eigenvalues --   -0.32139  -0.31720  -0.31548  -0.31213  -0.30542
 Alpha  occ. eigenvalues --   -0.29886  -0.29707  -0.29475  -0.29055  -0.28362
 Alpha virt. eigenvalues --   -0.15439  -0.08746  -0.08682  -0.07332  -0.06249
 Alpha virt. eigenvalues --   -0.05227  -0.04713  -0.04549  -0.04375  -0.03716
 Alpha virt. eigenvalues --   -0.03333  -0.02660  -0.02292  -0.01277   0.00141

 Mulliken charges:
               1
     1  N   -0.708750
     2  H    0.301497
     3  H    0.326662
     4  C   -0.045589
     5  H    0.139272
     6  C    0.630030
     7  C   -0.371711
     8  H    0.153541
     9  H    0.189274
    10  O   -0.549327
    11  C    0.560156
    12  N   -0.740949
    13  H    0.351047
    14  H    0.339721
    15  O   -0.483245
    16  N   -0.597197
    17  H    0.343904
    18  C   -0.053701
    19  H    0.180740
    20  C    0.645521
    21  C   -0.089725
    22  H    0.136406
    23  O   -0.563316
    24  C   -0.252001
    25  H    0.133024
    26  H    0.138789
    27  C   -0.494378
    28  H    0.144061
    29  H    0.146631
    30  H    0.188203
    31  C   -0.449580
    32  H    0.151787
    33  H    0.139700
    34  H    0.152552
    35  N   -0.610299
    36  H    0.375669
    37  C   -0.049489
    38  H    0.203097
    39  C    0.641965
    40  C   -0.488150
    41  H    0.172081
    42  H    0.177925
    43  H    0.164247
    44  O   -0.578861
    45  N   -0.616786
    46  H    0.401182
    47  C   -0.050554
    48  H    0.182657
    49  C    0.634817
    50  C    0.118083
    51  H    0.148051
    52  O   -0.557579
    53  C   -0.473378
    54  H    0.168780
    55  H    0.145640
    56  H    0.159252
    57  O   -0.624529
    58  H    0.402125
    59  N   -0.613505
    60  H    0.375605
    61  C   -0.077507
    62  H    0.180374
    63  C    0.630062
    64  C   -0.058525
    65  H    0.157838
    66  H    0.149752
    67  O   -0.555259
    68  O   -0.655251
    69  H    0.431578
    70  N   -0.607190
    71  H    0.383711
    72  C   -0.236171
    73  H    0.192754
    74  H    0.185942
    75  C    0.598613
    76  O   -0.530973
    77  N   -0.631562
    78  H    0.392968
    79  C   -0.014026
    80  H    0.193242
    81  C    0.573836
    82  C   -0.262929
    83  H    0.177370
    84  H    0.151556
    85  O   -0.471583
    86  C   -0.288135
    87  H    0.189919
    88  H    0.160263
    89  C   -0.293623
    90  H    0.169670
    91  H    0.170715
    92  C   -0.207766
    93  H    0.232744
    94  H    0.230795
    95  N   -0.732041
    96  H    0.430971
    97  H    0.427555
    98  H    0.427754
    99  O   -0.544026
   100  H    0.425488
 Sum of Mulliken charges =   1.00000

 Dipole moment (field-independent basis, Debye):
    X=             16.8536    Y=             -8.0941    Z=            -43.1475  Tot=             47.0241
 Quadrupole moment (field-independent basis, Debye-Ang):
   XX=            -82.7632   YY=           -271.3419   ZZ=            252.8776
   XY=            -27.7765   XZ=           -266.4969   YZ=             73.4098

 Normal termination of Gaussian 16 at Mon Jun  6 02:57:59 2022.
