 Gaussian 16, Revision C.01,
 Gaussian 16:  ES64L-G16RevC.01  3-Jul-2019

 ----------------------------------------------------------------------
 # B3LYP/6-31G* empiricaldispersion=gd3 guess=read geom=check nosymm in
 tegral(ultrafinegrid)
 ----------------------------------------------------------------------

 ------------------------------------------------------
 Candidate Structure: Conf:553 Charge calc in gas phase
 ------------------------------------------------------
 Structure from the checkpoint file:  "conf-553.chk"
 Charge =  1 Multiplicity = 1

                          Input orientation:
 ---------------------------------------------------------------------
 Center     Atomic      Atomic             Coordinates (Angstroms)
 Number     Number       Type             X           Y           Z
 ---------------------------------------------------------------------
      1          7           0       -6.840637    2.210583    4.168550
      2          1           0       -6.596144    3.199713    4.240438
      3          1           0       -6.903830    1.875187    5.128845
      4          6           0       -5.741813    1.529908    3.480182
      5          1           0       -5.857401    0.450018    3.636156
      6          6           0       -4.366141    1.988647    3.992233
      7          6           0       -5.782437    1.821195    1.960658
      8          1           0       -5.793648    2.911077    1.820890
      9          1           0       -4.877606    1.443286    1.476243
     10          8           0       -4.200931    3.111297    4.461649
     11          6           0       -6.957581    1.213195    1.178785
     12          7           0       -8.153060    1.240140    1.819904
     13          1           0       -8.962478    0.873448    1.339503
     14          1           0       -8.216651    1.631054    2.757996
     15          8           0       -6.789638    0.769727    0.050200
     16          7           0       -3.351636    1.085985    3.836668
     17          1           0       -3.528451    0.230293    3.322601
     18          6           0       -1.952505    1.468371    3.956305
     19          1           0       -1.947150    2.514556    4.273242
     20          6           0       -1.338126    1.321200    2.563517
     21          6           0       -1.179860    0.605473    4.986009
     22          1           0       -1.204483   -0.427480    4.610871
     23          8           0       -1.510942    0.297722    1.897232
     24          6           0       -1.872102    0.611678    6.365663
     25          1           0       -1.298774   -0.056276    7.021849
     26          1           0       -2.864357    0.158882    6.257912
     27          6           0        0.290881    1.045990    5.065874
     28          1           0        0.380245    2.102497    5.346133
     29          1           0        0.822769    0.458813    5.821558
     30          1           0        0.813525    0.905795    4.113251
     31          6           0       -2.019034    1.986582    7.031224
     32          1           0       -2.469840    1.876464    8.023234
     33          1           0       -1.050601    2.481135    7.169931
     34          1           0       -2.666493    2.650899    6.449008
     35          7           0       -0.601739    2.365962    2.096828
     36          1           0       -0.451941    3.173989    2.686007
     37          6           0       -0.030535    2.358196    0.750879
     38          1           0       -0.751433    1.839453    0.109913
     39          6           0        1.280960    1.544583    0.751242
     40          6           0        0.180580    3.783951    0.253637
     41          1           0        0.522971    3.776524   -0.786634
     42          1           0       -0.760740    4.338593    0.291002
     43          1           0        0.926759    4.304597    0.863869
     44          8           0        2.406207    2.099228    0.748107
     45          7           0        1.136198    0.220917    0.792091
     46          1           0        0.194078   -0.175350    0.837624
     47          6           0        2.254701   -0.715729    0.913111
     48          1           0        2.998068   -0.277328    1.588220
     49          6           0        2.896221   -0.941486   -0.474973
     50          6           0        1.727866   -2.054513    1.483877
     51          1           0        2.569570   -2.762535    1.450823
     52          8           0        2.641391   -1.924987   -1.168300
     53          6           0        1.223277   -1.923888    2.915258
     54          1           0        1.997317   -1.520016    3.576684
     55          1           0        0.925757   -2.909760    3.281953
     56          1           0        0.343774   -1.274665    2.951338
     57          8           0        0.644081   -2.512364    0.693800
     58          1           0        1.018639   -2.709770   -0.185461
     59          7           0        3.763086    0.026473   -0.869749
     60          1           0        3.915061    0.826975   -0.267690
     61          6           0        4.476931   -0.063361   -2.126804
     62          1           0        4.813133   -1.095258   -2.270415
     63          6           0        5.650954    0.895198   -2.122049
     64          6           0        3.573389    0.294203   -3.353293
     65          1           0        3.150219    1.299451   -3.191165
     66          1           0        2.753930   -0.428393   -3.364379
     67          8           0        5.645460    1.952379   -1.462911
     68          8           0        4.275874    0.194564   -4.566763
     69          1           0        4.745007    1.041512   -4.715031
     70          7           0        6.661819    0.565269   -2.953387
     71          1           0        6.470527   -0.195152   -3.596599
     72          6           0        7.624407    1.565710   -3.369243
     73          1           0        8.166509    1.937690   -2.495261
     74          1           0        8.347920    1.096278   -4.041891
     75          6           0        6.916534    2.737676   -4.078971
     76          8           0        5.765034    2.633529   -4.512936
     77          7           0        7.625875    3.882125   -4.137963
     78          1           0        8.597336    3.910671   -3.847473
     79          6           0        7.071236    5.126057   -4.653541
     80          1           0        6.316619    4.873005   -5.402780
     81          6           0        8.203206    5.908050   -5.305494
     82          6           0        6.413770    5.986799   -3.536417
     83          1           0        7.196121    6.472980   -2.938517
     84          1           0        5.838930    6.783400   -4.021580
     85          8           0        9.377818    5.666784   -5.136015
     86          6           0        5.530189    5.134557   -2.620581
     87          1           0        4.868693    4.524528   -3.245587
     88          1           0        6.168353    4.425310   -2.081259
     89          6           0        4.700581    5.931053   -1.606127
     90          1           0        3.867051    6.439968   -2.108365
     91          1           0        5.304189    6.717814   -1.137478
     92          6           0        4.168425    5.040889   -0.479030
     93          1           0        4.970547    4.724541    0.192764
     94          1           0        3.399666    5.543978    0.112796
     95          7           0        3.564881    3.764088   -1.007410
     96          1           0        3.007759    3.251313   -0.271637
     97          1           0        4.310988    3.093693   -1.309098
     98          1           0        2.949483    3.943671   -1.804893
     99          8           0        7.728180    6.927233   -6.038724
    100          1           0        8.493174    7.417396   -6.398133
 ---------------------------------------------------------------------

 SCF Done:  E(RB3LYP) =  -2418.62031486     A.U. after    1 cycles

 Alpha  occ. eigenvalues --  -19.30222 -19.25805 -19.25286 -19.24748 -19.24373
 Alpha  occ. eigenvalues --  -19.23386 -19.22343 -19.22282 -19.21538 -19.19133
 Alpha  occ. eigenvalues --  -19.14492 -14.55444 -14.48940 -14.48176 -14.47745
 Alpha  occ. eigenvalues --  -14.47603 -14.46775 -14.43793 -14.39075 -14.38407
 Alpha  occ. eigenvalues --  -10.42835 -10.41958 -10.41454 -10.41318 -10.39331
 Alpha  occ. eigenvalues --  -10.39030 -10.37369 -10.35819 -10.35440 -10.35394
 Alpha  occ. eigenvalues --  -10.35162 -10.34203 -10.33667 -10.33395 -10.32621
 Alpha  occ. eigenvalues --  -10.32567 -10.32012 -10.31555 -10.30730 -10.30689
 Alpha  occ. eigenvalues --  -10.30346 -10.29742 -10.27252 -10.25708 -10.25252
 Alpha  occ. eigenvalues --  -10.25250 -10.24753 -10.23122  -1.21252  -1.17402
 Alpha  occ. eigenvalues --   -1.16402  -1.15753  -1.14289  -1.14187  -1.12486
 Alpha  occ. eigenvalues --   -1.11184  -1.10927  -1.10858  -1.09531  -1.06343
 Alpha  occ. eigenvalues --   -1.05353  -1.04770  -1.04344  -1.03574  -1.02979
 Alpha  occ. eigenvalues --   -1.00389  -0.96373  -0.93201  -0.93095  -0.90185
 Alpha  occ. eigenvalues --   -0.89812  -0.88663  -0.87985  -0.86372  -0.84482
 Alpha  occ. eigenvalues --   -0.82669  -0.82622  -0.80723  -0.80394  -0.78407
 Alpha  occ. eigenvalues --   -0.76900  -0.76586  -0.75366  -0.73575  -0.72367
 Alpha  occ. eigenvalues --   -0.72108  -0.71596  -0.71053  -0.70639  -0.70342
 Alpha  occ. eigenvalues --   -0.69428  -0.69297  -0.69024  -0.68176  -0.68086
 Alpha  occ. eigenvalues --   -0.66180  -0.65792  -0.64230  -0.63347  -0.63222
 Alpha  occ. eigenvalues --   -0.62480  -0.62384  -0.62063  -0.61567  -0.61103
 Alpha  occ. eigenvalues --   -0.60959  -0.60000  -0.59786  -0.59402  -0.59118
 Alpha  occ. eigenvalues --   -0.58324  -0.58250  -0.57919  -0.57698  -0.57147
 Alpha  occ. eigenvalues --   -0.56990  -0.56522  -0.56195  -0.55958  -0.55055
 Alpha  occ. eigenvalues --   -0.54638  -0.54460  -0.54282  -0.53999  -0.53774
 Alpha  occ. eigenvalues --   -0.53209  -0.52812  -0.52502  -0.52183  -0.51912
 Alpha  occ. eigenvalues --   -0.51595  -0.51573  -0.51428  -0.51032  -0.50556
 Alpha  occ. eigenvalues --   -0.50489  -0.50305  -0.50130  -0.49762  -0.49504
 Alpha  occ. eigenvalues --   -0.49093  -0.48518  -0.48329  -0.48023  -0.47941
 Alpha  occ. eigenvalues --   -0.47283  -0.47098  -0.46592  -0.46567  -0.46331
 Alpha  occ. eigenvalues --   -0.46166  -0.46010  -0.45668  -0.45199  -0.45178
 Alpha  occ. eigenvalues --   -0.44723  -0.44340  -0.43888  -0.43393  -0.42820
 Alpha  occ. eigenvalues --   -0.42704  -0.42325  -0.41357  -0.40654  -0.40541
 Alpha  occ. eigenvalues --   -0.40325  -0.39648  -0.39578  -0.39452  -0.39361
 Alpha  occ. eigenvalues --   -0.39186  -0.38689  -0.38225  -0.37493  -0.37386
 Alpha  occ. eigenvalues --   -0.36659  -0.36102  -0.35491  -0.34722  -0.34211
 Alpha  occ. eigenvalues --   -0.33942  -0.32830  -0.31564  -0.29916  -0.28325
 Alpha virt. eigenvalues --   -0.11696  -0.11307  -0.10186  -0.09529  -0.08953
 Alpha virt. eigenvalues --   -0.08464  -0.07874  -0.04913  -0.03605  -0.03031
 Alpha virt. eigenvalues --   -0.02287  -0.01960  -0.01622  -0.01347  -0.00840

 Mulliken charges:
               1
     1  N   -0.720671
     2  H    0.327602
     3  H    0.319122
     4  C   -0.092286
     5  H    0.159061
     6  C    0.598333
     7  C   -0.356624
     8  H    0.173374
     9  H    0.165480
    10  O   -0.524185
    11  C    0.577276
    12  N   -0.751160
    13  H    0.337839
    14  H    0.377007
    15  O   -0.511691
    16  N   -0.598942
    17  H    0.350759
    18  C   -0.056736
    19  H    0.178376
    20  C    0.637213
    21  C   -0.088064
    22  H    0.148986
    23  O   -0.544650
    24  C   -0.253614
    25  H    0.143171
    26  H    0.146326
    27  C   -0.474844
    28  H    0.144713
    29  H    0.167056
    30  H    0.139693
    31  C   -0.479776
    32  H    0.157540
    33  H    0.140386
    34  H    0.181154
    35  N   -0.597795
    36  H    0.347826
    37  C   -0.043751
    38  H    0.206041
    39  C    0.638808
    40  C   -0.489022
    41  H    0.143801
    42  H    0.197748
    43  H    0.160456
    44  O   -0.606852
    45  N   -0.589883
    46  H    0.408322
    47  C   -0.073080
    48  H    0.175691
    49  C    0.636633
    50  C    0.103703
    51  H    0.149015
    52  O   -0.526301
    53  C   -0.472021
    54  H    0.144120
    55  H    0.182042
    56  H    0.175318
    57  O   -0.631751
    58  H    0.424510
    59  N   -0.636365
    60  H    0.354726
    61  C   -0.056139
    62  H    0.201918
    63  C    0.617679
    64  C   -0.030175
    65  H    0.098264
    66  H    0.201425
    67  O   -0.583161
    68  O   -0.639058
    69  H    0.436817
    70  N   -0.554709
    71  H    0.368167
    72  C   -0.256186
    73  H    0.207457
    74  H    0.215910
    75  C    0.645192
    76  O   -0.547907
    77  N   -0.598003
    78  H    0.361158
    79  C   -0.048500
    80  H    0.214286
    81  C    0.589852
    82  C   -0.275192
    83  H    0.160841
    84  H    0.179833
    85  O   -0.453831
    86  C   -0.303489
    87  H    0.159220
    88  H    0.169026
    89  C   -0.288563
    90  H    0.165076
    91  H    0.183134
    92  C   -0.184445
    93  H    0.212587
    94  H    0.198406
    95  N   -0.828748
    96  H    0.454316
    97  H    0.446998
    98  H    0.384261
    99  O   -0.556382
   100  H    0.433507
 Sum of Mulliken charges =   1.00000

 Dipole moment (field-independent basis, Debye):
    X=             20.8043    Y=             19.0194    Z=             -1.0946  Tot=             28.2091
 Quadrupole moment (field-independent basis, Debye-Ang):
   XX=           -136.5387   YY=           -188.5598   ZZ=           -227.0646
   XY=             79.0750   XZ=            -86.4214   YZ=            -43.8086

 Normal termination of Gaussian 16 at Mon Jun  6 02:57:35 2022.
