 Gaussian 16, Revision C.01,
 Gaussian 16:  ES64L-G16RevC.01  3-Jul-2019

 ----------------------------------------------------------------------
 # B3LYP/6-31G* empiricaldispersion=gd3 guess=read geom=check nosymm in
 tegral(ultrafinegrid)
 ----------------------------------------------------------------------

 ------------------------------------------------------
 Candidate Structure: Conf:302 Charge calc in gas phase
 ------------------------------------------------------
 Structure from the checkpoint file:  "conf-302.chk"
 Charge =  1 Multiplicity = 1

                          Input orientation:
 ---------------------------------------------------------------------
 Center     Atomic      Atomic             Coordinates (Angstroms)
 Number     Number       Type             X           Y           Z
 ---------------------------------------------------------------------
      1          7           0       -4.265622   -3.418279    4.898439
      2          1           0       -3.912741   -4.055040    5.609481
      3          1           0       -4.738128   -3.972394    4.186477
      4          6           0       -3.191078   -2.643097    4.295280
      5          1           0       -2.747143   -2.014591    5.076392
      6          6           0       -3.830772   -1.757491    3.218522
      7          6           0       -2.066046   -3.516337    3.648751
      8          1           0       -1.682647   -4.181161    4.432378
      9          1           0       -2.527166   -4.141709    2.880541
     10          8           0       -4.227453   -2.263111    2.160421
     11          6           0       -0.887705   -2.784526    3.007200
     12          7           0        0.004947   -2.220223    3.823167
     13          1           0        0.764268   -1.654426    3.428763
     14          1           0       -0.129435   -2.216953    4.823885
     15          8           0       -0.738754   -2.744767    1.764861
     16          7           0       -3.922872   -0.430330    3.469417
     17          1           0       -3.416590   -0.107203    4.284983
     18          6           0       -3.879564    0.511769    2.343963
     19          1           0       -4.685735    0.254454    1.650616
     20          6           0       -2.501281    0.276866    1.692353
     21          6           0       -4.046860    1.967245    2.838095
     22          1           0       -3.289271    2.125410    3.622042
     23          8           0       -1.548150   -0.040671    2.394066
     24          6           0       -5.447025    2.162084    3.454508
     25          1           0       -5.657918    1.326094    4.132645
     26          1           0       -6.194913    2.099019    2.650936
     27          6           0       -3.757354    2.966068    1.705909
     28          1           0       -4.442478    2.808839    0.860933
     29          1           0       -3.904052    3.991687    2.052861
     30          1           0       -2.727369    2.893023    1.341227
     31          6           0       -5.614247    3.479491    4.219279
     32          1           0       -6.603409    3.529088    4.685797
     33          1           0       -4.865431    3.571348    5.015476
     34          1           0       -5.516691    4.352843    3.566412
     35          7           0       -2.408305    0.358597    0.335924
     36          1           0       -3.125796    0.866388   -0.166974
     37          6           0       -1.122145    0.143007   -0.333477
     38          1           0       -0.935806   -0.936477   -0.365572
     39          6           0        0.079434    0.794085    0.388439
     40          6           0       -1.170235    0.700591   -1.754484
     41          1           0       -0.212591    0.537256   -2.251639
     42          1           0       -1.961137    0.221227   -2.345195
     43          1           0       -1.343535    1.780031   -1.716434
     44          8           0        0.238859    2.006329    0.391021
     45          7           0        0.992120   -0.096256    0.864626
     46          1           0        0.733574   -1.074069    0.909498
     47          6           0        2.389910    0.255024    0.954240
     48          1           0        2.500701    1.173792    1.539900
     49          6           0        2.916975    0.477466   -0.485408
     50          6           0        3.157894   -0.885460    1.653378
     51          1           0        3.017483   -1.801231    1.056826
     52          8           0        2.346868   -0.038534   -1.449088
     53          6           0        4.650550   -0.627937    1.829038
     54          1           0        5.170735   -0.625011    0.868362
     55          1           0        5.092425   -1.433604    2.428825
     56          1           0        4.822139    0.316389    2.359248
     57          8           0        2.523231   -1.047414    2.939671
     58          1           0        3.113031   -1.601538    3.475525
     59          7           0        4.020080    1.244710   -0.629733
     60          1           0        4.572930    1.482217    0.185076
     61          6           0        4.745393    1.206499   -1.888342
     62          1           0        4.107817    1.635370   -2.670390
     63          6           0        5.064401   -0.267042   -2.250961
     64          6           0        6.005970    2.067117   -1.767520
     65          1           0        5.707365    3.124995   -1.710413
     66          1           0        6.617799    1.929505   -2.670719
     67          8           0        5.296781   -1.113358   -1.399398
     68          8           0        6.686805    1.655402   -0.590226
     69          1           0        7.475456    2.206987   -0.477409
     70          7           0        5.039218   -0.536605   -3.589391
     71          1           0        4.685825    0.178052   -4.212625
     72          6           0        5.036026   -1.902784   -4.090630
     73          1           0        5.577672   -1.964336   -5.037608
     74          1           0        5.558068   -2.526765   -3.361431
     75          6           0        3.638820   -2.506400   -4.325525
     76          8           0        3.513318   -3.532358   -4.981808
     77          7           0        2.604057   -1.830551   -3.757683
     78          1           0        2.760193   -1.025650   -3.159545
     79          6           0        1.231236   -2.257193   -3.891139
     80          1           0        1.199848   -3.040878   -4.655038
     81          6           0        0.408036   -1.076374   -4.399656
     82          6           0        0.730185   -2.840813   -2.544806
     83          1           0        1.347860   -3.729897   -2.368614
     84          1           0        0.979639   -2.123764   -1.753025
     85          8           0        0.784219    0.072478   -4.452066
     86          6           0       -0.754885   -3.221718   -2.453913
     87          1           0       -1.352867   -2.305437   -2.354064
     88          1           0       -1.096459   -3.688860   -3.384102
     89          6           0       -1.000320   -4.180476   -1.274165
     90          1           0       -0.348874   -3.925836   -0.428540
     91          1           0       -0.725596   -5.198360   -1.573147
     92          6           0       -2.442716   -4.211254   -0.766092
     93          1           0       -3.173040   -4.305163   -1.574638
     94          1           0       -2.596962   -5.033838   -0.062893
     95          7           0       -2.745861   -2.953464    0.000854
     96          1           0       -3.621196   -2.962309    0.547505
     97          1           0       -2.764549   -2.118961   -0.589816
     98          1           0       -1.988598   -2.812173    0.734511
     99          8           0       -0.831664   -1.458459   -4.796763
    100          1           0       -1.269737   -0.654839   -5.137043
 ---------------------------------------------------------------------

 SCF Done:  E(RB3LYP) =  -2418.60374895     A.U. after    2 cycles

 Alpha  occ. eigenvalues --  -19.28011 -19.25357 -19.24197 -19.23948 -19.23792
 Alpha  occ. eigenvalues --  -19.22143 -19.21996 -19.21153 -19.19561 -19.19311
 Alpha  occ. eigenvalues --  -19.17200 -14.53683 -14.46886 -14.46874 -14.46329
 Alpha  occ. eigenvalues --  -14.44752 -14.44356 -14.43237 -14.42276 -14.41930
 Alpha  occ. eigenvalues --  -10.41171 -10.40388 -10.40025 -10.38869 -10.37663
 Alpha  occ. eigenvalues --  -10.36769 -10.36536 -10.35769 -10.34987 -10.34455
 Alpha  occ. eigenvalues --  -10.33957 -10.33428 -10.33007 -10.32933 -10.32228
 Alpha  occ. eigenvalues --  -10.32040 -10.31350 -10.31095 -10.29780 -10.29524
 Alpha  occ. eigenvalues --  -10.29021 -10.28538 -10.27533 -10.27064 -10.26322
 Alpha  occ. eigenvalues --  -10.26257 -10.25854 -10.24701  -1.18773  -1.15849
 Alpha  occ. eigenvalues --   -1.15001  -1.14179  -1.13444  -1.12288  -1.11579
 Alpha  occ. eigenvalues --   -1.10949  -1.10886  -1.09859  -1.09313  -1.09212
 Alpha  occ. eigenvalues --   -1.03642  -1.02787  -1.01746  -1.01318  -1.00703
 Alpha  occ. eigenvalues --   -1.00361  -0.99804  -0.98798  -0.90752  -0.90617
 Alpha  occ. eigenvalues --   -0.88017  -0.86929  -0.86336  -0.86001  -0.84682
 Alpha  occ. eigenvalues --   -0.82661  -0.81337  -0.79838  -0.79439  -0.78819
 Alpha  occ. eigenvalues --   -0.76416  -0.74473  -0.74082  -0.73142  -0.72151
 Alpha  occ. eigenvalues --   -0.71531  -0.70892  -0.70161  -0.69480  -0.69154
 Alpha  occ. eigenvalues --   -0.68256  -0.67795  -0.67386  -0.66734  -0.66393
 Alpha  occ. eigenvalues --   -0.65873  -0.65565  -0.65339  -0.64606  -0.63571
 Alpha  occ. eigenvalues --   -0.63050  -0.61896  -0.61504  -0.60882  -0.60800
 Alpha  occ. eigenvalues --   -0.60038  -0.59341  -0.59049  -0.58937  -0.58207
 Alpha  occ. eigenvalues --   -0.57508  -0.57266  -0.56710  -0.56512  -0.56177
 Alpha  occ. eigenvalues --   -0.56140  -0.55570  -0.54924  -0.54731  -0.54474
 Alpha  occ. eigenvalues --   -0.54339  -0.54122  -0.53537  -0.53096  -0.52825
 Alpha  occ. eigenvalues --   -0.52358  -0.52277  -0.52124  -0.51145  -0.50904
 Alpha  occ. eigenvalues --   -0.50694  -0.50657  -0.50350  -0.50184  -0.49983
 Alpha  occ. eigenvalues --   -0.49752  -0.49364  -0.49157  -0.48935  -0.48776
 Alpha  occ. eigenvalues --   -0.48591  -0.47918  -0.47683  -0.47619  -0.47259
 Alpha  occ. eigenvalues --   -0.46925  -0.46790  -0.46684  -0.46336  -0.46222
 Alpha  occ. eigenvalues --   -0.46068  -0.45536  -0.45144  -0.44993  -0.44820
 Alpha  occ. eigenvalues --   -0.44466  -0.44317  -0.43796  -0.43618  -0.42883
 Alpha  occ. eigenvalues --   -0.42489  -0.42275  -0.41745  -0.41579  -0.41055
 Alpha  occ. eigenvalues --   -0.40977  -0.39880  -0.39220  -0.38472  -0.38021
 Alpha  occ. eigenvalues --   -0.37728  -0.37495  -0.36694  -0.36622  -0.35827
 Alpha  occ. eigenvalues --   -0.35523  -0.35462  -0.35121  -0.35003  -0.33975
 Alpha  occ. eigenvalues --   -0.32993  -0.32644  -0.32538  -0.31755  -0.30454
 Alpha virt. eigenvalues --   -0.10898  -0.10024  -0.08384  -0.07776  -0.07481
 Alpha virt. eigenvalues --   -0.06699  -0.06050  -0.05664  -0.04048  -0.03303
 Alpha virt. eigenvalues --   -0.02585  -0.02267  -0.01870  -0.01484  -0.01110

 Mulliken charges:
               1
     1  N   -0.699033
     2  H    0.318770
     3  H    0.320761
     4  C   -0.057056
     5  H    0.145925
     6  C    0.663892
     7  C   -0.384139
     8  H    0.174906
     9  H    0.161558
    10  O   -0.586854
    11  C    0.652688
    12  N   -0.748186
    13  H    0.421142
    14  H    0.347267
    15  O   -0.590487
    16  N   -0.564772
    17  H    0.346026
    18  C   -0.061569
    19  H    0.170138
    20  C    0.621448
    21  C   -0.095658
    22  H    0.141802
    23  O   -0.535465
    24  C   -0.260068
    25  H    0.154304
    26  H    0.140562
    27  C   -0.492372
    28  H    0.136982
    29  H    0.180096
    30  H    0.182301
    31  C   -0.452984
    32  H    0.164003
    33  H    0.148769
    34  H    0.157530
    35  N   -0.634759
    36  H    0.344411
    37  C   -0.032882
    38  H    0.126040
    39  C    0.664088
    40  C   -0.515829
    41  H    0.226345
    42  H    0.126683
    43  H    0.191974
    44  O   -0.527291
    45  N   -0.607208
    46  H    0.354456
    47  C   -0.052577
    48  H    0.190839
    49  C    0.652366
    50  C    0.123951
    51  H    0.148536
    52  O   -0.544435
    53  C   -0.528514
    54  H    0.232919
    55  H    0.151763
    56  H    0.156938
    57  O   -0.640692
    58  H    0.407088
    59  N   -0.592348
    60  H    0.362178
    61  C   -0.063735
    62  H    0.179733
    63  C    0.611442
    64  C   -0.059471
    65  H    0.158252
    66  H    0.158027
    67  O   -0.504737
    68  O   -0.616325
    69  H    0.416037
    70  N   -0.602299
    71  H    0.341472
    72  C   -0.235737
    73  H    0.195958
    74  H    0.223226
    75  C    0.591263
    76  O   -0.512627
    77  N   -0.620241
    78  H    0.391719
    79  C   -0.058240
    80  H    0.210509
    81  C    0.594178
    82  C   -0.295799
    83  H    0.172281
    84  H    0.172048
    85  O   -0.460837
    86  C   -0.275779
    87  H    0.121443
    88  H    0.173557
    89  C   -0.304876
    90  H    0.183117
    91  H    0.183012
    92  C   -0.185966
    93  H    0.198356
    94  H    0.194990
    95  N   -0.805155
    96  H    0.431368
    97  H    0.391983
    98  H    0.456443
    99  O   -0.571105
   100  H    0.416249
 Sum of Mulliken charges =   1.00000

 Dipole moment (field-independent basis, Debye):
    X=             -3.9131    Y=             -5.6336    Z=              6.6111  Tot=              9.5266
 Quadrupole moment (field-independent basis, Debye-Ang):
   XX=           -194.8959   YY=           -239.4353   ZZ=           -225.4004
   XY=             42.7750   XZ=             -7.2105   YZ=            -34.7191

 Normal termination of Gaussian 16 at Mon Jun  6 02:58:29 2022.
