 Gaussian 16, Revision C.01,
 Gaussian 16:  ES64L-G16RevC.01  3-Jul-2019

 ----------------------------------------------------------------------
 # B3LYP/6-31G* empiricaldispersion=gd3 guess=read geom=check nosymm in
 tegral(ultrafinegrid)
 ----------------------------------------------------------------------

 ------------------------------------------------------
 Candidate Structure: Conf:962 Charge calc in gas phase
 ------------------------------------------------------
 Structure from the checkpoint file:  "conf-962.chk"
 Charge =  1 Multiplicity = 1

                          Input orientation:
 ---------------------------------------------------------------------
 Center     Atomic      Atomic             Coordinates (Angstroms)
 Number     Number       Type             X           Y           Z
 ---------------------------------------------------------------------
      1          7           0       -4.831158    1.534031   -1.507040
      2          1           0       -5.327841    1.286146   -2.359728
      3          1           0       -5.451250    2.136364   -0.966743
      4          6           0       -3.604632    2.243067   -1.866416
      5          1           0       -3.184461    1.720513   -2.734954
      6          6           0       -2.549599    2.122708   -0.764974
      7          6           0       -3.798311    3.709576   -2.281591
      8          1           0       -4.324253    4.262178   -1.491005
      9          1           0       -2.824616    4.198282   -2.406910
     10          8           0       -1.473818    2.763796   -0.818455
     11          6           0       -4.571295    3.781140   -3.602805
     12          7           0       -5.079120    5.002183   -3.917544
     13          1           0       -5.600155    5.099025   -4.778611
     14          1           0       -5.015204    5.798093   -3.300659
     15          8           0       -4.697517    2.802828   -4.330464
     16          7           0       -2.838277    1.282922    0.226885
     17          1           0       -3.709113    0.756355    0.150861
     18          6           0       -1.904028    0.956208    1.294132
     19          1           0       -0.901655    1.133669    0.895135
     20          6           0       -2.102043   -0.537651    1.605195
     21          6           0       -2.105710    1.865854    2.539984
     22          1           0       -1.996826    2.889781    2.154114
     23          8           0       -3.219486   -1.042540    1.576573
     24          6           0       -1.015186    1.647740    3.607708
     25          1           0       -1.071930    0.619614    3.990566
     26          1           0       -1.257380    2.293866    4.460321
     27          6           0       -3.509398    1.717242    3.141650
     28          1           0       -3.667372    0.713458    3.548411
     29          1           0       -3.650604    2.441254    3.950951
     30          1           0       -4.287557    1.895366    2.392461
     31          6           0        0.416910    1.961168    3.153884
     32          1           0        1.112078    1.904333    3.997402
     33          1           0        0.788489    1.263050    2.393137
     34          1           0        0.481677    2.970246    2.729293
     35          7           0       -0.946468   -1.202947    1.865910
     36          1           0       -0.116046   -0.660525    2.074939
     37          6           0       -0.821971   -2.608549    2.260514
     38          1           0       -1.185003   -2.737493    3.291527
     39          6           0        0.705106   -2.835020    2.284811
     40          6           0       -1.593179   -3.556454    1.336326
     41          1           0       -1.522560   -4.588076    1.697842
     42          1           0       -2.645684   -3.275384    1.323621
     43          1           0       -1.208872   -3.504159    0.311829
     44          8           0        1.455046   -1.919593    2.661113
     45          7           0        1.171024   -4.016818    1.841521
     46          1           0        0.556296   -4.699978    1.410886
     47          6           0        2.593207   -4.283816    1.613320
     48          1           0        3.167208   -3.897589    2.461191
     49          6           0        2.981682   -3.536540    0.319992
     50          6           0        2.782842   -5.808976    1.459372
     51          1           0        3.805478   -5.977882    1.093120
     52          8           0        3.025392   -4.103880   -0.778947
     53          6           0        2.575104   -6.553022    2.770451
     54          1           0        3.309820   -6.238839    3.519087
     55          1           0        2.683397   -7.626895    2.598581
     56          1           0        1.571569   -6.369510    3.167483
     57          8           0        1.827942   -6.302199    0.523089
     58          1           0        2.082284   -5.928692   -0.341209
     59          7           0        3.191789   -2.206090    0.475268
     60          1           0        2.977594   -1.850151    1.407218
     61          6           0        3.044775   -1.250627   -0.623973
     62          1           0        2.246783   -1.602583   -1.294177
     63          6           0        4.287967   -1.105043   -1.527401
     64          6           0        2.630500    0.103908   -0.012049
     65          1           0        3.361718    0.398264    0.754755
     66          1           0        1.656179   -0.007696    0.470962
     67          8           0        4.709553    0.017391   -1.863243
     68          8           0        2.515999    1.111379   -1.008136
     69          1           0        3.398396    1.082940   -1.457400
     70          7           0        4.816802   -2.241070   -2.007848
     71          1           0        4.291380   -3.100275   -1.844111
     72          6           0        5.709491   -2.162360   -3.156630
     73          1           0        6.593734   -1.574698   -2.895184
     74          1           0        6.025952   -3.176070   -3.413292
     75          6           0        4.934076   -1.560532   -4.345715
     76          8           0        3.805422   -1.957126   -4.614431
     77          7           0        5.568216   -0.569124   -5.020555
     78          1           0        6.461776   -0.234617   -4.688334
     79          6           0        4.930256    0.169257   -6.099165
     80          1           0        4.199942   -0.505465   -6.558652
     81          6           0        5.913174    0.562436   -7.199902
     82          6           0        4.195361    1.436044   -5.595495
     83          1           0        4.892138    2.002184   -4.961513
     84          1           0        3.961595    2.063679   -6.462124
     85          8           0        5.583562    1.173033   -8.188965
     86          6           0        2.914569    1.118893   -4.814089
     87          1           0        2.160385    0.716925   -5.503320
     88          1           0        3.104855    0.337121   -4.074717
     89          6           0        2.366223    2.348177   -4.077625
     90          1           0        2.292863    3.211568   -4.751686
     91          1           0        3.084120    2.626229   -3.293116
     92          6           0        0.998239    2.068486   -3.442861
     93          1           0        0.171497    2.289680   -4.122295
     94          1           0        0.920482    1.028737   -3.119611
     95          7           0        0.804955    2.881524   -2.191069
     96          1           0       -0.175597    2.831576   -1.797604
     97          1           0        1.039656    3.866444   -2.338337
     98          1           0        1.441483    2.477721   -1.472623
     99          8           0        7.186085    0.184681   -6.941783
    100          1           0        7.726828    0.488572   -7.696162
 ---------------------------------------------------------------------

 SCF Done:  E(RB3LYP) =  -2418.61723098     A.U. after    2 cycles

 Alpha  occ. eigenvalues --  -19.28091 -19.26463 -19.23823 -19.23240 -19.22983
 Alpha  occ. eigenvalues --  -19.22682 -19.22538 -19.21850 -19.20627 -19.19861
 Alpha  occ. eigenvalues --  -19.19624 -14.53975 -14.47138 -14.46977 -14.45644
 Alpha  occ. eigenvalues --  -14.45632 -14.45266 -14.44816 -14.44234 -14.41078
 Alpha  occ. eigenvalues --  -10.40291 -10.40108 -10.39875 -10.39572 -10.38957
 Alpha  occ. eigenvalues --  -10.37873 -10.37727 -10.37299 -10.35493 -10.35230
 Alpha  occ. eigenvalues --  -10.34774 -10.33549 -10.33540 -10.32974 -10.32475
 Alpha  occ. eigenvalues --  -10.32193 -10.32079 -10.32056 -10.30272 -10.29009
 Alpha  occ. eigenvalues --  -10.27881 -10.27850 -10.27803 -10.26804 -10.26514
 Alpha  occ. eigenvalues --  -10.26140 -10.25418 -10.24699  -1.18783  -1.15884
 Alpha  occ. eigenvalues --   -1.15273  -1.14522  -1.13874  -1.13001  -1.12444
 Alpha  occ. eigenvalues --   -1.11711  -1.11687  -1.10369  -1.09750  -1.09263
 Alpha  occ. eigenvalues --   -1.04109  -1.03143  -1.02605  -1.02021  -1.01804
 Alpha  occ. eigenvalues --   -1.01333  -0.98909  -0.98218  -0.90883  -0.89961
 Alpha  occ. eigenvalues --   -0.88942  -0.87154  -0.86496  -0.85260  -0.85073
 Alpha  occ. eigenvalues --   -0.82538  -0.82447  -0.80290  -0.80022  -0.79507
 Alpha  occ. eigenvalues --   -0.76271  -0.75526  -0.74860  -0.74506  -0.71467
 Alpha  occ. eigenvalues --   -0.71210  -0.70585  -0.69894  -0.69220  -0.68886
 Alpha  occ. eigenvalues --   -0.68571  -0.68232  -0.68062  -0.67023  -0.66798
 Alpha  occ. eigenvalues --   -0.66556  -0.66162  -0.65024  -0.64338  -0.63716
 Alpha  occ. eigenvalues --   -0.62867  -0.62601  -0.61846  -0.61320  -0.61205
 Alpha  occ. eigenvalues --   -0.59878  -0.59784  -0.59148  -0.58443  -0.58122
 Alpha  occ. eigenvalues --   -0.57931  -0.57461  -0.57055  -0.56892  -0.56592
 Alpha  occ. eigenvalues --   -0.56063  -0.55995  -0.55479  -0.55187  -0.54747
 Alpha  occ. eigenvalues --   -0.54167  -0.53985  -0.53751  -0.53447  -0.53331
 Alpha  occ. eigenvalues --   -0.52975  -0.52338  -0.51815  -0.51769  -0.51432
 Alpha  occ. eigenvalues --   -0.51246  -0.50858  -0.50668  -0.50253  -0.50203
 Alpha  occ. eigenvalues --   -0.49980  -0.49844  -0.49614  -0.49326  -0.48841
 Alpha  occ. eigenvalues --   -0.48608  -0.48296  -0.47847  -0.47692  -0.47523
 Alpha  occ. eigenvalues --   -0.47388  -0.47202  -0.46953  -0.46710  -0.46564
 Alpha  occ. eigenvalues --   -0.46383  -0.46088  -0.45661  -0.45319  -0.45214
 Alpha  occ. eigenvalues --   -0.44761  -0.44733  -0.44491  -0.43868  -0.43573
 Alpha  occ. eigenvalues --   -0.43417  -0.42646  -0.41924  -0.41694  -0.41335
 Alpha  occ. eigenvalues --   -0.40583  -0.39705  -0.39649  -0.39180  -0.38560
 Alpha  occ. eigenvalues --   -0.37427  -0.37248  -0.36938  -0.36504  -0.36379
 Alpha  occ. eigenvalues --   -0.36086  -0.35470  -0.35404  -0.34850  -0.34339
 Alpha  occ. eigenvalues --   -0.33926  -0.33914  -0.33643  -0.33328  -0.32726
 Alpha virt. eigenvalues --   -0.10599  -0.09512  -0.08789  -0.08294  -0.07265
 Alpha virt. eigenvalues --   -0.06774  -0.06244  -0.06021  -0.05270  -0.03911
 Alpha virt. eigenvalues --   -0.02661  -0.01196  -0.00873  -0.00352  -0.00215

 Mulliken charges:
               1
     1  N   -0.747291
     2  H    0.346460
     3  H    0.312179
     4  C   -0.062260
     5  H    0.191836
     6  C    0.632330
     7  C   -0.383609
     8  H    0.160397
     9  H    0.174282
    10  O   -0.621374
    11  C    0.610627
    12  N   -0.749289
    13  H    0.358335
    14  H    0.346112
    15  O   -0.505949
    16  N   -0.587347
    17  H    0.391931
    18  C   -0.054588
    19  H    0.152270
    20  C    0.637071
    21  C   -0.077534
    22  H    0.143332
    23  O   -0.524058
    24  C   -0.271751
    25  H    0.144581
    26  H    0.157827
    27  C   -0.458170
    28  H    0.170851
    29  H    0.156228
    30  H    0.145414
    31  C   -0.460204
    32  H    0.169161
    33  H    0.125750
    34  H    0.151542
    35  N   -0.665587
    36  H    0.376360
    37  C   -0.005214
    38  H    0.196911
    39  C    0.609359
    40  C   -0.497546
    41  H    0.164775
    42  H    0.226444
    43  H    0.156869
    44  O   -0.566087
    45  N   -0.604179
    46  H    0.371231
    47  C   -0.078811
    48  H    0.190724
    49  C    0.630799
    50  C    0.106820
    51  H    0.151294
    52  O   -0.552855
    53  C   -0.451101
    54  H    0.155575
    55  H    0.184636
    56  H    0.157960
    57  O   -0.638164
    58  H    0.423094
    59  N   -0.615732
    60  H    0.388060
    61  C   -0.092131
    62  H    0.200767
    63  C    0.653317
    64  C   -0.070310
    65  H    0.167010
    66  H    0.163941
    67  O   -0.578401
    68  O   -0.687153
    69  H    0.453874
    70  N   -0.577099
    71  H    0.395321
    72  C   -0.238064
    73  H    0.181387
    74  H    0.200506
    75  C    0.626199
    76  O   -0.527449
    77  N   -0.586131
    78  H    0.346202
    79  C   -0.064507
    80  H    0.217988
    81  C    0.590094
    82  C   -0.269147
    83  H    0.143321
    84  H    0.181913
    85  O   -0.446896
    86  C   -0.278177
    87  H    0.160181
    88  H    0.176197
    89  C   -0.298949
    90  H    0.165135
    91  H    0.151088
    92  C   -0.175657
    93  H    0.199695
    94  H    0.204466
    95  N   -0.783599
    96  H    0.439099
    97  H    0.384204
    98  H    0.426270
    99  O   -0.571665
   100  H    0.426432
 Sum of Mulliken charges =   1.00000

 Dipole moment (field-independent basis, Debye):
    X=              6.0924    Y=              7.4325    Z=             -4.5914  Tot=             10.6508
 Quadrupole moment (field-independent basis, Debye-Ang):
   XX=           -191.2027   YY=           -206.5920   ZZ=           -251.9032
   XY=            -46.3085   XZ=            -22.6558   YZ=            -41.4265

 Normal termination of Gaussian 16 at Mon Jun  6 03:06:11 2022.
