 Gaussian 16, Revision C.01,
 Gaussian 16:  ES64L-G16RevC.01  3-Jul-2019

 ----------------------------------------------------------------------
 # B3LYP/6-31G* empiricaldispersion=gd3 guess=read geom=check nosymm in
 tegral(ultrafinegrid)
 ----------------------------------------------------------------------

 ------------------------------------------------------
 Candidate Structure: Conf:156 Charge calc in gas phase
 ------------------------------------------------------
 Structure from the checkpoint file:  "conf-156.chk"
 Charge =  1 Multiplicity = 1

                          Input orientation:
 ---------------------------------------------------------------------
 Center     Atomic      Atomic             Coordinates (Angstroms)
 Number     Number       Type             X           Y           Z
 ---------------------------------------------------------------------
      1          7           0       -7.501969   -0.438314    3.808610
      2          1           0       -7.844276    0.252386    3.138340
      3          1           0       -7.525709    0.056134    4.700013
      4          6           0       -6.109254   -0.724515    3.477459
      5          1           0       -5.645475   -1.219933    4.337850
      6          6           0       -5.304553    0.564865    3.172609
      7          6           0       -6.062622   -1.711896    2.287264
      8          1           0       -6.985645   -2.301167    2.326445
      9          1           0       -6.073775   -1.173099    1.329608
     10          8           0       -5.873967    1.646336    3.026041
     11          6           0       -4.855000   -2.645014    2.298426
     12          7           0       -4.983241   -3.763442    1.536208
     13          1           0       -4.228607   -4.435939    1.549597
     14          1           0       -5.864711   -4.039626    1.130178
     15          8           0       -3.822045   -2.413982    2.927805
     16          7           0       -3.958243    0.404134    3.087223
     17          1           0       -3.584576   -0.546514    3.125937
     18          6           0       -3.070780    1.507109    2.780445
     19          1           0       -3.700000    2.398828    2.718719
     20          6           0       -2.413420    1.246980    1.427575
     21          6           0       -1.988173    1.714089    3.874881
     22          1           0       -1.394486    0.791381    3.921001
     23          8           0       -1.868708    0.159045    1.173045
     24          6           0       -2.634233    1.913391    5.262471
     25          1           0       -1.818183    2.010281    5.990627
     26          1           0       -3.177506    0.999520    5.529599
     27          6           0       -1.033055    2.857294    3.496795
     28          1           0       -1.573563    3.786228    3.276865
     29          1           0       -0.344783    3.061427    4.323315
     30          1           0       -0.421904    2.595531    2.628006
     31          6           0       -3.581228    3.114445    5.388176
     32          1           0       -3.928235    3.214999    6.422382
     33          1           0       -3.085942    4.054822    5.119038
     34          1           0       -4.467801    2.999408    4.755132
     35          7           0       -2.434778    2.270923    0.541644
     36          1           0       -2.846412    3.148651    0.831197
     37          6           0       -1.766350    2.236507   -0.765976
     38          1           0       -1.965381    1.250028   -1.198857
     39          6           0       -0.244869    2.377264   -0.539253
     40          6           0       -2.301039    3.335431   -1.674823
     41          1           0       -1.823423    3.273076   -2.656933
     42          1           0       -3.382204    3.230494   -1.802954
     43          1           0       -2.074833    4.322571   -1.260325
     44          8           0        0.355851    3.448775   -0.722036
     45          7           0        0.342306    1.250242   -0.094384
     46          1           0       -0.298363    0.487458    0.122888
     47          6           0        1.683524    1.193198    0.496334
     48          1           0        1.851290    2.126524    1.048287
     49          6           0        2.689700    1.096567   -0.664048
     50          6           0        1.752916    0.017493    1.494431
     51          1           0        1.610769   -0.916242    0.930082
     52          8           0        3.242225    0.042428   -0.997142
     53          6           0        3.097473   -0.023755    2.208715
     54          1           0        3.913471   -0.169507    1.496558
     55          1           0        3.097563   -0.848407    2.926196
     56          1           0        3.257474    0.907643    2.763691
     57          8           0        0.752296    0.173435    2.492368
     58          1           0       -0.118658   -0.096984    2.148415
     59          7           0        2.858313    2.269955   -1.322548
     60          1           0        2.240924    3.022474   -1.018973
     61          6           0        3.302584    2.323644   -2.716728
     62          1           0        2.950365    1.411662   -3.216898
     63          6           0        4.831861    2.344483   -2.818198
     64          6           0        2.667535    3.534799   -3.415393
     65          1           0        3.054472    3.580330   -4.436697
     66          1           0        2.985140    4.459381   -2.912306
     67          8           0        5.470293    3.277133   -3.295377
     68          8           0        1.260199    3.411637   -3.493677
     69          1           0        0.872382    3.657602   -2.633975
     70          7           0        5.439433    1.186502   -2.405317
     71          1           0        4.868094    0.506599   -1.896112
     72          6           0        6.885001    1.130708   -2.392524
     73          1           0        7.326498    1.902874   -1.753532
     74          1           0        7.198178    0.151599   -2.015690
     75          6           0        7.494757    1.358319   -3.783485
     76          8           0        8.641555    1.826397   -3.872196
     77          7           0        6.705811    0.964447   -4.819278
     78          1           0        5.791259    0.651173   -4.507751
     79          6           0        6.708191    1.537060   -6.172785
     80          1           0        7.056165    2.576070   -6.084617
     81          6           0        5.295983    1.641382   -6.750548
     82          6           0        7.639473    0.808719   -7.180224
     83          1           0        7.263657   -0.198033   -7.393634
     84          1           0        7.631494    1.375208   -8.115921
     85          8           0        5.086200    1.937519   -7.900255
     86          6           0        9.004461    0.783593   -6.509226
     87          1           0        9.117123    1.789559   -6.101405
     88          1           0        8.909006    0.115970   -5.644858
     89          6           0       10.323879    0.450196   -7.197813
     90          1           0       10.605523    1.217786   -7.928725
     91          1           0       10.306726   -0.508978   -7.727398
     92          6           0       11.385110    0.338085   -6.087513
     93          1           0       11.266557   -0.593152   -5.527962
     94          1           0       12.410931    0.401711   -6.457100
     95          7           0       11.228382    1.447548   -5.038660
     96          1           0       11.920919    1.341764   -4.290352
     97          1           0       10.270738    1.474882   -4.593465
     98          1           0       11.373903    2.373523   -5.455903
     99          8           0        4.318397    1.381440   -5.849098
    100          1           0        3.462675    1.487853   -6.308166
 ---------------------------------------------------------------------

 SCF Done:  E(RB3LYP) =  -2418.57260948     A.U. after    1 cycles

 Alpha  occ. eigenvalues --  -19.30506 -19.24112 -19.24046 -19.21006 -19.20615
 Alpha  occ. eigenvalues --  -19.20511 -19.20322 -19.20082 -19.19801 -19.17694
 Alpha  occ. eigenvalues --  -19.15817 -14.60228 -14.46872 -14.44829 -14.44319
 Alpha  occ. eigenvalues --  -14.44086 -14.43562 -14.41691 -14.39665 -14.35373
 Alpha  occ. eigenvalues --  -10.42665 -10.40826 -10.39840 -10.37378 -10.37082
 Alpha  occ. eigenvalues --  -10.37034 -10.36611 -10.35313 -10.35224 -10.33133
 Alpha  occ. eigenvalues --  -10.32739 -10.32534 -10.31739 -10.30818 -10.30711
 Alpha  occ. eigenvalues --  -10.30673 -10.30541 -10.30324 -10.30185 -10.28462
 Alpha  occ. eigenvalues --  -10.26987 -10.25571 -10.25075 -10.24322 -10.23253
 Alpha  occ. eigenvalues --  -10.22490 -10.22245 -10.20897  -1.21052  -1.15188
 Alpha  occ. eigenvalues --   -1.14278  -1.12886  -1.12380  -1.12115  -1.11701
 Alpha  occ. eigenvalues --   -1.11350  -1.09337  -1.07948  -1.07561  -1.07488
 Alpha  occ. eigenvalues --   -1.04159  -1.01232  -1.00924  -1.00550  -0.99707
 Alpha  occ. eigenvalues --   -0.96924  -0.96300  -0.94280  -0.92949  -0.89991
 Alpha  occ. eigenvalues --   -0.86968  -0.85897  -0.84881  -0.84122  -0.83274
 Alpha  occ. eigenvalues --   -0.81148  -0.81106  -0.78395  -0.78224  -0.77754
 Alpha  occ. eigenvalues --   -0.75689  -0.73933  -0.72958  -0.72709  -0.72026
 Alpha  occ. eigenvalues --   -0.71239  -0.70235  -0.69937  -0.69262  -0.68782
 Alpha  occ. eigenvalues --   -0.68215  -0.66768  -0.66183  -0.65595  -0.65055
 Alpha  occ. eigenvalues --   -0.64513  -0.64201  -0.63065  -0.62153  -0.61959
 Alpha  occ. eigenvalues --   -0.61529  -0.61242  -0.60681  -0.60200  -0.59612
 Alpha  occ. eigenvalues --   -0.59092  -0.58727  -0.58470  -0.57828  -0.57563
 Alpha  occ. eigenvalues --   -0.57063  -0.56536  -0.56111  -0.56053  -0.55616
 Alpha  occ. eigenvalues --   -0.55020  -0.54783  -0.54499  -0.54341  -0.53973
 Alpha  occ. eigenvalues --   -0.53341  -0.52668  -0.52549  -0.51698  -0.51231
 Alpha  occ. eigenvalues --   -0.51140  -0.50995  -0.50754  -0.50477  -0.50166
 Alpha  occ. eigenvalues --   -0.49718  -0.49372  -0.49107  -0.48718  -0.48350
 Alpha  occ. eigenvalues --   -0.48241  -0.47415  -0.47261  -0.47038  -0.46623
 Alpha  occ. eigenvalues --   -0.46474  -0.46264  -0.46080  -0.46042  -0.45975
 Alpha  occ. eigenvalues --   -0.45623  -0.45320  -0.45215  -0.45131  -0.44816
 Alpha  occ. eigenvalues --   -0.44615  -0.44412  -0.43892  -0.43773  -0.43016
 Alpha  occ. eigenvalues --   -0.42650  -0.42498  -0.42223  -0.42179  -0.41262
 Alpha  occ. eigenvalues --   -0.41057  -0.39523  -0.39411  -0.38808  -0.38615
 Alpha  occ. eigenvalues --   -0.37842  -0.37087  -0.36967  -0.36908  -0.36781
 Alpha  occ. eigenvalues --   -0.36732  -0.36388  -0.35541  -0.34571  -0.34112
 Alpha  occ. eigenvalues --   -0.33927  -0.33557  -0.33125  -0.32924  -0.32076
 Alpha  occ. eigenvalues --   -0.31682  -0.31623  -0.30059  -0.29373  -0.28281
 Alpha virt. eigenvalues --   -0.11349  -0.09930  -0.09478  -0.07912  -0.06911
 Alpha virt. eigenvalues --   -0.06373  -0.05581  -0.05484  -0.03862  -0.03379
 Alpha virt. eigenvalues --   -0.03149  -0.02085  -0.01756  -0.00392  -0.00059

 Mulliken charges:
               1
     1  N   -0.698123
     2  H    0.309972
     3  H    0.309068
     4  C   -0.079013
     5  H    0.172972
     6  C    0.564731
     7  C   -0.377731
     8  H    0.186114
     9  H    0.180529
    10  O   -0.534368
    11  C    0.617570
    12  N   -0.741481
    13  H    0.350350
    14  H    0.347465
    15  O   -0.523387
    16  N   -0.618472
    17  H    0.388607
    18  C   -0.058944
    19  H    0.175687
    20  C    0.647206
    21  C   -0.088383
    22  H    0.151632
    23  O   -0.580236
    24  C   -0.253742
    25  H    0.139212
    26  H    0.144037
    27  C   -0.472923
    28  H    0.134915
    29  H    0.160411
    30  H    0.153181
    31  C   -0.477454
    32  H    0.150549
    33  H    0.140625
    34  H    0.178746
    35  N   -0.586098
    36  H    0.353727
    37  C   -0.055745
    38  H    0.188124
    39  C    0.639624
    40  C   -0.482048
    41  H    0.183832
    42  H    0.172590
    43  H    0.178365
    44  O   -0.569959
    45  N   -0.615777
    46  H    0.377352
    47  C   -0.060165
    48  H    0.182816
    49  C    0.642241
    50  C    0.106001
    51  H    0.145907
    52  O   -0.553385
    53  C   -0.461288
    54  H    0.156454
    55  H    0.172323
    56  H    0.154707
    57  O   -0.650611
    58  H    0.430096
    59  N   -0.617833
    60  H    0.373363
    61  C   -0.073626
    62  H    0.175548
    63  C    0.626005
    64  C   -0.067237
    65  H    0.155072
    66  H    0.156603
    67  O   -0.524355
    68  O   -0.650546
    69  H    0.428303
    70  N   -0.649240
    71  H    0.387946
    72  C   -0.210389
    73  H    0.206571
    74  H    0.187013
    75  C    0.625707
    76  O   -0.575660
    77  N   -0.598500
    78  H    0.380016
    79  C   -0.063466
    80  H    0.215195
    81  C    0.604950
    82  C   -0.262783
    83  H    0.166549
    84  H    0.188450
    85  O   -0.434667
    86  C   -0.294864
    87  H    0.143869
    88  H    0.156122
    89  C   -0.280373
    90  H    0.176520
    91  H    0.195607
    92  C   -0.195730
    93  H    0.218873
    94  H    0.214895
    95  N   -0.775758
    96  H    0.414911
    97  H    0.462299
    98  H    0.412393
    99  O   -0.584729
   100  H    0.438566
 Sum of Mulliken charges =   1.00000

 Dipole moment (field-independent basis, Debye):
    X=             36.4690    Y=              1.2719    Z=            -20.3027  Tot=             41.7589
 Quadrupole moment (field-independent basis, Debye-Ang):
   XX=            189.6085   YY=           -265.8424   ZZ=           -176.8087
   XY=             47.1065   XZ=           -212.4732   YZ=             -7.9360

 Normal termination of Gaussian 16 at Mon Jun  6 02:57:30 2022.
