 Gaussian 16, Revision C.01,
 Gaussian 16:  ES64L-G16RevC.01  3-Jul-2019

 ----------------------------------------------------------------------
 # B3LYP/6-31G* empiricaldispersion=gd3 guess=read geom=check nosymm in
 tegral(ultrafinegrid)
 ----------------------------------------------------------------------

 ------------------------------------------------------
 Candidate Structure: Conf:950 Charge calc in gas phase
 ------------------------------------------------------
 Structure from the checkpoint file:  "conf-950.chk"
 Charge =  1 Multiplicity = 1

                          Input orientation:
 ---------------------------------------------------------------------
 Center     Atomic      Atomic             Coordinates (Angstroms)
 Number     Number       Type             X           Y           Z
 ---------------------------------------------------------------------
      1          7           0       -5.230736   -0.003186    3.129109
      2          1           0       -5.648317   -0.721153    2.539632
      3          1           0       -5.472622   -0.235474    4.093895
      4          6           0       -5.821860    1.301674    2.813392
      5          1           0       -6.885605    1.253757    2.532711
      6          6           0       -5.109086    1.966313    1.624622
      7          6           0       -5.693164    2.265072    4.013057
      8          1           0       -4.645503    2.271532    4.341258
      9          1           0       -5.948739    3.273154    3.674215
     10          8           0       -5.552815    2.972640    1.074112
     11          6           0       -6.543802    1.821216    5.200034
     12          7           0       -7.336519    2.776733    5.753605
     13          1           0       -7.912985    2.522934    6.544516
     14          1           0       -7.406798    3.711910    5.383166
     15          8           0       -6.504433    0.672299    5.634378
     16          7           0       -3.938551    1.374891    1.278391
     17          1           0       -3.649282    0.566137    1.823181
     18          6           0       -3.107575    1.927088    0.235519
     19          1           0       -3.777403    2.265030   -0.563129
     20          6           0       -2.204825    0.818108   -0.292737
     21          6           0       -2.306411    3.175803    0.740944
     22          1           0       -3.093024    3.808251    1.170097
     23          8           0       -1.925505   -0.188189    0.373986
     24          6           0       -1.626602    3.993477   -0.373661
     25          1           0       -0.792115    3.420723   -0.805138
     26          1           0       -1.161561    4.863216    0.107369
     27          6           0       -1.307720    2.805340    1.841190
     28          1           0       -0.465154    2.220834    1.456412
     29          1           0       -0.896857    3.709729    2.302860
     30          1           0       -1.784513    2.218403    2.632851
     31          6           0       -2.566352    4.497374   -1.478456
     32          1           0       -2.058095    5.215210   -2.131187
     33          1           0       -2.951126    3.694218   -2.122917
     34          1           0       -3.443537    4.991736   -1.047198
     35          7           0       -1.702547    1.014573   -1.541462
     36          1           0       -1.974351    1.850422   -2.041210
     37          6           0       -0.841413    0.055074   -2.236347
     38          1           0       -1.264192   -0.943859   -2.079082
     39          6           0        0.571110    0.074637   -1.610742
     40          6           0       -0.806512    0.371155   -3.726885
     41          1           0       -0.175360   -0.350876   -4.253359
     42          1           0       -1.812870    0.317967   -4.151220
     43          1           0       -0.408134    1.377949   -3.899407
     44          8           0        1.536331    0.693431   -2.110142
     45          7           0        0.674025   -0.599609   -0.469915
     46          1           0       -0.195463   -0.974171   -0.095111
     47          6           0        1.852394   -0.579958    0.389274
     48          1           0        2.281881    0.426433    0.355202
     49          6           0        2.844074   -1.638588   -0.104483
     50          6           0        1.405731   -0.874705    1.846053
     51          1           0        0.966849   -1.883790    1.855195
     52          8           0        2.493661   -2.818563   -0.176646
     53          6           0        2.583206   -0.822209    2.810064
     54          1           0        3.339086   -1.573496    2.561632
     55          1           0        2.223949   -1.009718    3.824725
     56          1           0        3.045283    0.171123    2.791040
     57          8           0        0.468124    0.102592    2.266970
     58          1           0       -0.415171   -0.096272    1.910562
     59          7           0        4.078696   -1.186415   -0.408989
     60          1           0        4.255834   -0.189429   -0.448560
     61          6           0        5.182707   -2.033039   -0.842027
     62          1           0        5.445580   -2.736947   -0.042746
     63          6           0        6.355600   -1.108875   -1.152195
     64          6           0        4.859311   -2.897600   -2.109255
     65          1           0        5.783943   -3.080485   -2.666172
     66          1           0        4.201958   -2.285769   -2.754180
     67          8           0        6.177267    0.059477   -1.512593
     68          8           0        4.315857   -4.144653   -1.785470
     69          1           0        3.531101   -3.968537   -1.226847
     70          7           0        7.587966   -1.669242   -1.044562
     71          1           0        7.625767   -2.675893   -0.942651
     72          6           0        8.714710   -1.046607   -1.717524
     73          1           0        8.796228   -0.008601   -1.384850
     74          1           0        9.629371   -1.573391   -1.430776
     75          6           0        8.513672   -1.128543   -3.243693
     76          8           0        7.845249   -2.029046   -3.740635
     77          7           0        9.080399   -0.129736   -3.968811
     78          1           0        9.601853    0.601784   -3.505256
     79          6           0        8.805554    0.018035   -5.391247
     80          1           0        8.608599   -0.985859   -5.780004
     81          6           0        9.987705    0.574725   -6.175004
     82          6           0        7.560655    0.904089   -5.660713
     83          1           0        7.782303    1.932888   -5.342481
     84          1           0        7.399980    0.930523   -6.743810
     85          8           0        9.963383    0.735452   -7.371642
     86          6           0        6.325412    0.390336   -4.916871
     87          1           0        6.103153   -0.636545   -5.229332
     88          1           0        6.546678    0.344697   -3.847828
     89          6           0        5.082981    1.272562   -5.088060
     90          1           0        4.731146    1.262555   -6.129170
     91          1           0        5.332540    2.314814   -4.840129
     92          6           0        3.989541    0.777789   -4.147655
     93          1           0        3.667103   -0.238753   -4.389349
     94          1           0        4.319350    0.782281   -3.105426
     95          7           0        2.747015    1.639489   -4.211066
     96          1           0        2.052022    1.300980   -3.471163
     97          1           0        2.319731    1.612507   -5.140991
     98          1           0        2.975282    2.617636   -4.008437
     99          8           0       11.039086    0.906274   -5.390704
    100          1           0       11.730926    1.263045   -5.980726
 ---------------------------------------------------------------------

 SCF Done:  E(RB3LYP) =  -2418.59276260     A.U. after    2 cycles

 Alpha  occ. eigenvalues --  -19.28767 -19.25735 -19.23512 -19.23189 -19.22508
 Alpha  occ. eigenvalues --  -19.22493 -19.21741 -19.21050 -19.20211 -19.17028
 Alpha  occ. eigenvalues --  -19.16942 -14.57809 -14.48128 -14.47697 -14.46730
 Alpha  occ. eigenvalues --  -14.46317 -14.45882 -14.41692 -14.41685 -14.37244
 Alpha  occ. eigenvalues --  -10.41621 -10.40966 -10.40084 -10.39716 -10.38856
 Alpha  occ. eigenvalues --  -10.38456 -10.37107 -10.36047 -10.34922 -10.33924
 Alpha  occ. eigenvalues --  -10.33246 -10.33161 -10.33082 -10.33058 -10.32994
 Alpha  occ. eigenvalues --  -10.31607 -10.31606 -10.31500 -10.31083 -10.28797
 Alpha  occ. eigenvalues --  -10.28542 -10.28445 -10.27052 -10.26684 -10.26074
 Alpha  occ. eigenvalues --  -10.25789 -10.25548 -10.24188  -1.19426  -1.16853
 Alpha  occ. eigenvalues --   -1.15012  -1.14976  -1.13609  -1.12991  -1.12525
 Alpha  occ. eigenvalues --   -1.10432  -1.10302  -1.09018  -1.08790  -1.08321
 Alpha  occ. eigenvalues --   -1.04828  -1.03938  -1.03047  -1.02534  -1.02356
 Alpha  occ. eigenvalues --   -0.99095  -0.96214  -0.94576  -0.92331  -0.90527
 Alpha  occ. eigenvalues --   -0.88578  -0.88175  -0.87628  -0.85745  -0.82819
 Alpha  occ. eigenvalues --   -0.82354  -0.81619  -0.81143  -0.80348  -0.79129
 Alpha  occ. eigenvalues --   -0.76430  -0.76223  -0.74070  -0.72966  -0.72279
 Alpha  occ. eigenvalues --   -0.71910  -0.71351  -0.70972  -0.70077  -0.70038
 Alpha  occ. eigenvalues --   -0.69281  -0.68675  -0.67971  -0.67592  -0.67542
 Alpha  occ. eigenvalues --   -0.66568  -0.65565  -0.64599  -0.63676  -0.62794
 Alpha  occ. eigenvalues --   -0.62721  -0.61704  -0.61539  -0.61137  -0.60265
 Alpha  occ. eigenvalues --   -0.59968  -0.59735  -0.59611  -0.59020  -0.58652
 Alpha  occ. eigenvalues --   -0.58107  -0.57627  -0.56816  -0.56271  -0.56022
 Alpha  occ. eigenvalues --   -0.55895  -0.55727  -0.55466  -0.55197  -0.54937
 Alpha  occ. eigenvalues --   -0.53752  -0.53603  -0.53024  -0.52686  -0.52504
 Alpha  occ. eigenvalues --   -0.52253  -0.51934  -0.51608  -0.51511  -0.51226
 Alpha  occ. eigenvalues --   -0.51028  -0.50918  -0.50414  -0.50388  -0.50268
 Alpha  occ. eigenvalues --   -0.49980  -0.49526  -0.49454  -0.49107  -0.48664
 Alpha  occ. eigenvalues --   -0.48437  -0.48197  -0.48030  -0.47828  -0.47804
 Alpha  occ. eigenvalues --   -0.47476  -0.47424  -0.46782  -0.46412  -0.46086
 Alpha  occ. eigenvalues --   -0.45651  -0.44905  -0.44811  -0.44756  -0.44547
 Alpha  occ. eigenvalues --   -0.44367  -0.44161  -0.43440  -0.43403  -0.43300
 Alpha  occ. eigenvalues --   -0.41807  -0.41639  -0.41351  -0.41212  -0.40458
 Alpha  occ. eigenvalues --   -0.40291  -0.40128  -0.39674  -0.38824  -0.37802
 Alpha  occ. eigenvalues --   -0.37074  -0.37046  -0.36866  -0.36608  -0.36256
 Alpha  occ. eigenvalues --   -0.35590  -0.35137  -0.34306  -0.34049  -0.33058
 Alpha  occ. eigenvalues --   -0.32760  -0.32075  -0.31428  -0.31234  -0.29016
 Alpha virt. eigenvalues --   -0.11128  -0.10167  -0.09374  -0.09161  -0.08036
 Alpha virt. eigenvalues --   -0.07837  -0.07147  -0.04681  -0.03861  -0.03502
 Alpha virt. eigenvalues --   -0.02998  -0.02552  -0.02000  -0.01684  -0.00994

 Mulliken charges:
               1
     1  N   -0.778384
     2  H    0.308729
     3  H    0.356204
     4  C   -0.043204
     5  H    0.158255
     6  C    0.600026
     7  C   -0.382248
     8  H    0.181971
     9  H    0.170747
    10  O   -0.547701
    11  C    0.613464
    12  N   -0.742596
    13  H    0.352722
    14  H    0.347163
    15  O   -0.514172
    16  N   -0.612225
    17  H    0.370407
    18  C   -0.052177
    19  H    0.181331
    20  C    0.645339
    21  C   -0.079565
    22  H    0.176417
    23  O   -0.567873
    24  C   -0.273939
    25  H    0.109898
    26  H    0.156753
    27  C   -0.478572
    28  H    0.151844
    29  H    0.155144
    30  H    0.162302
    31  C   -0.468402
    32  H    0.152633
    33  H    0.125223
    34  H    0.189327
    35  N   -0.611686
    36  H    0.357639
    37  C   -0.049792
    38  H    0.203271
    39  C    0.659322
    40  C   -0.491735
    41  H    0.173033
    42  H    0.195958
    43  H    0.141378
    44  O   -0.612582
    45  N   -0.586087
    46  H    0.383264
    47  C   -0.047000
    48  H    0.164188
    49  C    0.653186
    50  C    0.088554
    51  H    0.161337
    52  O   -0.549590
    53  C   -0.460194
    54  H    0.160492
    55  H    0.186134
    56  H    0.156233
    57  O   -0.629655
    58  H    0.424854
    59  N   -0.629486
    60  H    0.353496
    61  C   -0.052661
    62  H    0.189113
    63  C    0.595312
    64  C   -0.032024
    65  H    0.191331
    66  H    0.106500
    67  O   -0.548212
    68  O   -0.627427
    69  H    0.430173
    70  N   -0.558791
    71  H    0.359084
    72  C   -0.254215
    73  H    0.193004
    74  H    0.205200
    75  C    0.625523
    76  O   -0.516112
    77  N   -0.599294
    78  H    0.346937
    79  C   -0.064793
    80  H    0.222341
    81  C    0.596696
    82  C   -0.268501
    83  H    0.141058
    84  H    0.181310
    85  O   -0.445097
    86  C   -0.296282
    87  H    0.171722
    88  H    0.191487
    89  C   -0.280151
    90  H    0.156573
    91  H    0.150883
    92  C   -0.208177
    93  H    0.207753
    94  H    0.236169
    95  N   -0.767248
    96  H    0.455145
    97  H    0.394799
    98  H    0.397838
    99  O   -0.574627
   100  H    0.428280
 Sum of Mulliken charges =   1.00000

 Dipole moment (field-independent basis, Debye):
    X=             13.9153    Y=             10.0788    Z=            -12.7198  Tot=             21.3779
 Quadrupole moment (field-independent basis, Debye-Ang):
   XX=           -105.9217   YY=           -270.3218   ZZ=           -213.8675
   XY=              6.9214   XZ=            -63.2224   YZ=            -18.0329

 Normal termination of Gaussian 16 at Mon Jun  6 03:06:06 2022.
