 Gaussian 16, Revision C.01,
 Gaussian 16:  ES64L-G16RevC.01  3-Jul-2019

 ----------------------------------------------------------------------
 # B3LYP/6-31G* empiricaldispersion=gd3 guess=read geom=check nosymm in
 tegral(ultrafinegrid)
 ----------------------------------------------------------------------

 ------------------------------------------------------
 Candidate Structure: Conf:102 Charge calc in gas phase
 ------------------------------------------------------
 Structure from the checkpoint file:  "conf-102.chk"
 Charge =  1 Multiplicity = 1

                          Input orientation:
 ---------------------------------------------------------------------
 Center     Atomic      Atomic             Coordinates (Angstroms)
 Number     Number       Type             X           Y           Z
 ---------------------------------------------------------------------
      1          7           0       -5.310474   -1.679299    5.163085
      2          1           0       -5.652059   -0.868969    4.643736
      3          1           0       -5.163069   -1.351722    6.116450
      4          6           0       -4.035693   -2.081432    4.581441
      5          1           0       -3.518301   -2.740919    5.285235
      6          6           0       -3.134020   -0.875897    4.241574
      7          6           0       -4.329123   -2.885089    3.297932
      8          1           0       -4.961809   -3.735487    3.578214
      9          1           0       -4.914410   -2.258551    2.614893
     10          8           0       -3.596113    0.180946    3.825486
     11          6           0       -3.088374   -3.412930    2.598097
     12          7           0       -3.158923   -3.504801    1.258480
     13          1           0       -2.329429   -3.697253    0.701614
     14          1           0       -3.962367   -3.137826    0.768843
     15          8           0       -2.084542   -3.772291    3.247238
     16          7           0       -1.797634   -1.072418    4.454127
     17          1           0       -1.499477   -2.040794    4.491859
     18          6           0       -0.821166   -0.105834    3.999512
     19          1           0       -1.201485    0.886706    4.260088
     20          6           0       -0.689234   -0.164832    2.466139
     21          6           0        0.527858   -0.359075    4.736649
     22          1           0        0.787247   -1.410525    4.548766
     23          8           0       -0.941891   -1.194992    1.826625
     24          6           0        0.351671   -0.212973    6.267515
     25          1           0        1.306639   -0.489827    6.732690
     26          1           0       -0.385077   -0.946468    6.613079
     27          6           0        1.696594    0.489672    4.211464
     28          1           0        1.484893    1.563915    4.280952
     29          1           0        2.587074    0.301168    4.820445
     30          1           0        1.942969    0.252769    3.172573
     31          6           0       -0.064444    1.179316    6.755983
     32          1           0       -0.107580    1.196970    7.849645
     33          1           0        0.644941    1.954524    6.445856
     34          1           0       -1.058586    1.461207    6.390923
     35          7           0       -0.239363    0.967411    1.880237
     36          1           0       -0.044974    1.763712    2.471808
     37          6           0        0.175744    1.056765    0.488334
     38          1           0       -0.709830    1.207501   -0.143597
     39          6           0        0.885236   -0.245509    0.082255
     40          6           0        1.149210    2.227745    0.305529
     41          1           0        1.455319    2.309553   -0.741254
     42          1           0        0.680165    3.172772    0.598597
     43          1           0        2.044957    2.062822    0.911765
     44          8           0        1.748228   -0.760205    0.788099
     45          7           0        0.504297   -0.738521   -1.125542
     46          1           0       -0.231050   -0.258317   -1.629430
     47          6           0        0.946188   -2.019879   -1.665068
     48          1           0        1.765758   -2.366929   -1.031968
     49          6           0        1.522603   -1.847516   -3.085147
     50          6           0       -0.190238   -3.059371   -1.548722
     51          1           0       -1.047077   -2.725119   -2.150342
     52          8           0        1.206418   -2.588002   -4.012730
     53          6           0        0.207800   -4.474528   -1.940322
     54          1           0        0.340677   -4.540085   -3.019543
     55          1           0       -0.584652   -5.166007   -1.635503
     56          1           0        1.149377   -4.760906   -1.461789
     57          8           0       -0.599846   -3.118881   -0.160263
     58          1           0       -0.723694   -2.224690    0.230367
     59          7           0        2.434016   -0.840184   -3.202622
     60          1           0        2.837761   -0.454984   -2.345238
     61          6           0        3.314991   -0.748267   -4.386356
     62          1           0        2.743793   -1.111659   -5.243499
     63          6           0        4.514283   -1.655259   -4.070135
     64          6           0        3.720777    0.709096   -4.609098
     65          1           0        4.404495    0.766911   -5.459589
     66          1           0        4.262390    1.074688   -3.724799
     67          8           0        5.583510   -1.204499   -3.666628
     68          8           0        2.596301    1.510041   -4.927606
     69          1           0        1.962096    1.411026   -4.199997
     70          7           0        4.236352   -2.995467   -4.103491
     71          1           0        3.280194   -3.259371   -4.323826
     72          6           0        4.966586   -3.889526   -3.202504
     73          1           0        4.733557   -4.924523   -3.452524
     74          1           0        6.038208   -3.714548   -3.316580
     75          6           0        4.472326   -3.596101   -1.778740
     76          8           0        3.512612   -4.193959   -1.284701
     77          7           0        5.082156   -2.548539   -1.156861
     78          1           0        5.728238   -1.988249   -1.705577
     79          6           0        4.495623   -2.007182    0.063810
     80          1           0        3.428066   -2.222637    0.003608
     81          6           0        4.512442   -0.483527    0.002152
     82          6           0        5.014814   -2.659374    1.361698
     83          1           0        5.331407   -3.677401    1.111576
     84          1           0        5.894346   -2.128477    1.735914
     85          8           0        4.082388    0.158292   -0.941060
     86          6           0        3.908121   -2.708915    2.433390
     87          1           0        4.345729   -2.947274    3.409220
     88          1           0        3.459813   -1.712773    2.523169
     89          6           0        2.817915   -3.745237    2.078488
     90          1           0        3.151664   -4.749087    2.374196
     91          1           0        2.683440   -3.784643    0.991695
     92          6           0        1.474868   -3.423823    2.724086
     93          1           0        1.478750   -3.584519    3.805830
     94          1           0        1.180457   -2.396179    2.512805
     95          7           0        0.375553   -4.272527    2.143913
     96          1           0       -0.561034   -4.108994    2.612795
     97          1           0        0.599873   -5.269905    2.190627
     98          1           0        0.218758   -4.002449    1.147812
     99          8           0        5.006449    0.098955    1.102137
    100          1           0        4.944719    1.064820    0.971064
 ---------------------------------------------------------------------

 SCF Done:  E(RB3LYP) =  -2418.64153550     A.U. after    1 cycles

 Alpha  occ. eigenvalues --  -19.31062 -19.28249 -19.25357 -19.24488 -19.24412
 Alpha  occ. eigenvalues --  -19.24144 -19.22860 -19.21981 -19.21813 -19.21310
 Alpha  occ. eigenvalues --  -19.20564 -14.53730 -14.49471 -14.48418 -14.46798
 Alpha  occ. eigenvalues --  -14.46219 -14.45914 -14.45150 -14.44824 -14.39464
 Alpha  occ. eigenvalues --  -10.43564 -10.41782 -10.41005 -10.40728 -10.40038
 Alpha  occ. eigenvalues --  -10.38717 -10.38056 -10.37019 -10.36213 -10.35976
 Alpha  occ. eigenvalues --  -10.34996 -10.34948 -10.33576 -10.33467 -10.32026
 Alpha  occ. eigenvalues --  -10.31977 -10.31400 -10.30774 -10.30449 -10.30087
 Alpha  occ. eigenvalues --  -10.29624 -10.29376 -10.28548 -10.28263 -10.27453
 Alpha  occ. eigenvalues --  -10.27160 -10.26801 -10.25687  -1.22073  -1.17203
 Alpha  occ. eigenvalues --   -1.15453  -1.15122  -1.14873  -1.14539  -1.13826
 Alpha  occ. eigenvalues --   -1.12796  -1.12701  -1.12314  -1.09375  -1.09040
 Alpha  occ. eigenvalues --   -1.05719  -1.04979  -1.02584  -1.02425  -1.02117
 Alpha  occ. eigenvalues --   -1.01826  -1.01103  -0.97231  -0.91615  -0.91320
 Alpha  occ. eigenvalues --   -0.90278  -0.88279  -0.87438  -0.85760  -0.85580
 Alpha  occ. eigenvalues --   -0.82871  -0.82561  -0.81564  -0.80655  -0.80190
 Alpha  occ. eigenvalues --   -0.77139  -0.75219  -0.74785  -0.73887  -0.73501
 Alpha  occ. eigenvalues --   -0.72696  -0.72040  -0.71714  -0.70726  -0.69911
 Alpha  occ. eigenvalues --   -0.69595  -0.68808  -0.68642  -0.68184  -0.67142
 Alpha  occ. eigenvalues --   -0.66971  -0.66275  -0.65692  -0.65436  -0.64708
 Alpha  occ. eigenvalues --   -0.63987  -0.63187  -0.62976  -0.62280  -0.61941
 Alpha  occ. eigenvalues --   -0.60694  -0.60486  -0.60167  -0.59964  -0.59781
 Alpha  occ. eigenvalues --   -0.59170  -0.59106  -0.58185  -0.57381  -0.57378
 Alpha  occ. eigenvalues --   -0.56746  -0.56467  -0.56095  -0.55965  -0.55456
 Alpha  occ. eigenvalues --   -0.55415  -0.54895  -0.54690  -0.53752  -0.53448
 Alpha  occ. eigenvalues --   -0.53302  -0.53262  -0.52862  -0.52546  -0.52054
 Alpha  occ. eigenvalues --   -0.51747  -0.51606  -0.51574  -0.51213  -0.51077
 Alpha  occ. eigenvalues --   -0.50603  -0.50538  -0.50171  -0.49678  -0.49421
 Alpha  occ. eigenvalues --   -0.49279  -0.48923  -0.48882  -0.48553  -0.48490
 Alpha  occ. eigenvalues --   -0.48275  -0.47963  -0.47840  -0.47612  -0.47491
 Alpha  occ. eigenvalues --   -0.47326  -0.47253  -0.46863  -0.46579  -0.46134
 Alpha  occ. eigenvalues --   -0.45813  -0.45544  -0.45249  -0.44393  -0.43987
 Alpha  occ. eigenvalues --   -0.43821  -0.43400  -0.42698  -0.42171  -0.41907
 Alpha  occ. eigenvalues --   -0.41734  -0.41385  -0.40843  -0.39414  -0.39275
 Alpha  occ. eigenvalues --   -0.38955  -0.38697  -0.38367  -0.37946  -0.37874
 Alpha  occ. eigenvalues --   -0.37488  -0.37338  -0.35818  -0.35591  -0.35541
 Alpha  occ. eigenvalues --   -0.35190  -0.34257  -0.33761  -0.33014  -0.31814
 Alpha virt. eigenvalues --   -0.11648  -0.11024  -0.10129  -0.09794  -0.09283
 Alpha virt. eigenvalues --   -0.08438  -0.06847  -0.06587  -0.05802  -0.05145
 Alpha virt. eigenvalues --   -0.04245  -0.02899  -0.02596  -0.02134  -0.01018

 Mulliken charges:
               1
     1  N   -0.699688
     2  H    0.320534
     3  H    0.314584
     4  C   -0.079880
     5  H    0.161702
     6  C    0.586310
     7  C   -0.351369
     8  H    0.216628
     9  H    0.166776
    10  O   -0.527322
    11  C    0.649774
    12  N   -0.755520
    13  H    0.370810
    14  H    0.356935
    15  O   -0.586372
    16  N   -0.592674
    17  H    0.349247
    18  C   -0.078427
    19  H    0.184775
    20  C    0.672834
    21  C   -0.099275
    22  H    0.120265
    23  O   -0.585710
    24  C   -0.249407
    25  H    0.145702
    26  H    0.149531
    27  C   -0.504648
    28  H    0.142587
    29  H    0.166080
    30  H    0.179179
    31  C   -0.465871
    32  H    0.169027
    33  H    0.151075
    34  H    0.159485
    35  N   -0.592864
    36  H    0.352405
    37  C   -0.014988
    38  H    0.167309
    39  C    0.628352
    40  C   -0.486502
    41  H    0.183763
    42  H    0.183492
    43  H    0.177111
    44  O   -0.537960
    45  N   -0.620758
    46  H    0.347381
    47  C   -0.124518
    48  H    0.224414
    49  C    0.617695
    50  C    0.155126
    51  H    0.146669
    52  O   -0.519677
    53  C   -0.497946
    54  H    0.208434
    55  H    0.151605
    56  H    0.187687
    57  O   -0.706719
    58  H    0.459226
    59  N   -0.650311
    60  H    0.395024
    61  C   -0.100672
    62  H    0.204257
    63  C    0.611397
    64  C   -0.036426
    65  H    0.179272
    66  H    0.156334
    67  O   -0.525189
    68  O   -0.607501
    69  H    0.385668
    70  N   -0.582673
    71  H    0.366334
    72  C   -0.229960
    73  H    0.196084
    74  H    0.202544
    75  C    0.575842
    76  O   -0.531330
    77  N   -0.597219
    78  H    0.378853
    79  C   -0.054367
    80  H    0.216929
    81  C    0.610023
    82  C   -0.270049
    83  H    0.167552
    84  H    0.173214
    85  O   -0.489227
    86  C   -0.295380
    87  H    0.156043
    88  H    0.173753
    89  C   -0.298249
    90  H    0.155331
    91  H    0.187575
    92  C   -0.212467
    93  H    0.188201
    94  H    0.229882
    95  N   -0.804496
    96  H    0.439195
    97  H    0.383316
    98  H    0.426647
    99  O   -0.546060
   100  H    0.425891
 Sum of Mulliken charges =   1.00000

 Dipole moment (field-independent basis, Debye):
    X=              3.7379    Y=             -9.1936    Z=              8.3005  Tot=             12.9380
 Quadrupole moment (field-independent basis, Debye-Ang):
   XX=           -248.2004   YY=           -228.6379   ZZ=           -248.9659
   XY=             -5.9735   XZ=              9.5938   YZ=             -5.1737

 Normal termination of Gaussian 16 at Mon Jun  6 02:57:40 2022.
