 Gaussian 16, Revision C.01,
 Gaussian 16:  ES64L-G16RevC.01  3-Jul-2019

 ----------------------------------------------------------------------
 # B3LYP/6-31G* empiricaldispersion=gd3 guess=read geom=check nosymm in
 tegral(ultrafinegrid)
 ----------------------------------------------------------------------

 ------------------------------------------------------
 Candidate Structure: Conf:472 Charge calc in gas phase
 ------------------------------------------------------
 Structure from the checkpoint file:  "conf-472.chk"
 Charge =  1 Multiplicity = 1

                          Input orientation:
 ---------------------------------------------------------------------
 Center     Atomic      Atomic             Coordinates (Angstroms)
 Number     Number       Type             X           Y           Z
 ---------------------------------------------------------------------
      1          7           0       -6.418566   -1.349662    2.676897
      2          1           0       -6.861770   -2.240268    2.466491
      3          1           0       -6.676997   -0.679202    1.955763
      4          6           0       -4.974360   -1.478528    2.735136
      5          1           0       -4.701998   -2.042681    3.632846
      6          6           0       -4.383896   -0.067714    2.814125
      7          6           0       -4.329753   -2.194590    1.511858
      8          1           0       -4.797936   -3.183468    1.413718
      9          1           0       -4.567860   -1.635056    0.598810
     10          8           0       -4.832118    0.853866    2.129320
     11          6           0       -2.822261   -2.414528    1.638957
     12          7           0       -2.141883   -2.530015    0.467231
     13          1           0       -1.165321   -2.807744    0.483892
     14          1           0       -2.632678   -2.595531   -0.413307
     15          8           0       -2.254029   -2.474761    2.731335
     16          7           0       -3.296632    0.068340    3.626162
     17          1           0       -2.845386   -0.801418    3.899092
     18          6           0       -2.440415    1.253156    3.540515
     19          1           0       -3.098614    2.118792    3.433415
     20          6           0       -1.624716    1.074433    2.251847
     21          6           0       -1.571296    1.411982    4.796560
     22          1           0       -0.920444    0.525022    4.850429
     23          8           0       -0.520514    0.481916    2.246852
     24          6           0       -2.420738    1.422064    6.088094
     25          1           0       -1.732849    1.547628    6.934395
     26          1           0       -2.885288    0.437377    6.213632
     27          6           0       -0.677859    2.657391    4.674653
     28          1           0       -1.275416    3.570951    4.591946
     29          1           0       -0.042742    2.762714    5.561368
     30          1           0       -0.030800    2.613865    3.790490
     31          6           0       -3.513384    2.496106    6.151563
     32          1           0       -4.013862    2.465246    7.124396
     33          1           0       -3.109491    3.506532    6.024736
     34          1           0       -4.282434    2.337014    5.387665
     35          7           0       -2.216571    1.482760    1.123525
     36          1           0       -3.175745    1.808230    1.229239
     37          6           0       -1.848001    1.004242   -0.222206
     38          1           0       -1.534692   -0.043273   -0.106783
     39          6           0       -0.630046    1.711762   -0.856611
     40          6           0       -3.071943    1.086061   -1.129230
     41          1           0       -2.827684    0.689915   -2.115985
     42          1           0       -3.902891    0.519080   -0.696917
     43          1           0       -3.387861    2.125286   -1.264170
     44          8           0       -0.616475    2.025352   -2.038175
     45          7           0        0.459201    1.851473   -0.039629
     46          1           0        0.438210    1.292523    0.810664
     47          6           0        1.764544    1.984737   -0.663037
     48          1           0        1.815752    2.917748   -1.231523
     49          6           0        2.026894    0.766312   -1.562699
     50          6           0        2.867443    1.977365    0.430673
     51          1           0        3.838870    1.999553   -0.077281
     52          8           0        1.783507   -0.366366   -1.108010
     53          6           0        2.747277    3.132208    1.411439
     54          1           0        2.874986    4.088720    0.895711
     55          1           0        3.526786    3.050319    2.175805
     56          1           0        1.765293    3.134520    1.896257
     57          8           0        2.779432    0.744392    1.178180
     58          1           0        2.556642    0.048687    0.522610
     59          7           0        2.602762    0.953814   -2.760116
     60          1           0        2.933482    1.876953   -3.016729
     61          6           0        3.272902   -0.158451   -3.409890
     62          1           0        2.559166   -0.983117   -3.514795
     63          6           0        4.417012   -0.658385   -2.490652
     64          6           0        3.759369    0.278392   -4.790634
     65          1           0        2.886871    0.490365   -5.426107
     66          1           0        4.330685   -0.541669   -5.248573
     67          8           0        4.768243   -0.031363   -1.492059
     68          8           0        4.557412    1.436797   -4.588460
     69          1           0        4.835364    1.782700   -5.450043
     70          7           0        4.949080   -1.861193   -2.831882
     71          1           0        4.419382   -2.429450   -3.482676
     72          6           0        5.765328   -2.608004   -1.870234
     73          1           0        6.407223   -3.312143   -2.399938
     74          1           0        6.378353   -1.888811   -1.322491
     75          6           0        4.850180   -3.408640   -0.926931
     76          8           0        4.827699   -4.627495   -0.910983
     77          7           0        4.016686   -2.628782   -0.151963
     78          1           0        4.027910   -1.631277   -0.339323
     79          6           0        2.756564   -3.183569    0.295791
     80          1           0        2.964296   -4.197913    0.657548
     81          6           0        1.819053   -3.369276   -0.905105
     82          6           0        2.137164   -2.341143    1.437070
     83          1           0        2.960627   -1.740543    1.840801
     84          1           0        1.388086   -1.650424    1.034547
     85          8           0        2.120718   -3.260456   -2.068407
     86          6           0        1.527969   -3.171945    2.569153
     87          1           0        0.768356   -3.849760    2.163613
     88          1           0        2.311700   -3.804963    3.007299
     89          6           0        0.867150   -2.330944    3.672079
     90          1           0        0.524508   -3.010527    4.460374
     91          1           0       -0.039664   -1.855373    3.284385
     92          6           0        1.760258   -1.279493    4.349166
     93          1           0        1.411914   -1.089183    5.367387
     94          1           0        2.808920   -1.586051    4.401332
     95          7           0        1.713912    0.065536    3.654819
     96          1           0        2.034102    0.814145    4.274171
     97          1           0        0.735849    0.287291    3.341233
     98          1           0        2.270032    0.155838    2.774972
     99          8           0        0.565651   -3.752968   -0.518370
    100          1           0        0.089273   -3.959474   -1.345852
 ---------------------------------------------------------------------

 SCF Done:  E(RB3LYP) =  -2418.62442339     A.U. after    3 cycles

 Alpha  occ. eigenvalues --  -19.30059 -19.26147 -19.25322 -19.24574 -19.23875
 Alpha  occ. eigenvalues --  -19.22509 -19.22459 -19.22115 -19.21366 -19.20915
 Alpha  occ. eigenvalues --  -19.19485 -14.54367 -14.47752 -14.46337 -14.46197
 Alpha  occ. eigenvalues --  -14.46193 -14.45548 -14.44154 -14.43256 -14.39642
 Alpha  occ. eigenvalues --  -10.41662 -10.41067 -10.40030 -10.39112 -10.38653
 Alpha  occ. eigenvalues --  -10.38281 -10.37731 -10.36498 -10.36152 -10.34808
 Alpha  occ. eigenvalues --  -10.34024 -10.33735 -10.33478 -10.33249 -10.33142
 Alpha  occ. eigenvalues --  -10.33021 -10.31911 -10.30797 -10.30278 -10.29861
 Alpha  occ. eigenvalues --  -10.29426 -10.29196 -10.28535 -10.28265 -10.27886
 Alpha  occ. eigenvalues --  -10.27364 -10.27232 -10.25470  -1.20413  -1.16519
 Alpha  occ. eigenvalues --   -1.15322  -1.14154  -1.13630  -1.13464  -1.12701
 Alpha  occ. eigenvalues --   -1.12333  -1.11870  -1.11712  -1.10981  -1.09611
 Alpha  occ. eigenvalues --   -1.04375  -1.02937  -1.02698  -1.01770  -1.01330
 Alpha  occ. eigenvalues --   -1.01074  -1.00460  -0.97523  -0.91517  -0.91228
 Alpha  occ. eigenvalues --   -0.88894  -0.87406  -0.86855  -0.86236  -0.85678
 Alpha  occ. eigenvalues --   -0.82919  -0.82141  -0.81014  -0.80940  -0.79794
 Alpha  occ. eigenvalues --   -0.75917  -0.75596  -0.74945  -0.73986  -0.73426
 Alpha  occ. eigenvalues --   -0.71781  -0.71050  -0.70278  -0.69822  -0.69582
 Alpha  occ. eigenvalues --   -0.69190  -0.67879  -0.67593  -0.67377  -0.67099
 Alpha  occ. eigenvalues --   -0.66932  -0.65565  -0.65485  -0.64200  -0.64053
 Alpha  occ. eigenvalues --   -0.63286  -0.62900  -0.61894  -0.61621  -0.61465
 Alpha  occ. eigenvalues --   -0.61239  -0.60571  -0.60059  -0.59403  -0.59094
 Alpha  occ. eigenvalues --   -0.58856  -0.58260  -0.57803  -0.57201  -0.56561
 Alpha  occ. eigenvalues --   -0.56100  -0.55788  -0.55730  -0.55361  -0.54994
 Alpha  occ. eigenvalues --   -0.54811  -0.54368  -0.53841  -0.53777  -0.53412
 Alpha  occ. eigenvalues --   -0.52786  -0.52460  -0.52171  -0.52001  -0.51876
 Alpha  occ. eigenvalues --   -0.51716  -0.51488  -0.51192  -0.50951  -0.50694
 Alpha  occ. eigenvalues --   -0.50465  -0.49897  -0.49714  -0.49509  -0.49140
 Alpha  occ. eigenvalues --   -0.48980  -0.48926  -0.48380  -0.48324  -0.48202
 Alpha  occ. eigenvalues --   -0.48017  -0.47842  -0.47576  -0.47472  -0.47253
 Alpha  occ. eigenvalues --   -0.46632  -0.46356  -0.46161  -0.46029  -0.45798
 Alpha  occ. eigenvalues --   -0.45588  -0.45071  -0.44733  -0.44528  -0.43856
 Alpha  occ. eigenvalues --   -0.43713  -0.43419  -0.43334  -0.42340  -0.41985
 Alpha  occ. eigenvalues --   -0.41889  -0.41733  -0.40277  -0.39015  -0.38748
 Alpha  occ. eigenvalues --   -0.37998  -0.37743  -0.37660  -0.36942  -0.36858
 Alpha  occ. eigenvalues --   -0.36669  -0.36202  -0.36070  -0.35176  -0.34768
 Alpha  occ. eigenvalues --   -0.34585  -0.33723  -0.33501  -0.32083  -0.31690
 Alpha virt. eigenvalues --   -0.11157  -0.09300  -0.09039  -0.08703  -0.08332
 Alpha virt. eigenvalues --   -0.07823  -0.07647  -0.07047  -0.05611  -0.04475
 Alpha virt. eigenvalues --   -0.02757  -0.02255  -0.01994  -0.01429  -0.01210

 Mulliken charges:
               1
     1  N   -0.709417
     2  H    0.309249
     3  H    0.323363
     4  C   -0.047628
     5  H    0.172014
     6  C    0.622644
     7  C   -0.401549
     8  H    0.192187
     9  H    0.169442
    10  O   -0.545699
    11  C    0.611015
    12  N   -0.771796
    13  H    0.384352
    14  H    0.346438
    15  O   -0.531963
    16  N   -0.600266
    17  H    0.369545
    18  C   -0.048845
    19  H    0.192602
    20  C    0.641660
    21  C   -0.105113
    22  H    0.106694
    23  O   -0.614228
    24  C   -0.254871
    25  H    0.143325
    26  H    0.152060
    27  C   -0.486976
    28  H    0.178326
    29  H    0.157984
    30  H    0.140631
    31  C   -0.465948
    32  H    0.170116
    33  H    0.152858
    34  H    0.166533
    35  N   -0.583949
    36  H    0.388234
    37  C   -0.089237
    38  H    0.195623
    39  C    0.632172
    40  C   -0.486865
    41  H    0.188933
    42  H    0.161705
    43  H    0.183104
    44  O   -0.506131
    45  N   -0.626178
    46  H    0.373286
    47  C   -0.085161
    48  H    0.178254
    49  C    0.673231
    50  C    0.119472
    51  H    0.189072
    52  O   -0.592922
    53  C   -0.474270
    54  H    0.177043
    55  H    0.163940
    56  H    0.158897
    57  O   -0.727215
    58  H    0.467340
    59  N   -0.583328
    60  H    0.363915
    61  C   -0.088539
    62  H    0.210704
    63  C    0.636213
    64  C   -0.054442
    65  H    0.162830
    66  H    0.154714
    67  O   -0.540030
    68  O   -0.620180
    69  H    0.418513
    70  N   -0.572086
    71  H    0.352690
    72  C   -0.249216
    73  H    0.197487
    74  H    0.209671
    75  C    0.592747
    76  O   -0.487806
    77  N   -0.617097
    78  H    0.369430
    79  C   -0.046663
    80  H    0.217687
    81  C    0.636541
    82  C   -0.340490
    83  H    0.152629
    84  H    0.175727
    85  O   -0.468615
    86  C   -0.281229
    87  H    0.174372
    88  H    0.156963
    89  C   -0.314029
    90  H    0.177183
    91  H    0.203629
    92  C   -0.184625
    93  H    0.192557
    94  H    0.201414
    95  N   -0.825985
    96  H    0.387859
    97  H    0.456730
    98  H    0.449060
    99  O   -0.591748
   100  H    0.417727
 Sum of Mulliken charges =   1.00000

 Dipole moment (field-independent basis, Debye):
    X=              2.3271    Y=             -0.5543    Z=              5.2405  Tot=              5.7606
 Quadrupole moment (field-independent basis, Debye-Ang):
   XX=           -242.9617   YY=           -266.9664   ZZ=           -190.4882
   XY=             28.4739   XZ=            -10.7223   YZ=              7.3175

 Normal termination of Gaussian 16 at Mon Jun  6 02:59:03 2022.
