 Gaussian 16, Revision C.01,
 Gaussian 16:  ES64L-G16RevC.01  3-Jul-2019

 ----------------------------------------------------------------------
 # B3LYP/6-31G* empiricaldispersion=gd3 guess=read geom=check nosymm in
 tegral(ultrafinegrid)
 ----------------------------------------------------------------------

 ------------------------------------------------------
 Candidate Structure: Conf:448 Charge calc in gas phase
 ------------------------------------------------------
 Structure from the checkpoint file:  "conf-448.chk"
 Charge =  1 Multiplicity = 1

                          Input orientation:
 ---------------------------------------------------------------------
 Center     Atomic      Atomic             Coordinates (Angstroms)
 Number     Number       Type             X           Y           Z
 ---------------------------------------------------------------------
      1          7           0       -0.410285    6.068703    1.304949
      2          1           0        0.320643    5.544428    0.827263
      3          1           0       -0.133265    6.128292    2.283341
      4          6           0       -1.659688    5.338873    1.192822
      5          1           0       -2.438265    5.908529    1.715603
      6          6           0       -1.600604    3.908805    1.767145
      7          6           0       -2.092092    5.240006   -0.301852
      8          1           0       -3.131510    4.903524   -0.369058
      9          1           0       -2.007987    6.240208   -0.732958
     10          8           0       -0.543377    3.262634    1.748492
     11          6           0       -1.174659    4.297047   -1.059484
     12          7           0       -1.643598    3.065352   -1.320131
     13          1           0       -0.942911    2.347115   -1.480040
     14          1           0       -2.497594    2.722842   -0.879946
     15          8           0       -0.025052    4.667659   -1.373307
     16          7           0       -2.754087    3.389669    2.236121
     17          1           0       -3.610944    3.912852    2.112277
     18          6           0       -2.867812    1.985692    2.615470
     19          1           0       -2.005528    1.752094    3.246875
     20          6           0       -2.839990    1.120968    1.335067
     21          6           0       -4.177805    1.745133    3.404042
     22          1           0       -5.001935    1.996816    2.719900
     23          8           0       -3.507019    1.465449    0.353894
     24          6           0       -4.289749    2.669695    4.639288
     25          1           0       -5.251648    2.453662    5.120908
     26          1           0       -4.349027    3.716488    4.314680
     27          6           0       -4.327753    0.263254    3.784003
     28          1           0       -3.467599   -0.097165    4.359699
     29          1           0       -5.221999    0.123577    4.399565
     30          1           0       -4.429617   -0.374692    2.901275
     31          6           0       -3.162089    2.534676    5.669242
     32          1           0       -3.354625    3.183272    6.529919
     33          1           0       -3.071870    1.510139    6.045444
     34          1           0       -2.191941    2.828534    5.251769
     35          7           0       -2.078265    0.012265    1.437942
     36          1           0       -1.451433   -0.051126    2.234716
     37          6           0       -1.853808   -1.076469    0.486191
     38          1           0       -2.515058   -1.913768    0.756994
     39          6           0       -0.394016   -1.531235    0.735973
     40          6           0       -2.098936   -0.712925   -0.985296
     41          1           0       -2.018298   -1.607866   -1.610159
     42          1           0       -3.096358   -0.296371   -1.112711
     43          1           0       -1.357932    0.015896   -1.319075
     44          8           0        0.246552   -1.104799    1.704092
     45          7           0        0.150545   -2.363989   -0.175300
     46          1           0       -0.432985   -2.817544   -0.864132
     47          6           0        1.550073   -2.800522   -0.101204
     48          1           0        1.816565   -2.876959    0.958662
     49          6           0        2.399434   -1.704120   -0.787231
     50          6           0        1.724931   -4.161974   -0.786470
     51          1           0        1.627774   -4.011194   -1.872408
     52          8           0        2.973800   -1.882297   -1.862705
     53          6           0        3.093657   -4.767500   -0.485686
     54          1           0        3.893819   -4.122191   -0.858391
     55          1           0        3.192496   -5.739949   -0.981624
     56          1           0        3.215094   -4.918897    0.592338
     57          8           0        0.655315   -4.971140   -0.296681
     58          1           0        0.754517   -5.856558   -0.679960
     59          7           0        2.394468   -0.500336   -0.151486
     60          1           0        1.830074   -0.463475    0.697455
     61          6           0        2.436578    0.761002   -0.898921
     62          1           0        1.895929    0.615081   -1.848228
     63          6           0        3.821344    1.273050   -1.315973
     64          6           0        1.679149    1.803129   -0.075183
     65          1           0        1.784377    2.798905   -0.510028
     66          1           0        2.105343    1.849071    0.937278
     67          8           0        4.016085    2.496504   -1.458455
     68          8           0        0.322668    1.391620   -0.047188
     69          1           0       -0.107380    1.886761    0.683336
     70          7           0        4.761757    0.352841   -1.574850
     71          1           0        4.423645   -0.600424   -1.719156
     72          6           0        6.011916    0.753081   -2.191183
     73          1           0        6.544887    1.437474   -1.523363
     74          1           0        6.629018   -0.140227   -2.324024
     75          6           0        5.767477    1.422993   -3.559061
     76          8           0        4.745444    1.209538   -4.200117
     77          7           0        6.758285    2.262881   -3.966544
     78          1           0        7.568988    2.411334   -3.381034
     79          6           0        6.639415    3.059439   -5.180887
     80          1           0        5.963161    2.513585   -5.844602
     81          6           0        7.958355    3.220887   -5.922790
     82          6           0        6.032625    4.468339   -4.924878
     83          1           0        6.777233    5.117789   -4.445193
     84          1           0        5.806624    4.909817   -5.901781
     85          8           0        8.037235    3.701678   -7.027314
     86          6           0        4.785219    4.361222   -4.044403
     87          1           0        4.186760    3.523108   -4.416774
     88          1           0        5.091725    4.074354   -3.032920
     89          6           0        3.911394    5.617926   -3.972989
     90          1           0        3.413691    5.789360   -4.936984
     91          1           0        4.515721    6.511426   -3.774325
     92          6           0        2.865384    5.517263   -2.856357
     93          1           0        3.322711    5.626563   -1.869720
     94          1           0        2.074083    6.263630   -2.953926
     95          7           0        2.196501    4.161871   -2.831803
     96          1           0        1.299118    4.209291   -2.278855
     97          1           0        2.834181    3.460651   -2.386470
     98          1           0        1.972346    3.840611   -3.777220
     99          8           0        9.029808    2.830718   -5.191618
    100          1           0        9.822304    3.005362   -5.734928
 ---------------------------------------------------------------------

 SCF Done:  E(RB3LYP) =  -2418.62717847     A.U. after    3 cycles

 Alpha  occ. eigenvalues --  -19.28241 -19.23733 -19.23001 -19.22994 -19.22970
 Alpha  occ. eigenvalues --  -19.22416 -19.22332 -19.22111 -19.21937 -19.20908
 Alpha  occ. eigenvalues --  -19.20343 -14.53043 -14.46509 -14.46387 -14.45718
 Alpha  occ. eigenvalues --  -14.45474 -14.45205 -14.45104 -14.44737 -14.39853
 Alpha  occ. eigenvalues --  -10.40367 -10.39816 -10.39470 -10.39100 -10.38863
 Alpha  occ. eigenvalues --  -10.38680 -10.38272 -10.37934 -10.34786 -10.33730
 Alpha  occ. eigenvalues --  -10.33666 -10.33121 -10.32858 -10.32748 -10.32649
 Alpha  occ. eigenvalues --  -10.32601 -10.32531 -10.32452 -10.29552 -10.29459
 Alpha  occ. eigenvalues --  -10.28374 -10.28079 -10.27596 -10.27059 -10.26277
 Alpha  occ. eigenvalues --  -10.25577 -10.25575 -10.24801  -1.18853  -1.14809
 Alpha  occ. eigenvalues --   -1.14389  -1.14283  -1.13711  -1.13576  -1.12383
 Alpha  occ. eigenvalues --   -1.12253  -1.11252  -1.10538  -1.09877  -1.08360
 Alpha  occ. eigenvalues --   -1.02951  -1.02759  -1.02497  -1.01910  -1.01711
 Alpha  occ. eigenvalues --   -1.01348  -1.00407  -0.97834  -0.90434  -0.90128
 Alpha  occ. eigenvalues --   -0.88583  -0.87084  -0.86257  -0.85711  -0.85244
 Alpha  occ. eigenvalues --   -0.82625  -0.81915  -0.80225  -0.79366  -0.79065
 Alpha  occ. eigenvalues --   -0.76209  -0.74735  -0.74104  -0.73695  -0.72250
 Alpha  occ. eigenvalues --   -0.71481  -0.69908  -0.69655  -0.69365  -0.68568
 Alpha  occ. eigenvalues --   -0.68219  -0.68034  -0.67787  -0.67340  -0.66641
 Alpha  occ. eigenvalues --   -0.66390  -0.65438  -0.64615  -0.63861  -0.63797
 Alpha  occ. eigenvalues --   -0.62770  -0.62200  -0.61722  -0.60948  -0.60311
 Alpha  occ. eigenvalues --   -0.59894  -0.59303  -0.59267  -0.58728  -0.58518
 Alpha  occ. eigenvalues --   -0.57794  -0.57557  -0.57231  -0.56817  -0.56230
 Alpha  occ. eigenvalues --   -0.56010  -0.55641  -0.55404  -0.54987  -0.54464
 Alpha  occ. eigenvalues --   -0.54202  -0.53572  -0.53441  -0.53237  -0.52914
 Alpha  occ. eigenvalues --   -0.52437  -0.51974  -0.51893  -0.51627  -0.51336
 Alpha  occ. eigenvalues --   -0.51214  -0.50821  -0.50495  -0.50176  -0.50005
 Alpha  occ. eigenvalues --   -0.49850  -0.49584  -0.49530  -0.49072  -0.48790
 Alpha  occ. eigenvalues --   -0.48365  -0.48203  -0.48055  -0.47896  -0.47561
 Alpha  occ. eigenvalues --   -0.47350  -0.47225  -0.46677  -0.46527  -0.46277
 Alpha  occ. eigenvalues --   -0.46142  -0.45926  -0.45820  -0.45620  -0.45022
 Alpha  occ. eigenvalues --   -0.44827  -0.44661  -0.44195  -0.43968  -0.43333
 Alpha  occ. eigenvalues --   -0.42837  -0.42601  -0.41487  -0.40842  -0.40639
 Alpha  occ. eigenvalues --   -0.40520  -0.39928  -0.39199  -0.38104  -0.37817
 Alpha  occ. eigenvalues --   -0.37145  -0.36980  -0.36827  -0.36499  -0.36404
 Alpha  occ. eigenvalues --   -0.36203  -0.35768  -0.35705  -0.34771  -0.34717
 Alpha  occ. eigenvalues --   -0.34249  -0.34106  -0.33761  -0.33400  -0.32522
 Alpha virt. eigenvalues --   -0.09784  -0.09213  -0.09060  -0.08407  -0.07576
 Alpha virt. eigenvalues --   -0.07325  -0.06815  -0.06628  -0.05090  -0.02726
 Alpha virt. eigenvalues --   -0.01607  -0.01299  -0.00592  -0.00232  -0.00034

 Mulliken charges:
               1
     1  N   -0.687490
     2  H    0.321703
     3  H    0.312265
     4  C   -0.094623
     5  H    0.163601
     6  C    0.611129
     7  C   -0.339100
     8  H    0.167556
     9  H    0.206697
    10  O   -0.571655
    11  C    0.584854
    12  N   -0.750217
    13  H    0.358843
    14  H    0.394313
    15  O   -0.571478
    16  N   -0.590105
    17  H    0.346506
    18  C   -0.034724
    19  H    0.171335
    20  C    0.619911
    21  C   -0.117907
    22  H    0.149358
    23  O   -0.568235
    24  C   -0.255828
    25  H    0.156088
    26  H    0.127828
    27  C   -0.468137
    28  H    0.152069
    29  H    0.168059
    30  H    0.161698
    31  C   -0.460087
    32  H    0.164665
    33  H    0.158318
    34  H    0.148756
    35  N   -0.607093
    36  H    0.365175
    37  C   -0.022733
    38  H    0.191871
    39  C    0.652083
    40  C   -0.478387
    41  H    0.144138
    42  H    0.209351
    43  H    0.170618
    44  O   -0.560146
    45  N   -0.605352
    46  H    0.357125
    47  C   -0.064427
    48  H    0.201312
    49  C    0.624071
    50  C    0.123863
    51  H    0.148568
    52  O   -0.531553
    53  C   -0.479417
    54  H    0.173141
    55  H    0.157401
    56  H    0.165393
    57  O   -0.638919
    58  H    0.407030
    59  N   -0.623340
    60  H    0.396672
    61  C   -0.076133
    62  H    0.187592
    63  C    0.657163
    64  C   -0.069485
    65  H    0.136294
    66  H    0.165815
    67  O   -0.578838
    68  O   -0.682891
    69  H    0.463586
    70  N   -0.574263
    71  H    0.393104
    72  C   -0.248829
    73  H    0.186595
    74  H    0.201935
    75  C    0.639725
    76  O   -0.526471
    77  N   -0.604981
    78  H    0.347023
    79  C   -0.062404
    80  H    0.216542
    81  C    0.594194
    82  C   -0.270779
    83  H    0.151508
    84  H    0.179233
    85  O   -0.443826
    86  C   -0.306094
    87  H    0.158136
    88  H    0.173767
    89  C   -0.289172
    90  H    0.161715
    91  H    0.177347
    92  C   -0.180730
    93  H    0.205629
    94  H    0.206404
    95  N   -0.824548
    96  H    0.442492
    97  H    0.445698
    98  H    0.385702
    99  O   -0.577616
   100  H    0.427454
 Sum of Mulliken charges =   1.00000

 Dipole moment (field-independent basis, Debye):
    X=              6.6205    Y=              9.0487    Z=             -3.2638  Tot=             11.6774
 Quadrupole moment (field-independent basis, Debye-Ang):
   XX=           -173.1858   YY=           -195.7076   ZZ=           -255.9092
   XY=             14.2776   XZ=            -46.9120   YZ=            -11.9531

 Normal termination of Gaussian 16 at Mon Jun  6 02:58:41 2022.
