 Gaussian 16, Revision C.01,
 Gaussian 16:  ES64L-G16RevC.01  3-Jul-2019

 ----------------------------------------------------------------------
 # B3LYP/6-31G* empiricaldispersion=gd3 guess=read geom=check nosymm in
 tegral(ultrafinegrid)
 ----------------------------------------------------------------------

 ------------------------------------------------------
 Candidate Structure: Conf:841 Charge calc in gas phase
 ------------------------------------------------------
 Structure from the checkpoint file:  "conf-841.chk"
 Charge =  1 Multiplicity = 1

                          Input orientation:
 ---------------------------------------------------------------------
 Center     Atomic      Atomic             Coordinates (Angstroms)
 Number     Number       Type             X           Y           Z
 ---------------------------------------------------------------------
      1          7           0       -5.136894    5.650670    4.359137
      2          1           0       -4.327312    6.273567    4.343015
      3          1           0       -5.291549    5.439310    5.344648
      4          6           0       -4.753273    4.430427    3.661894
      5          1           0       -5.500399    3.656392    3.881966
      6          6           0       -3.348460    3.920506    4.037962
      7          6           0       -4.756659    4.710935    2.130124
      8          1           0       -5.773901    4.992449    1.838769
      9          1           0       -4.088319    5.552042    1.929373
     10          8           0       -2.447674    4.702758    4.320821
     11          6           0       -4.236825    3.517864    1.337848
     12          7           0       -5.120768    2.492082    1.161146
     13          1           0       -4.727044    1.583155    0.946738
     14          1           0       -6.036794    2.515629    1.585935
     15          8           0       -3.074888    3.453487    0.943996
     16          7           0       -3.174879    2.565243    3.965309
     17          1           0       -3.934240    2.007442    3.587830
     18          6           0       -1.861757    2.003360    3.680533
     19          1           0       -1.204382    2.847174    3.445233
     20          6           0       -2.005464    1.112731    2.438207
     21          6           0       -1.250797    1.224882    4.878096
     22          1           0       -0.289253    0.821260    4.522392
     23          8           0       -3.059292    0.531722    2.167254
     24          6           0       -2.137449    0.039111    5.304624
     25          1           0       -2.393565   -0.558427    4.421761
     26          1           0       -3.086577    0.435773    5.689111
     27          6           0       -0.976337    2.199963    6.031771
     28          1           0       -1.916792    2.603400    6.421749
     29          1           0       -0.449152    1.704752    6.853323
     30          1           0       -0.374855    3.052137    5.698318
     31          6           0       -1.494767   -0.873286    6.355062
     32          1           0       -2.136831   -1.735734    6.564564
     33          1           0       -0.527387   -1.256960    6.005700
     34          1           0       -1.324802   -0.353562    7.304006
     35          7           0       -0.872236    0.960034    1.711979
     36          1           0       -0.077197    1.561838    1.884027
     37          6           0       -0.864863    0.248640    0.446425
     38          1           0       -1.587177   -0.567853    0.530364
     39          6           0        0.545865   -0.274309    0.212325
     40          6           0       -1.240139    1.170270   -0.735708
     41          1           0       -1.368203    0.587490   -1.655213
     42          1           0       -2.165714    1.699221   -0.496796
     43          1           0       -0.453066    1.914924   -0.898678
     44          8           0        1.517983    0.420306    0.569392
     45          7           0        0.666671   -1.417996   -0.475175
     46          1           0       -0.159746   -1.914943   -0.792224
     47          6           0        1.932466   -1.959869   -0.960885
     48          1           0        2.722177   -1.679471   -0.256283
     49          6           0        2.281235   -1.368771   -2.344755
     50          6           0        1.828517   -3.493657   -1.045868
     51          1           0        2.764639   -3.856468   -1.486279
     52          8           0        2.658391   -2.080748   -3.284082
     53          6           0        1.614467   -4.138662    0.315262
     54          1           0        2.443115   -3.895402    0.988638
     55          1           0        1.556384   -5.224052    0.199448
     56          1           0        0.681116   -3.793834    0.771974
     57          8           0        0.718060   -3.834907   -1.878922
     58          1           0        1.007424   -3.673517   -2.793463
     59          7           0        2.143248   -0.030133   -2.457406
     60          1           0        1.963537    0.554988   -1.647457
     61          6           0        2.413424    0.703285   -3.689416
     62          1           0        2.094849    0.088470   -4.537179
     63          6           0        3.927952    0.965753   -3.760995
     64          6           0        1.629017    2.022329   -3.635373
     65          1           0        0.558082    1.806668   -3.683837
     66          1           0        1.900810    2.644662   -4.498240
     67          8           0        4.410428    2.060885   -3.428296
     68          8           0        1.855472    2.690181   -2.403294
     69          1           0        2.803020    2.922930   -2.412069
     70          7           0        4.679654   -0.091035   -4.134516
     71          1           0        4.209440   -0.992528   -4.201147
     72          6           0        6.139932   -0.063578   -4.063289
     73          1           0        6.543337   -0.838029   -4.715446
     74          1           0        6.479479    0.918392   -4.405243
     75          6           0        6.633654   -0.345874   -2.633004
     76          8           0        7.231167   -1.366610   -2.334030
     77          7           0        6.309042    0.645026   -1.735079
     78          1           0        5.715502    1.402345   -2.070168
     79          6           0        6.353849    0.401138   -0.302719
     80          1           0        7.009138   -0.456888   -0.141973
     81          6           0        4.956626   -0.009737    0.176774
     82          6           0        6.869311    1.640724    0.443314
     83          1           0        7.880184    1.861261    0.080356
     84          1           0        6.232570    2.496796    0.187954
     85          8           0        4.684133   -1.112357    0.608361
     86          6           0        6.875844    1.444282    1.964694
     87          1           0        5.858742    1.219003    2.310598
     88          1           0        7.499270    0.579029    2.225731
     89          6           0        7.388393    2.693550    2.699856
     90          1           0        6.764662    3.556545    2.427589
     91          1           0        8.415714    2.916711    2.379895
     92          6           0        7.348832    2.485158    4.207284
     93          1           0        6.337069    2.297925    4.575499
     94          1           0        8.002804    1.673498    4.535584
     95          7           0        7.836222    3.741585    4.939774
     96          1           0        7.819968    3.629206    5.961163
     97          1           0        7.249675    4.552337    4.705143
     98          1           0        8.798762    3.975613    4.666023
     99          8           0        4.076667    0.991781    0.037271
    100          1           0        3.164782    0.683347    0.305012
 ---------------------------------------------------------------------

 SCF Done:  E(RB3LYP) =  -2418.57569574     A.U. after    1 cycles

 Alpha  occ. eigenvalues --  -19.26225 -19.21923 -19.21785 -19.21492 -19.21038
 Alpha  occ. eigenvalues --  -19.20994 -19.20765 -19.18824 -19.18179 -19.16673
 Alpha  occ. eigenvalues --  -19.16542 -14.66078 -14.45561 -14.44629 -14.44559
 Alpha  occ. eigenvalues --  -14.43079 -14.42677 -14.40673 -14.40668 -14.36282
 Alpha  occ. eigenvalues --  -10.43024 -10.39620 -10.38295 -10.37519 -10.37492
 Alpha  occ. eigenvalues --  -10.36014 -10.35600 -10.35185 -10.34086 -10.33193
 Alpha  occ. eigenvalues --  -10.32007 -10.31825 -10.31495 -10.30872 -10.30871
 Alpha  occ. eigenvalues --  -10.30730 -10.30693 -10.30305 -10.29648 -10.28457
 Alpha  occ. eigenvalues --  -10.28168 -10.24940 -10.24455 -10.24081 -10.23681
 Alpha  occ. eigenvalues --  -10.22936 -10.22451 -10.22387  -1.19909  -1.17682
 Alpha  occ. eigenvalues --   -1.13517  -1.12928  -1.12038  -1.10639  -1.10140
 Alpha  occ. eigenvalues --   -1.08919  -1.08869  -1.08475  -1.08450  -1.07988
 Alpha  occ. eigenvalues --   -1.02138  -1.01142  -1.00432  -0.99786  -0.99372
 Alpha  occ. eigenvalues --   -0.97534  -0.96650  -0.95485  -0.93785  -0.89771
 Alpha  occ. eigenvalues --   -0.86994  -0.86170  -0.84799  -0.83790  -0.82957
 Alpha  occ. eigenvalues --   -0.81185  -0.80575  -0.78903  -0.78700  -0.78500
 Alpha  occ. eigenvalues --   -0.77919  -0.75843  -0.75698  -0.72677  -0.72380
 Alpha  occ. eigenvalues --   -0.71919  -0.70386  -0.69528  -0.68703  -0.68408
 Alpha  occ. eigenvalues --   -0.67651  -0.67412  -0.66703  -0.65975  -0.65389
 Alpha  occ. eigenvalues --   -0.65270  -0.64155  -0.64043  -0.63218  -0.62512
 Alpha  occ. eigenvalues --   -0.61346  -0.60955  -0.60425  -0.59609  -0.58971
 Alpha  occ. eigenvalues --   -0.58793  -0.58297  -0.57791  -0.57568  -0.56923
 Alpha  occ. eigenvalues --   -0.56723  -0.56292  -0.55589  -0.55176  -0.54735
 Alpha  occ. eigenvalues --   -0.54522  -0.53893  -0.53424  -0.53315  -0.53020
 Alpha  occ. eigenvalues --   -0.52583  -0.52456  -0.51852  -0.51312  -0.51123
 Alpha  occ. eigenvalues --   -0.50777  -0.50529  -0.50328  -0.50035  -0.49711
 Alpha  occ. eigenvalues --   -0.49595  -0.49060  -0.48808  -0.48629  -0.48421
 Alpha  occ. eigenvalues --   -0.47837  -0.47671  -0.47370  -0.47091  -0.46851
 Alpha  occ. eigenvalues --   -0.46363  -0.46099  -0.46025  -0.45837  -0.45678
 Alpha  occ. eigenvalues --   -0.45306  -0.45013  -0.44538  -0.44418  -0.44313
 Alpha  occ. eigenvalues --   -0.44081  -0.43872  -0.43572  -0.43329  -0.43054
 Alpha  occ. eigenvalues --   -0.42970  -0.42723  -0.41908  -0.41744  -0.41089
 Alpha  occ. eigenvalues --   -0.41002  -0.39895  -0.39687  -0.39456  -0.38352
 Alpha  occ. eigenvalues --   -0.37946  -0.37381  -0.37064  -0.36690  -0.36559
 Alpha  occ. eigenvalues --   -0.35956  -0.35740  -0.34873  -0.34382  -0.33073
 Alpha  occ. eigenvalues --   -0.32911  -0.32443  -0.32210  -0.32125  -0.31777
 Alpha  occ. eigenvalues --   -0.31444  -0.31374  -0.30273  -0.29816  -0.28448
 Alpha virt. eigenvalues --   -0.16381  -0.09674  -0.09663  -0.08433  -0.08167
 Alpha virt. eigenvalues --   -0.07538  -0.07011  -0.05584  -0.04451  -0.04337
 Alpha virt. eigenvalues --   -0.03982  -0.03325  -0.02571  -0.02507  -0.01549

 Mulliken charges:
               1
     1  N   -0.694287
     2  H    0.316020
     3  H    0.304343
     4  C   -0.086270
     5  H    0.133387
     6  C    0.588791
     7  C   -0.332978
     8  H    0.172651
     9  H    0.183556
    10  O   -0.528997
    11  C    0.569391
    12  N   -0.739338
    13  H    0.368169
    14  H    0.336440
    15  O   -0.517518
    16  N   -0.592275
    17  H    0.341029
    18  C   -0.063264
    19  H    0.171240
    20  C    0.664558
    21  C   -0.066585
    22  H    0.110755
    23  O   -0.571235
    24  C   -0.267531
    25  H    0.152608
    26  H    0.141956
    27  C   -0.449588
    28  H    0.163898
    29  H    0.139361
    30  H    0.146357
    31  C   -0.449604
    32  H    0.152765
    33  H    0.134405
    34  H    0.148447
    35  N   -0.600263
    36  H    0.345897
    37  C   -0.054356
    38  H    0.181377
    39  C    0.642765
    40  C   -0.476776
    41  H    0.140168
    42  H    0.215950
    43  H    0.183653
    44  O   -0.594952
    45  N   -0.582352
    46  H    0.361038
    47  C   -0.120336
    48  H    0.232229
    49  C    0.631035
    50  C    0.104883
    51  H    0.164988
    52  O   -0.556583
    53  C   -0.451103
    54  H    0.159813
    55  H    0.175079
    56  H    0.150498
    57  O   -0.641575
    58  H    0.414185
    59  N   -0.616982
    60  H    0.375433
    61  C   -0.089163
    62  H    0.187746
    63  C    0.628408
    64  C   -0.050536
    65  H    0.166429
    66  H    0.160624
    67  O   -0.566023
    68  O   -0.631388
    69  H    0.418485
    70  N   -0.587389
    71  H    0.383499
    72  C   -0.243611
    73  H    0.198572
    74  H    0.199700
    75  C    0.585753
    76  O   -0.484146
    77  N   -0.625509
    78  H    0.374911
    79  C   -0.027665
    80  H    0.202087
    81  C    0.572945
    82  C   -0.280116
    83  H    0.164149
    84  H    0.165441
    85  O   -0.468403
    86  C   -0.285779
    87  H    0.174015
    88  H    0.169831
    89  C   -0.292418
    90  H    0.173816
    91  H    0.172633
    92  C   -0.207781
    93  H    0.234260
    94  H    0.233523
    95  N   -0.732129
    96  H    0.434009
    97  H    0.429826
    98  H    0.429124
    99  O   -0.619573
   100  H    0.467470
 Sum of Mulliken charges =   1.00000

 Dipole moment (field-independent basis, Debye):
    X=             30.3526    Y=             14.2809    Z=             18.3000  Tot=             38.2114
 Quadrupole moment (field-independent basis, Debye-Ang):
   XX=             -4.6180   YY=           -249.9479   ZZ=           -155.4851
   XY=            134.9563   XZ=            151.4970   YZ=             70.5941

 Normal termination of Gaussian 16 at Mon Jun  6 02:57:31 2022.
