 Gaussian 16, Revision C.01,
 Gaussian 16:  ES64L-G16RevC.01  3-Jul-2019

 ----------------------------------------------------------------------
 # B3LYP/6-31G* empiricaldispersion=gd3 guess=read geom=check nosymm in
 tegral(ultrafinegrid)
 ----------------------------------------------------------------------

 ------------------------------------------------------
 Candidate Structure: Conf:205 Charge calc in gas phase
 ------------------------------------------------------
 Structure from the checkpoint file:  "conf-205.chk"
 Charge =  1 Multiplicity = 1

                          Input orientation:
 ---------------------------------------------------------------------
 Center     Atomic      Atomic             Coordinates (Angstroms)
 Number     Number       Type             X           Y           Z
 ---------------------------------------------------------------------
      1          7           0       -4.839387    0.800374    4.463499
      2          1           0       -5.804200    0.498954    4.591785
      3          1           0       -4.661234    1.504576    5.180346
      4          6           0       -4.744095    1.412720    3.133327
      5          1           0       -5.229552    0.714390    2.439449
      6          6           0       -3.282686    1.495539    2.678221
      7          6           0       -5.440756    2.770622    2.973559
      8          1           0       -5.060887    3.481819    3.720635
      9          1           0       -5.200031    3.195721    1.992369
     10          8           0       -2.923467    2.198597    1.724464
     11          6           0       -6.955956    2.625125    3.130368
     12          7           0       -7.662891    3.780552    3.002722
     13          1           0       -8.671281    3.733862    3.055541
     14          1           0       -7.234488    4.651522    2.726684
     15          8           0       -7.493728    1.547483    3.365177
     16          7           0       -2.436188    0.704585    3.377742
     17          1           0       -2.869132    0.128096    4.095779
     18          6           0       -1.007118    0.661979    3.097357
     19          1           0       -0.718559    1.677391    2.799071
     20          6           0       -0.790038   -0.269875    1.885831
     21          6           0       -0.159310    0.231402    4.307096
     22          1           0       -0.344873   -0.838458    4.474238
     23          8           0       -0.417993   -1.450550    1.995827
     24          6           0       -0.544331    1.007323    5.582142
     25          1           0       -1.611848    0.868613    5.788016
     26          1           0       -0.407683    2.082797    5.398953
     27          6           0        1.329567    0.425051    3.962833
     28          1           0        1.590975    1.490236    3.966765
     29          1           0        1.973382   -0.077477    4.690980
     30          1           0        1.573261    0.036475    2.968294
     31          6           0        0.250314    0.586796    6.823811
     32          1           0       -0.129466    1.096620    7.715075
     33          1           0        0.166746   -0.493247    6.997747
     34          1           0        1.313768    0.832262    6.735495
     35          7           0       -1.066279    0.290461    0.695538
     36          1           0       -1.535925    1.198059    0.709980
     37          6           0       -0.972666   -0.441252   -0.555382
     38          1           0       -1.764806   -1.201753   -0.602406
     39          6           0        0.389722   -1.132480   -0.668408
     40          6           0       -1.107201    0.540092   -1.731293
     41          1           0       -0.960913    0.041219   -2.693887
     42          1           0       -2.097712    1.006451   -1.719533
     43          1           0       -0.346766    1.321959   -1.637712
     44          8           0        1.440467   -0.564439   -0.332973
     45          7           0        0.379904   -2.357103   -1.244104
     46          1           0       -0.508269   -2.751964   -1.527498
     47          6           0        1.594502   -2.984012   -1.763898
     48          1           0        2.437679   -2.498825   -1.270463
     49          6           0        1.742752   -2.667456   -3.267115
     50          6           0        1.652871   -4.485819   -1.465487
     51          1           0        0.849842   -4.997030   -2.013166
     52          8           0        1.822795   -3.543094   -4.127303
     53          6           0        3.003077   -5.102671   -1.819040
     54          1           0        3.148136   -5.098187   -2.899590
     55          1           0        3.042478   -6.141400   -1.469745
     56          1           0        3.816390   -4.537122   -1.353453
     57          8           0        1.398466   -4.604742   -0.044486
     58          1           0        1.434423   -5.544861    0.191667
     59          7           0        1.753494   -1.338190   -3.536293
     60          1           0        1.942387   -0.711934   -2.759458
     61          6           0        2.116513   -0.832249   -4.862996
     62          1           0        1.721283   -1.541177   -5.594210
     63          6           0        3.656898   -0.787307   -4.888943
     64          6           0        1.510453    0.544496   -5.093521
     65          1           0        1.821121    0.895065   -6.087671
     66          1           0        1.918462    1.251000   -4.356246
     67          8           0        4.281412    0.238388   -4.652521
     68          8           0        0.096662    0.413221   -4.988123
     69          1           0       -0.299686    1.261747   -5.237252
     70          7           0        4.260645   -2.007659   -5.058024
     71          1           0        3.644691   -2.814692   -5.022239
     72          6           0        5.579862   -2.170625   -4.480845
     73          1           0        5.946186   -3.177216   -4.705981
     74          1           0        6.268631   -1.449321   -4.928696
     75          6           0        5.523850   -1.971912   -2.951827
     76          8           0        4.470568   -2.111071   -2.323268
     77          7           0        6.685850   -1.658797   -2.340489
     78          1           0        7.519819   -1.438005   -2.874805
     79          6           0        6.699943   -1.253564   -0.941992
     80          1           0        6.015529   -0.401124   -0.821859
     81          6           0        8.093647   -0.723404   -0.637436
     82          6           0        6.250329   -2.372274    0.047253
     83          1           0        6.014759   -3.264786   -0.538646
     84          1           0        7.070542   -2.635664    0.723613
     85          8           0        9.000580   -0.659469   -1.436857
     86          6           0        5.021957   -1.946342    0.859702
     87          1           0        5.280539   -1.080017    1.484067
     88          1           0        4.258117   -1.613829    0.146164
     89          6           0        4.483994   -3.072311    1.751465
     90          1           0        5.255236   -3.382368    2.467123
     91          1           0        4.251650   -3.957443    1.142397
     92          6           0        3.240292   -2.683356    2.552118
     93          1           0        2.954055   -3.470804    3.254526
     94          1           0        3.396413   -1.760529    3.117872
     95          7           0        2.067188   -2.457773    1.650599
     96          1           0        1.189087   -2.177417    2.132795
     97          1           0        1.842151   -3.305620    1.086760
     98          1           0        2.214493   -1.693097    0.965954
     99          8           0        8.184643   -0.312412    0.642172
    100          1           0        9.090199    0.028741    0.772801
 ---------------------------------------------------------------------

 SCF Done:  E(RB3LYP) =  -2418.62468694     A.U. after    1 cycles

 Alpha  occ. eigenvalues --  -19.29084 -19.27684 -19.23610 -19.23187 -19.22788
 Alpha  occ. eigenvalues --  -19.22490 -19.21518 -19.21034 -19.20216 -19.19687
 Alpha  occ. eigenvalues --  -19.18297 -14.52091 -14.47822 -14.45524 -14.45138
 Alpha  occ. eigenvalues --  -14.45091 -14.44378 -14.43280 -14.42507 -14.39700
 Alpha  occ. eigenvalues --  -10.41599 -10.40281 -10.38799 -10.38538 -10.37940
 Alpha  occ. eigenvalues --  -10.36881 -10.36465 -10.36053 -10.35203 -10.35126
 Alpha  occ. eigenvalues --  -10.33929 -10.33602 -10.33422 -10.32241 -10.31390
 Alpha  occ. eigenvalues --  -10.31354 -10.31322 -10.30305 -10.30065 -10.28479
 Alpha  occ. eigenvalues --  -10.28406 -10.28270 -10.27532 -10.26976 -10.26919
 Alpha  occ. eigenvalues --  -10.26826 -10.26328 -10.24923  -1.20081  -1.15487
 Alpha  occ. eigenvalues --   -1.14324  -1.13692  -1.13415  -1.12893  -1.11768
 Alpha  occ. eigenvalues --   -1.11394  -1.11193  -1.10054  -1.09887  -1.08039
 Alpha  occ. eigenvalues --   -1.04044  -1.02534  -1.01771  -1.01483  -1.01287
 Alpha  occ. eigenvalues --   -0.99815  -0.97226  -0.96695  -0.91080  -0.89965
 Alpha  occ. eigenvalues --   -0.89411  -0.87268  -0.86836  -0.85209  -0.83408
 Alpha  occ. eigenvalues --   -0.82229  -0.82151  -0.80631  -0.79644  -0.79247
 Alpha  occ. eigenvalues --   -0.75027  -0.74908  -0.73763  -0.73377  -0.72571
 Alpha  occ. eigenvalues --   -0.71672  -0.70356  -0.69875  -0.69541  -0.68605
 Alpha  occ. eigenvalues --   -0.67631  -0.67157  -0.66640  -0.66466  -0.66070
 Alpha  occ. eigenvalues --   -0.65763  -0.65502  -0.64277  -0.64040  -0.62711
 Alpha  occ. eigenvalues --   -0.62105  -0.61314  -0.61188  -0.61029  -0.60840
 Alpha  occ. eigenvalues --   -0.60030  -0.59439  -0.58604  -0.58462  -0.57558
 Alpha  occ. eigenvalues --   -0.57467  -0.57033  -0.56866  -0.56632  -0.55955
 Alpha  occ. eigenvalues --   -0.55553  -0.55394  -0.55302  -0.54480  -0.54311
 Alpha  occ. eigenvalues --   -0.53822  -0.53557  -0.53470  -0.53285  -0.52654
 Alpha  occ. eigenvalues --   -0.52484  -0.52299  -0.51940  -0.51601  -0.51047
 Alpha  occ. eigenvalues --   -0.50941  -0.50590  -0.50220  -0.49927  -0.49637
 Alpha  occ. eigenvalues --   -0.49162  -0.49140  -0.48775  -0.48636  -0.48499
 Alpha  occ. eigenvalues --   -0.48317  -0.48186  -0.47943  -0.47789  -0.47410
 Alpha  occ. eigenvalues --   -0.47194  -0.47014  -0.46907  -0.46757  -0.46583
 Alpha  occ. eigenvalues --   -0.45983  -0.45734  -0.45442  -0.45301  -0.44637
 Alpha  occ. eigenvalues --   -0.44395  -0.44249  -0.43946  -0.43895  -0.43663
 Alpha  occ. eigenvalues --   -0.43093  -0.42548  -0.41759  -0.41582  -0.41167
 Alpha  occ. eigenvalues --   -0.40887  -0.40685  -0.39614  -0.38684  -0.37495
 Alpha  occ. eigenvalues --   -0.37301  -0.37260  -0.36597  -0.35967  -0.35544
 Alpha  occ. eigenvalues --   -0.35267  -0.34962  -0.34859  -0.34110  -0.33752
 Alpha  occ. eigenvalues --   -0.33475  -0.33412  -0.32604  -0.31980  -0.31550
 Alpha virt. eigenvalues --   -0.10371  -0.08818  -0.08578  -0.08147  -0.06825
 Alpha virt. eigenvalues --   -0.06051  -0.05312  -0.04407  -0.04018  -0.02930
 Alpha virt. eigenvalues --   -0.02350  -0.01489  -0.01017  -0.00516   0.00184

 Mulliken charges:
               1
     1  N   -0.759101
     2  H    0.349074
     3  H    0.306180
     4  C   -0.063169
     5  H    0.195326
     6  C    0.618479
     7  C   -0.389740
     8  H    0.165649
     9  H    0.196215
    10  O   -0.567082
    11  C    0.612042
    12  N   -0.748643
    13  H    0.354212
    14  H    0.345380
    15  O   -0.511494
    16  N   -0.612894
    17  H    0.372813
    18  C   -0.039231
    19  H    0.176904
    20  C    0.645926
    21  C   -0.096310
    22  H    0.142357
    23  O   -0.596033
    24  C   -0.260063
    25  H    0.140245
    26  H    0.141063
    27  C   -0.478924
    28  H    0.164461
    29  H    0.158870
    30  H    0.132483
    31  C   -0.452599
    32  H    0.162534
    33  H    0.146431
    34  H    0.152341
    35  N   -0.605274
    36  H    0.389318
    37  C   -0.016743
    38  H    0.163913
    39  C    0.643128
    40  C   -0.510103
    41  H    0.205848
    42  H    0.180512
    43  H    0.179549
    44  O   -0.585444
    45  N   -0.577996
    46  H    0.349936
    47  C   -0.130202
    48  H    0.220949
    49  C    0.665874
    50  C    0.136698
    51  H    0.159775
    52  O   -0.541134
    53  C   -0.486487
    54  H    0.201166
    55  H    0.145671
    56  H    0.169302
    57  O   -0.657740
    58  H    0.419051
    59  N   -0.581379
    60  H    0.357303
    61  C   -0.094844
    62  H    0.200486
    63  C    0.618719
    64  C   -0.042497
    65  H    0.158711
    66  H    0.151353
    67  O   -0.518315
    68  O   -0.617846
    69  H    0.407473
    70  N   -0.576521
    71  H    0.362799
    72  C   -0.252824
    73  H    0.192644
    74  H    0.203194
    75  C    0.634076
    76  O   -0.555710
    77  N   -0.621936
    78  H    0.363710
    79  C   -0.002106
    80  H    0.201640
    81  C    0.567010
    82  C   -0.271994
    83  H    0.172219
    84  H    0.167029
    85  O   -0.452483
    86  C   -0.305357
    87  H    0.157926
    88  H    0.177827
    89  C   -0.289800
    90  H    0.175167
    91  H    0.154615
    92  C   -0.177823
    93  H    0.190421
    94  H    0.196291
    95  N   -0.842750
    96  H    0.438097
    97  H    0.433741
    98  H    0.433085
    99  O   -0.565181
   100  H    0.430559
 Sum of Mulliken charges =   1.00000

 Dipole moment (field-independent basis, Debye):
    X=              6.1811    Y=             -4.9050    Z=              5.3343  Tot=              9.5247
 Quadrupole moment (field-independent basis, Debye-Ang):
   XX=           -185.2624   YY=           -214.5745   ZZ=           -230.1900
   XY=            -66.5359   XZ=             -0.1114   YZ=              9.7993

 Normal termination of Gaussian 16 at Mon Jun  6 02:57:36 2022.
