 Gaussian 16, Revision C.01,
 Gaussian 16:  ES64L-G16RevC.01  3-Jul-2019

 ----------------------------------------------------------------------
 # B3LYP/6-31G* empiricaldispersion=gd3 guess=read geom=check nosymm in
 tegral(ultrafinegrid)
 ----------------------------------------------------------------------

 ------------------------------------------------------
 Candidate Structure: Conf:535 Charge calc in gas phase
 ------------------------------------------------------
 Structure from the checkpoint file:  "conf-535.chk"
 Charge =  1 Multiplicity = 1

                          Input orientation:
 ---------------------------------------------------------------------
 Center     Atomic      Atomic             Coordinates (Angstroms)
 Number     Number       Type             X           Y           Z
 ---------------------------------------------------------------------
      1          7           0       -7.435145    0.392862    2.684929
      2          1           0       -8.356902    0.174063    2.310223
      3          1           0       -7.563207    0.566384    3.682367
      4          6           0       -6.970448    1.617595    2.024645
      5          1           0       -7.127658    1.464254    0.949206
      6          6           0       -5.456527    1.792204    2.200141
      7          6           0       -7.709182    2.905083    2.414337
      8          1           0       -7.666381    3.050904    3.503036
      9          1           0       -7.203282    3.768902    1.967923
     10          8           0       -4.887835    2.867707    1.964012
     11          6           0       -9.169896    2.856444    1.964126
     12          7           0       -9.902876    3.963510    2.265963
     13          1           0      -10.861466    4.004086    1.947998
     14          1           0       -9.488720    4.797118    2.655688
     15          8           0       -9.652401    1.888219    1.385079
     16          7           0       -4.806761    0.672790    2.585472
     17          1           0       -5.387098   -0.157213    2.682253
     18          6           0       -3.366291    0.630250    2.825775
     19          1           0       -3.090106    1.604226    3.249476
     20          6           0       -2.669858    0.489838    1.455532
     21          6           0       -2.967496   -0.485483    3.808697
     22          1           0       -3.170266   -1.445173    3.313201
     23          8           0       -2.210774   -0.581402    1.039561
     24          6           0       -3.796789   -0.405364    5.107070
     25          1           0       -4.865700   -0.409909    4.863125
     26          1           0       -3.601648    0.561693    5.593236
     27          6           0       -1.458566   -0.400293    4.093375
     28          1           0       -1.221047    0.517496    4.647003
     29          1           0       -1.130451   -1.248767    4.701058
     30          1           0       -0.877585   -0.403583    3.168191
     31          6           0       -3.520269   -1.545912    6.093351
     32          1           0       -4.204533   -1.492290    6.946781
     33          1           0       -3.660940   -2.522710    5.614164
     34          1           0       -2.500288   -1.510829    6.489338
     35          7           0       -2.641075    1.635411    0.730891
     36          1           0       -3.195222    2.414524    1.094697
     37          6           0       -2.327262    1.632319   -0.700502
     38          1           0       -2.692390    0.684322   -1.118357
     39          6           0       -0.800382    1.649758   -0.913691
     40          6           0       -3.004385    2.810498   -1.393097
     41          1           0       -2.845767    2.761363   -2.473779
     42          1           0       -4.079968    2.785373   -1.195502
     43          1           0       -2.597657    3.759403   -1.032547
     44          8           0       -0.220522    2.602193   -1.472980
     45          7           0       -0.156491    0.550379   -0.480347
     46          1           0       -0.712077   -0.129579    0.053949
     47          6           0        1.299805    0.418824   -0.495206
     48          1           0        1.739297    1.379868   -0.200269
     49          6           0        1.714959    0.087904   -1.940914
     50          6           0        1.746901   -0.652311    0.504984
     51          1           0        1.303416   -1.611117    0.197253
     52          8           0        1.920717   -1.074616   -2.316974
     53          6           0        3.268926   -0.782738    0.562500
     54          1           0        3.678704   -1.108632   -0.397937
     55          1           0        3.550319   -1.524366    1.318131
     56          1           0        3.721026    0.173961    0.845519
     57          8           0        1.216596   -0.223211    1.756401
     58          1           0        1.338459   -0.936101    2.401978
     59          7           0        1.758275    1.170102   -2.755183
     60          1           0        1.317587    1.995956   -2.336350
     61          6           0        1.644513    1.032335   -4.204208
     62          1           0        1.142703    0.088467   -4.434691
     63          6           0        2.990949    0.997068   -4.924396
     64          6           0        0.764691    2.181816   -4.765158
     65          1           0        0.711304    2.059832   -5.851046
     66          1           0        1.259261    3.144731   -4.559018
     67          8           0        3.138641    0.318987   -5.944843
     68          8           0       -0.545029    2.128772   -4.259010
     69          1           0       -0.558874    2.528962   -3.368368
     70          7           0        3.968680    1.801761   -4.439565
     71          1           0        3.865924    2.165542   -3.502103
     72          6           0        5.264681    1.853458   -5.089909
     73          1           0        5.144803    2.240315   -6.107042
     74          1           0        5.900880    2.547606   -4.533426
     75          6           0        5.936886    0.467384   -5.110783
     76          8           0        5.767824   -0.320663   -4.174641
     77          7           0        6.674512    0.212611   -6.215502
     78          1           0        6.781386    0.932191   -6.923214
     79          6           0        7.398993   -1.025285   -6.499392
     80          1           0        7.808721   -1.409941   -5.559762
     81          6           0        8.544259   -0.670149   -7.438397
     82          6           0        6.505732   -2.139475   -7.141704
     83          1           0        6.219492   -1.847251   -8.159627
     84          1           0        7.103352   -3.054553   -7.208950
     85          8           0        8.633411    0.378942   -8.037726
     86          6           0        5.285687   -2.279975   -6.239835
     87          1           0        5.685362   -2.391848   -5.228730
     88          1           0        4.783711   -1.311264   -6.281763
     89          6           0        4.182129   -3.323200   -6.418020
     90          1           0        4.506414   -4.324288   -6.107880
     91          1           0        3.842727   -3.401354   -7.457118
     92          6           0        2.976643   -2.844350   -5.580581
     93          1           0        2.495804   -1.989702   -6.059729
     94          1           0        2.238273   -3.628614   -5.399975
     95          7           0        3.406804   -2.323800   -4.219038
     96          1           0        2.637367   -1.880898   -3.660002
     97          1           0        4.133236   -1.588522   -4.299571
     98          1           0        3.807017   -3.067203   -3.639497
     99          8           0        9.411294   -1.688919   -7.551707
    100          1           0       10.097858   -1.423311   -8.193904
 ---------------------------------------------------------------------

 SCF Done:  E(RB3LYP) =  -2418.61156632     A.U. after    1 cycles

 Alpha  occ. eigenvalues --  -19.29575 -19.24642 -19.24143 -19.23434 -19.22955
 Alpha  occ. eigenvalues --  -19.22546 -19.22269 -19.22119 -19.19815 -19.18553
 Alpha  occ. eigenvalues --  -19.17252 -14.54733 -14.47410 -14.47078 -14.46739
 Alpha  occ. eigenvalues --  -14.45039 -14.43091 -14.42640 -14.41490 -14.38335
 Alpha  occ. eigenvalues --  -10.42201 -10.40674 -10.40118 -10.39647 -10.38276
 Alpha  occ. eigenvalues --  -10.36222 -10.35418 -10.35248 -10.34980 -10.34512
 Alpha  occ. eigenvalues --  -10.34004 -10.33437 -10.33386 -10.33299 -10.33080
 Alpha  occ. eigenvalues --  -10.31544 -10.30306 -10.30067 -10.29466 -10.28926
 Alpha  occ. eigenvalues --  -10.28236 -10.26518 -10.25674 -10.25630 -10.25363
 Alpha  occ. eigenvalues --  -10.24125 -10.23257 -10.22888  -1.20628  -1.15914
 Alpha  occ. eigenvalues --   -1.15062  -1.13850  -1.13379  -1.11837  -1.11423
 Alpha  occ. eigenvalues --   -1.11011  -1.10172  -1.10008  -1.09676  -1.08991
 Alpha  occ. eigenvalues --   -1.04220  -1.03462  -1.02875  -1.01665  -1.00077
 Alpha  occ. eigenvalues --   -0.99355  -0.96184  -0.95269  -0.91639  -0.89074
 Alpha  occ. eigenvalues --   -0.88215  -0.87306  -0.86362  -0.84699  -0.83292
 Alpha  occ. eigenvalues --   -0.82087  -0.81478  -0.80107  -0.79858  -0.76669
 Alpha  occ. eigenvalues --   -0.75791  -0.74643  -0.73218  -0.72696  -0.72002
 Alpha  occ. eigenvalues --   -0.71361  -0.70590  -0.70078  -0.69049  -0.68921
 Alpha  occ. eigenvalues --   -0.68541  -0.67951  -0.66836  -0.66648  -0.65554
 Alpha  occ. eigenvalues --   -0.64625  -0.64212  -0.63954  -0.63236  -0.62338
 Alpha  occ. eigenvalues --   -0.62195  -0.61009  -0.60471  -0.60251  -0.60058
 Alpha  occ. eigenvalues --   -0.59822  -0.59424  -0.59227  -0.58364  -0.58292
 Alpha  occ. eigenvalues --   -0.57805  -0.57658  -0.57129  -0.56797  -0.56138
 Alpha  occ. eigenvalues --   -0.55867  -0.55314  -0.54769  -0.54469  -0.54083
 Alpha  occ. eigenvalues --   -0.53732  -0.53103  -0.52804  -0.52358  -0.52241
 Alpha  occ. eigenvalues --   -0.51948  -0.51749  -0.51608  -0.51384  -0.50920
 Alpha  occ. eigenvalues --   -0.50722  -0.50527  -0.50198  -0.49898  -0.49586
 Alpha  occ. eigenvalues --   -0.49167  -0.48937  -0.48707  -0.48318  -0.48130
 Alpha  occ. eigenvalues --   -0.47744  -0.47313  -0.47275  -0.46953  -0.46841
 Alpha  occ. eigenvalues --   -0.46638  -0.46174  -0.46056  -0.45797  -0.45598
 Alpha  occ. eigenvalues --   -0.45106  -0.44858  -0.44719  -0.44201  -0.43989
 Alpha  occ. eigenvalues --   -0.43592  -0.43198  -0.43039  -0.42754  -0.41850
 Alpha  occ. eigenvalues --   -0.41686  -0.41621  -0.41581  -0.41145  -0.39552
 Alpha  occ. eigenvalues --   -0.39192  -0.38911  -0.38561  -0.38317  -0.38178
 Alpha  occ. eigenvalues --   -0.37502  -0.37127  -0.36690  -0.36482  -0.36081
 Alpha  occ. eigenvalues --   -0.35761  -0.35147  -0.34860  -0.34336  -0.33644
 Alpha  occ. eigenvalues --   -0.32750  -0.32589  -0.31451  -0.31215  -0.30245
 Alpha virt. eigenvalues --   -0.10458  -0.09939  -0.09218  -0.08508  -0.07871
 Alpha virt. eigenvalues --   -0.06203  -0.06016  -0.04253  -0.02901  -0.01835
 Alpha virt. eigenvalues --   -0.01408  -0.01200  -0.00105   0.00197   0.00307

 Mulliken charges:
               1
     1  N   -0.757263
     2  H    0.346646
     3  H    0.305328
     4  C   -0.062153
     5  H    0.192162
     6  C    0.617764
     7  C   -0.389278
     8  H    0.164979
     9  H    0.195796
    10  O   -0.570742
    11  C    0.610407
    12  N   -0.748864
    13  H    0.351756
    14  H    0.344259
    15  O   -0.512320
    16  N   -0.610235
    17  H    0.371870
    18  C   -0.038167
    19  H    0.174064
    20  C    0.636208
    21  C   -0.092725
    22  H    0.146702
    23  O   -0.560950
    24  C   -0.256884
    25  H    0.132908
    26  H    0.135530
    27  C   -0.491691
    28  H    0.145082
    29  H    0.151899
    30  H    0.172947
    31  C   -0.450329
    32  H    0.154041
    33  H    0.147051
    34  H    0.152423
    35  N   -0.615217
    36  H    0.389992
    37  C   -0.058623
    38  H    0.187099
    39  C    0.644968
    40  C   -0.481535
    41  H    0.176355
    42  H    0.173203
    43  H    0.179814
    44  O   -0.581801
    45  N   -0.616022
    46  H    0.411040
    47  C   -0.053569
    48  H    0.187327
    49  C    0.643576
    50  C    0.117957
    51  H    0.149332
    52  O   -0.570532
    53  C   -0.472630
    54  H    0.151701
    55  H    0.158759
    56  H    0.165914
    57  O   -0.619365
    58  H    0.409380
    59  N   -0.633360
    60  H    0.383764
    61  C   -0.067422
    62  H    0.175983
    63  C    0.610507
    64  C   -0.063071
    65  H    0.181866
    66  H    0.142735
    67  O   -0.543169
    68  O   -0.635811
    69  H    0.435781
    70  N   -0.568519
    71  H    0.355019
    72  C   -0.235804
    73  H    0.194728
    74  H    0.202708
    75  C    0.638576
    76  O   -0.554891
    77  N   -0.600438
    78  H    0.363394
    79  C   -0.044136
    80  H    0.204334
    81  C    0.588346
    82  C   -0.272526
    83  H    0.163466
    84  H    0.177722
    85  O   -0.454633
    86  C   -0.329317
    87  H    0.149306
    88  H    0.200579
    89  C   -0.276165
    90  H    0.161311
    91  H    0.182745
    92  C   -0.197728
    93  H    0.236040
    94  H    0.195855
    95  N   -0.806422
    96  H    0.443486
    97  H    0.443923
    98  H    0.390655
    99  O   -0.557495
   100  H    0.432733
 Sum of Mulliken charges =   1.00000

 Dipole moment (field-independent basis, Debye):
    X=             11.0140    Y=             -1.5829    Z=            -11.7514  Tot=             16.1836
 Quadrupole moment (field-independent basis, Debye-Ang):
   XX=           -118.0441   YY=           -234.0620   ZZ=           -161.8142
   XY=            -61.5881   XZ=           -132.7766   YZ=             36.9988

 Normal termination of Gaussian 16 at Mon Jun  6 03:05:45 2022.
