 Gaussian 16, Revision C.01,
 Gaussian 16:  ES64L-G16RevC.01  3-Jul-2019

 ----------------------------------------------------------------------
 # B3LYP/6-31G* empiricaldispersion=gd3 guess=read geom=check nosymm in
 tegral(ultrafinegrid)
 ----------------------------------------------------------------------

 ------------------------------------------------------
 Candidate Structure: Conf:123 Charge calc in gas phase
 ------------------------------------------------------
 Structure from the checkpoint file:  "conf-123.chk"
 Charge =  1 Multiplicity = 1

                          Input orientation:
 ---------------------------------------------------------------------
 Center     Atomic      Atomic             Coordinates (Angstroms)
 Number     Number       Type             X           Y           Z
 ---------------------------------------------------------------------
      1          7           0       -7.286453    1.314866    4.430185
      2          1           0       -6.696678    2.107459    4.689764
      3          1           0       -7.439664    0.801276    5.297187
      4          6           0       -6.522094    0.480582    3.508959
      5          1           0       -6.995596   -0.503070    3.438977
      6          6           0       -5.047808    0.327372    3.932119
      7          6           0       -6.559370    1.122936    2.107556
      8          1           0       -7.611545    1.305770    1.857259
      9          1           0       -6.062723    2.100853    2.139791
     10          8           0       -4.464016    1.256477    4.505846
     11          6           0       -5.951928    0.232932    1.027463
     12          7           0       -5.428512    0.885085   -0.050539
     13          1           0       -5.134029    0.322554   -0.838076
     14          1           0       -5.580256    1.871919   -0.200436
     15          8           0       -5.924856   -0.991884    1.116634
     16          7           0       -4.445390   -0.839131    3.596750
     17          1           0       -4.927086   -1.416833    2.911512
     18          6           0       -2.999849   -1.041192    3.749242
     19          1           0       -2.710284   -0.506885    4.660681
     20          6           0       -2.328715   -0.364466    2.534536
     21          6           0       -2.627564   -2.528125    3.879872
     22          1           0       -2.846016   -3.003914    2.913534
     23          8           0       -1.918341   -0.994646    1.556492
     24          6           0       -3.467900   -3.212829    4.976131
     25          1           0       -4.531609   -3.024562    4.789666
     26          1           0       -3.242328   -2.741074    5.944044
     27          6           0       -1.119402   -2.655784    4.147500
     28          1           0       -0.866192   -2.222557    5.125255
     29          1           0       -0.814433   -3.706049    4.164296
     30          1           0       -0.523967   -2.156530    3.379829
     31          6           0       -3.246232   -4.726340    5.074457
     32          1           0       -3.932555   -5.171351    5.803268
     33          1           0       -3.425191   -5.212472    4.107315
     34          1           0       -2.227328   -4.974738    5.388822
     35          7           0       -2.290907    0.993015    2.599776
     36          1           0       -2.771105    1.430658    3.384937
     37          6           0       -2.046806    1.809306    1.405726
     38          1           0       -2.430444    1.243280    0.546622
     39          6           0       -0.534780    2.017027    1.182673
     40          6           0       -2.772353    3.144682    1.525394
     41          1           0       -2.600757    3.750471    0.632492
     42          1           0       -3.846240    2.974185    1.648465
     43          1           0       -2.400804    3.714679    2.381681
     44          8           0       -0.016676    3.138462    1.193595
     45          7           0        0.170605    0.881387    0.963315
     46          1           0       -0.320383   -0.011134    1.050863
     47          6           0        1.629119    0.889348    0.978332
     48          1           0        1.945162    1.679567    1.675201
     49          6           0        2.180273    1.257961   -0.414666
     50          6           0        2.171032   -0.470551    1.465787
     51          1           0        1.986654   -1.214104    0.685264
     52          8           0        2.809012    0.449279   -1.114891
     53          6           0        3.665894   -0.412349    1.773546
     54          1           0        4.238423   -0.155965    0.878620
     55          1           0        3.999536   -1.386645    2.141721
     56          1           0        3.872550    0.336934    2.549972
     57          8           0        1.426051   -0.928351    2.591615
     58          1           0        1.551686   -0.296710    3.318661
     59          7           0        1.920985    2.522302   -0.808527
     60          1           0        1.391019    3.139442   -0.186890
     61          6           0        2.228853    2.987583   -2.156893
     62          1           0        2.047158    2.161671   -2.855999
     63          6           0        3.715441    3.376635   -2.256035
     64          6           0        1.335866    4.178912   -2.519592
     65          1           0        0.289439    3.858830   -2.490882
     66          1           0        1.576987    4.486423   -3.547576
     67          8           0        4.102766    4.545318   -2.340001
     68          8           0        1.465710    5.237600   -1.591649
     69          1           0        2.393999    5.526459   -1.662836
     70          7           0        4.577393    2.322193   -2.288871
     71          1           0        4.188849    1.409409   -2.038593
     72          6           0        6.010630    2.559599   -2.259655
     73          1           0        6.326137    3.080652   -1.349667
     74          1           0        6.520621    1.591794   -2.296692
     75          6           0        6.487789    3.437537   -3.423530
     76          8           0        7.469901    4.160999   -3.322900
     77          7           0        5.756173    3.328993   -4.581816
     78          1           0        4.885081    2.813133   -4.496383
     79          6           0        5.650510    4.490487   -5.448901
     80          1           0        5.949951    5.378401   -4.876712
     81          6           0        4.180028    4.672732   -5.815610
     82          6           0        6.542711    4.403618   -6.705076
     83          1           0        6.241623    3.531725   -7.300746
     84          1           0        6.372948    5.296784   -7.317609
     85          8           0        3.287053    3.917818   -5.495267
     86          6           0        8.021603    4.292231   -6.320272
     87          1           0        8.290852    5.123297   -5.658945
     88          1           0        8.173266    3.383432   -5.728776
     89          6           0        8.947964    4.276605   -7.546420
     90          1           0        8.808339    5.195160   -8.134125
     91          1           0        8.696450    3.427889   -8.198362
     92          6           0       10.396055    4.169818   -7.090670
     93          1           0       10.699298    5.015800   -6.469052
     94          1           0       10.594630    3.242659   -6.547636
     95          7           0       11.349814    4.167167   -8.292935
     96          1           0       12.334975    4.096153   -8.009580
     97          1           0       11.243896    5.027410   -8.844803
     98          1           0       11.146168    3.378874   -8.919696
     99          8           0        3.991231    5.784759   -6.549508
    100          1           0        3.033997    5.854398   -6.729770
 ---------------------------------------------------------------------

 SCF Done:  E(RB3LYP) =  -2418.56230936     A.U. after    2 cycles

 Alpha  occ. eigenvalues --  -19.28914 -19.23488 -19.19778 -19.19333 -19.19210
 Alpha  occ. eigenvalues --  -19.18426 -19.18148 -19.16968 -19.16895 -19.16639
 Alpha  occ. eigenvalues --  -19.16551 -14.65569 -14.42946 -14.42680 -14.41504
 Alpha  occ. eigenvalues --  -14.41452 -14.40416 -14.40309 -14.40282 -14.35448
 Alpha  occ. eigenvalues --  -10.42314 -10.41386 -10.36448 -10.35574 -10.34818
 Alpha  occ. eigenvalues --  -10.34772 -10.34705 -10.33457 -10.33219 -10.32911
 Alpha  occ. eigenvalues --  -10.32777 -10.30489 -10.30176 -10.29497 -10.29095
 Alpha  occ. eigenvalues --  -10.29019 -10.28533 -10.28437 -10.28190 -10.27198
 Alpha  occ. eigenvalues --  -10.26933 -10.24701 -10.22866 -10.22534 -10.22525
 Alpha  occ. eigenvalues --  -10.21219 -10.20316 -10.19890  -1.19913  -1.19395
 Alpha  occ. eigenvalues --   -1.11666  -1.10942  -1.10643  -1.09656  -1.08971
 Alpha  occ. eigenvalues --   -1.08717  -1.08224  -1.07654  -1.07154  -1.06098
 Alpha  occ. eigenvalues --   -1.00748  -0.98978  -0.97973  -0.97436  -0.96985
 Alpha  occ. eigenvalues --   -0.96230  -0.95952  -0.95876  -0.93002  -0.89165
 Alpha  occ. eigenvalues --   -0.84699  -0.84461  -0.83737  -0.82119  -0.81358
 Alpha  occ. eigenvalues --   -0.80877  -0.79648  -0.78739  -0.78010  -0.77262
 Alpha  occ. eigenvalues --   -0.76062  -0.75664  -0.73694  -0.71287  -0.70669
 Alpha  occ. eigenvalues --   -0.70085  -0.69379  -0.68929  -0.67458  -0.66929
 Alpha  occ. eigenvalues --   -0.66709  -0.65735  -0.64955  -0.64504  -0.63783
 Alpha  occ. eigenvalues --   -0.63311  -0.62864  -0.61982  -0.61853  -0.60127
 Alpha  occ. eigenvalues --   -0.60062  -0.59639  -0.58850  -0.58644  -0.57989
 Alpha  occ. eigenvalues --   -0.57726  -0.57479  -0.56778  -0.56547  -0.55850
 Alpha  occ. eigenvalues --   -0.55521  -0.55198  -0.54802  -0.54203  -0.54048
 Alpha  occ. eigenvalues --   -0.53802  -0.52725  -0.52538  -0.52363  -0.52157
 Alpha  occ. eigenvalues --   -0.51864  -0.51512  -0.50644  -0.50310  -0.50122
 Alpha  occ. eigenvalues --   -0.49670  -0.49429  -0.49135  -0.48434  -0.48216
 Alpha  occ. eigenvalues --   -0.47863  -0.47490  -0.47216  -0.47102  -0.46944
 Alpha  occ. eigenvalues --   -0.46736  -0.46573  -0.46300  -0.46125  -0.46100
 Alpha  occ. eigenvalues --   -0.45485  -0.45338  -0.44998  -0.44837  -0.44440
 Alpha  occ. eigenvalues --   -0.43894  -0.43754  -0.43445  -0.43344  -0.43022
 Alpha  occ. eigenvalues --   -0.42549  -0.42522  -0.42202  -0.42110  -0.41584
 Alpha  occ. eigenvalues --   -0.41122  -0.40997  -0.40534  -0.40469  -0.40051
 Alpha  occ. eigenvalues --   -0.39380  -0.38802  -0.38273  -0.37407  -0.37119
 Alpha  occ. eigenvalues --   -0.36281  -0.35695  -0.35220  -0.34420  -0.34348
 Alpha  occ. eigenvalues --   -0.33789  -0.33513  -0.33084  -0.32507  -0.32377
 Alpha  occ. eigenvalues --   -0.32101  -0.31961  -0.31721  -0.31126  -0.30533
 Alpha  occ. eigenvalues --   -0.30092  -0.29605  -0.29095  -0.28455  -0.27990
 Alpha virt. eigenvalues --   -0.15965  -0.09269  -0.09238  -0.08400  -0.06706
 Alpha virt. eigenvalues --   -0.05797  -0.05385  -0.04338  -0.04086  -0.03186
 Alpha virt. eigenvalues --   -0.03121  -0.02867  -0.01882  -0.01493  -0.01192

 Mulliken charges:
               1
     1  N   -0.703213
     2  H    0.314573
     3  H    0.308552
     4  C   -0.071247
     5  H    0.167876
     6  C    0.581476
     7  C   -0.370805
     8  H    0.203299
     9  H    0.163121
    10  O   -0.559465
    11  C    0.609068
    12  N   -0.745692
    13  H    0.351499
    14  H    0.345291
    15  O   -0.521347
    16  N   -0.600203
    17  H    0.374252
    18  C   -0.053024
    19  H    0.172023
    20  C    0.626921
    21  C   -0.087567
    22  H    0.147719
    23  O   -0.549941
    24  C   -0.251670
    25  H    0.137478
    26  H    0.129535
    27  C   -0.493760
    28  H    0.127593
    29  H    0.152587
    30  H    0.200254
    31  C   -0.449248
    32  H    0.147338
    33  H    0.145318
    34  H    0.150136
    35  N   -0.618596
    36  H    0.377477
    37  C   -0.053005
    38  H    0.175866
    39  C    0.621185
    40  C   -0.472526
    41  H    0.169406
    42  H    0.146144
    43  H    0.178819
    44  O   -0.544466
    45  N   -0.621185
    46  H    0.397718
    47  C   -0.078643
    48  H    0.165903
    49  C    0.640746
    50  C    0.128051
    51  H    0.171638
    52  O   -0.567457
    53  C   -0.472697
    54  H    0.162400
    55  H    0.169633
    56  H    0.133883
    57  O   -0.611826
    58  H    0.390401
    59  N   -0.616638
    60  H    0.400477
    61  C   -0.074111
    62  H    0.177717
    63  C    0.623431
    64  C   -0.059275
    65  H    0.152994
    66  H    0.148052
    67  O   -0.547739
    68  O   -0.626248
    69  H    0.415778
    70  N   -0.636619
    71  H    0.387241
    72  C   -0.212962
    73  H    0.203820
    74  H    0.180964
    75  C    0.597459
    76  O   -0.524263
    77  N   -0.596783
    78  H    0.360248
    79  C   -0.042483
    80  H    0.208801
    81  C    0.596319
    82  C   -0.270206
    83  H    0.151194
    84  H    0.165554
    85  O   -0.464432
    86  C   -0.267451
    87  H    0.181151
    88  H    0.179057
    89  C   -0.294920
    90  H    0.166045
    91  H    0.166196
    92  C   -0.206624
    93  H    0.235883
    94  H    0.233580
    95  N   -0.732403
    96  H    0.432571
    97  H    0.427663
    98  H    0.427316
    99  O   -0.562125
   100  H    0.428177
 Sum of Mulliken charges =   1.00000

 Dipole moment (field-independent basis, Debye):
    X=             43.8626    Y=             18.0019    Z=            -36.5592  Tot=             59.8713
 Quadrupole moment (field-independent basis, Debye-Ang):
   XX=            261.8471   YY=           -222.6778   ZZ=             45.7893
   XY=            177.3398   XZ=           -394.5070   YZ=           -167.6027

 Normal termination of Gaussian 16 at Mon Jun  6 02:57:47 2022.
