 Gaussian 16, Revision C.01,
 Gaussian 16:  ES64L-G16RevC.01  3-Jul-2019

 ----------------------------------------------------------------------
 # B3LYP/6-31G* empiricaldispersion=gd3 guess=read geom=check nosymm in
 tegral(ultrafinegrid)
 ----------------------------------------------------------------------

 -----------------------------------------------------
 Candidate Structure: Conf:34 Charge calc in gas phase
 -----------------------------------------------------
 Structure from the checkpoint file:  "conf-34.chk"
 Charge =  1 Multiplicity = 1

                          Input orientation:
 ---------------------------------------------------------------------
 Center     Atomic      Atomic             Coordinates (Angstroms)
 Number     Number       Type             X           Y           Z
 ---------------------------------------------------------------------
      1          7           0       -4.183442    2.211163   -3.042498
      2          1           0       -5.157224    2.171823   -3.328693
      3          1           0       -3.888039    3.183975   -3.004153
      4          6           0       -3.322707    1.454250   -3.940431
      5          1           0       -3.791113    0.472584   -4.091632
      6          6           0       -1.977532    1.159129   -3.251179
      7          6           0       -3.083640    2.053945   -5.340902
      8          1           0       -2.559742    1.332086   -5.977936
      9          1           0       -4.051765    2.257579   -5.816599
     10          8           0       -0.949895    0.904700   -3.928586
     11          6           0       -2.276108    3.340705   -5.294474
     12          7           0       -1.797213    3.798825   -6.510233
     13          1           0       -1.558771    4.785964   -6.530136
     14          1           0       -2.226197    3.454439   -7.362403
     15          8           0       -1.964725    3.908557   -4.253519
     16          7           0       -2.014440    1.155068   -1.926693
     17          1           0       -2.919200    1.332969   -1.488206
     18          6           0       -0.910148    0.803466   -1.044355
     19          1           0       -0.172966    0.250114   -1.635257
     20          6           0       -1.531902   -0.088804    0.047539
     21          6           0       -0.237982    2.062513   -0.419742
     22          1           0       -1.019552    2.582351    0.152450
     23          8           0       -2.670257    0.134406    0.453143
     24          6           0        0.262010    3.013642   -1.525496
     25          1           0       -0.554238    3.199499   -2.232408
     26          1           0        1.065131    2.495532   -2.074143
     27          6           0        0.896495    1.663406    0.537092
     28          1           0        1.684111    1.113462    0.004058
     29          1           0        1.356753    2.548654    0.983518
     30          1           0        0.554483    1.029938    1.358660
     31          6           0        0.772985    4.366672   -1.015533
     32          1           0        1.020105    5.033576   -1.851111
     33          1           0        0.006584    4.870233   -0.415594
     34          1           0        1.671350    4.268195   -0.398994
     35          7           0       -0.748488   -1.092184    0.497175
     36          1           0        0.247742   -1.079802    0.299320
     37          6           0       -1.107112   -1.872240    1.676675
     38          1           0       -1.603371   -1.203407    2.393059
     39          6           0        0.228149   -2.326156    2.294971
     40          6           0       -2.071351   -3.011910    1.320067
     41          1           0       -2.438767   -3.526522    2.214408
     42          1           0       -2.938110   -2.587735    0.807305
     43          1           0       -1.588992   -3.743071    0.663470
     44          8           0        1.287587   -1.779102    1.960543
     45          7           0        0.168624   -3.313921    3.205525
     46          1           0       -0.678789   -3.849829    3.360338
     47          6           0        1.361102   -3.905497    3.812991
     48          1           0        2.050269   -3.099237    4.081592
     49          6           0        2.011990   -4.845481    2.774794
     50          6           0        0.917695   -4.699748    5.061598
     51          1           0        1.786032   -5.280551    5.405029
     52          8           0        1.749096   -6.052596    2.738545
     53          6           0        0.426796   -3.799377    6.186007
     54          1           0        1.226862   -3.137082    6.533455
     55          1           0        0.089455   -4.415387    7.023876
     56          1           0       -0.415396   -3.183791    5.853261
     57          8           0       -0.151273   -5.569589    4.698064
     58          1           0        0.241858   -6.186246    4.047188
     59          7           0        2.842809   -4.236301    1.903075
     60          1           0        2.911030   -3.221361    1.903845
     61          6           0        3.392315   -4.918951    0.751578
     62          1           0        3.706280   -5.925200    1.043683
     63          6           0        4.562522   -4.103525    0.219288
     64          6           0        2.320788   -5.051885   -0.376018
     65          1           0        1.922320   -4.046401   -0.581296
     66          1           0        1.513158   -5.673294    0.021199
     67          8           0        4.690367   -2.904382    0.444582
     68          8           0        2.822993   -5.675169   -1.539862
     69          1           0        3.250280   -4.984159   -2.087407
     70          7           0        5.415553   -4.800159   -0.596003
     71          1           0        5.057055   -5.682449   -0.946130
     72          6           0        6.260809   -4.037938   -1.483432
     73          1           0        6.853796   -3.331676   -0.895537
     74          1           0        6.950140   -4.717563   -1.995307
     75          6           0        5.440646   -3.274945   -2.538774
     76          8           0        4.281668   -3.578107   -2.836582
     77          7           0        6.099060   -2.267334   -3.152339
     78          1           0        7.038018   -2.006330   -2.873487
     79          6           0        5.516707   -1.514272   -4.249898
     80          1           0        5.012613   -2.211281   -4.928063
     81          6           0        6.671818   -0.848703   -4.987353
     82          6           0        4.475078   -0.484111   -3.739705
     83          1           0        3.781430   -1.052465   -3.111241
     84          1           0        4.984547    0.240787   -3.092354
     85          8           0        7.765991   -0.653207   -4.506440
     86          6           0        3.702755    0.233021   -4.853184
     87          1           0        4.387626    0.842045   -5.454029
     88          1           0        3.274009   -0.512111   -5.536932
     89          6           0        2.575926    1.118573   -4.302102
     90          1           0        2.983334    1.830596   -3.570749
     91          1           0        1.828937    0.508018   -3.779831
     92          6           0        1.892392    1.882293   -5.433208
     93          1           0        2.579974    2.568616   -5.935753
     94          1           0        1.483453    1.194176   -6.178335
     95          7           0        0.724701    2.681563   -4.925299
     96          1           0        0.221409    3.165230   -5.681338
     97          1           0        0.996729    3.378644   -4.226718
     98          1           0        0.019876    2.027116   -4.459321
     99          8           0        6.329596   -0.477874   -6.237992
    100          1           0        7.116719   -0.055675   -6.634485
 ---------------------------------------------------------------------

 SCF Done:  E(RB3LYP) =  -2418.62294879     A.U. after    3 cycles

 Alpha  occ. eigenvalues --  -19.29804 -19.25823 -19.24114 -19.23591 -19.21157
 Alpha  occ. eigenvalues --  -19.20111 -19.19977 -19.19730 -19.19388 -19.18979
 Alpha  occ. eigenvalues --  -19.18362 -14.56006 -14.49540 -14.46530 -14.45244
 Alpha  occ. eigenvalues --  -14.43987 -14.43912 -14.42996 -14.42563 -14.42120
 Alpha  occ. eigenvalues --  -10.42921 -10.42081 -10.40214 -10.37957 -10.37299
 Alpha  occ. eigenvalues --  -10.37086 -10.37026 -10.35595 -10.35246 -10.34250
 Alpha  occ. eigenvalues --  -10.33682 -10.32695 -10.31924 -10.31417 -10.31378
 Alpha  occ. eigenvalues --  -10.31049 -10.29879 -10.29850 -10.29605 -10.29485
 Alpha  occ. eigenvalues --  -10.29284 -10.28981 -10.28776 -10.27930 -10.26549
 Alpha  occ. eigenvalues --  -10.25753 -10.25640 -10.23018  -1.20700  -1.17582
 Alpha  occ. eigenvalues --   -1.14853  -1.12978  -1.12419  -1.11769  -1.11652
 Alpha  occ. eigenvalues --   -1.11186  -1.10896  -1.10015  -1.07248  -1.06954
 Alpha  occ. eigenvalues --   -1.03975  -1.03646  -1.01969  -1.00729  -1.00185
 Alpha  occ. eigenvalues --   -0.99786  -0.99683  -0.98721  -0.92495  -0.90584
 Alpha  occ. eigenvalues --   -0.88192  -0.88095  -0.86323  -0.84404  -0.83477
 Alpha  occ. eigenvalues --   -0.82531  -0.81895  -0.80299  -0.79151  -0.77072
 Alpha  occ. eigenvalues --   -0.76723  -0.76153  -0.73914  -0.72754  -0.72588
 Alpha  occ. eigenvalues --   -0.71379  -0.70865  -0.70679  -0.70235  -0.68507
 Alpha  occ. eigenvalues --   -0.68181  -0.67491  -0.67377  -0.66942  -0.66175
 Alpha  occ. eigenvalues --   -0.65881  -0.65433  -0.65071  -0.64226  -0.63795
 Alpha  occ. eigenvalues --   -0.62356  -0.62026  -0.61713  -0.60596  -0.60249
 Alpha  occ. eigenvalues --   -0.59534  -0.59060  -0.58703  -0.58294  -0.58015
 Alpha  occ. eigenvalues --   -0.57727  -0.57386  -0.56694  -0.56457  -0.56211
 Alpha  occ. eigenvalues --   -0.56087  -0.55849  -0.55199  -0.54835  -0.54204
 Alpha  occ. eigenvalues --   -0.54003  -0.53879  -0.53359  -0.53025  -0.52844
 Alpha  occ. eigenvalues --   -0.52606  -0.52177  -0.51954  -0.51528  -0.51248
 Alpha  occ. eigenvalues --   -0.50723  -0.50492  -0.50335  -0.50173  -0.49661
 Alpha  occ. eigenvalues --   -0.49348  -0.49265  -0.48877  -0.48656  -0.48585
 Alpha  occ. eigenvalues --   -0.48289  -0.47771  -0.47612  -0.47442  -0.47344
 Alpha  occ. eigenvalues --   -0.46662  -0.46443  -0.46312  -0.45999  -0.45546
 Alpha  occ. eigenvalues --   -0.45417  -0.45164  -0.45029  -0.44882  -0.44551
 Alpha  occ. eigenvalues --   -0.44026  -0.43793  -0.43610  -0.43255  -0.42434
 Alpha  occ. eigenvalues --   -0.42261  -0.42134  -0.42018  -0.41723  -0.41592
 Alpha  occ. eigenvalues --   -0.41381  -0.39227  -0.39105  -0.38885  -0.38259
 Alpha  occ. eigenvalues --   -0.37875  -0.36881  -0.35769  -0.35384  -0.34995
 Alpha  occ. eigenvalues --   -0.34871  -0.34826  -0.34280  -0.33643  -0.33588
 Alpha  occ. eigenvalues --   -0.33220  -0.32831  -0.32243  -0.30762  -0.30391
 Alpha virt. eigenvalues --   -0.12242  -0.09699  -0.09258  -0.08034  -0.06437
 Alpha virt. eigenvalues --   -0.06373  -0.06029  -0.05106  -0.04844  -0.04011
 Alpha virt. eigenvalues --   -0.03066  -0.02106  -0.02007  -0.01884  -0.00653

 Mulliken charges:
               1
     1  N   -0.739121
     2  H    0.327001
     3  H    0.335699
     4  C   -0.067756
     5  H    0.196374
     6  C    0.653912
     7  C   -0.378356
     8  H    0.189377
     9  H    0.189674
    10  O   -0.635169
    11  C    0.568496
    12  N   -0.764227
    13  H    0.360518
    14  H    0.360275
    15  O   -0.499562
    16  N   -0.568775
    17  H    0.391751
    18  C   -0.069824
    19  H    0.164832
    20  C    0.617868
    21  C   -0.071125
    22  H    0.154729
    23  O   -0.532084
    24  C   -0.302920
    25  H    0.163508
    26  H    0.105174
    27  C   -0.480245
    28  H    0.144518
    29  H    0.168124
    30  H    0.180308
    31  C   -0.451510
    32  H    0.131231
    33  H    0.168690
    34  H    0.164610
    35  N   -0.605433
    36  H    0.359125
    37  C   -0.040767
    38  H    0.200348
    39  C    0.618901
    40  C   -0.465706
    41  H    0.163095
    42  H    0.191464
    43  H    0.164605
    44  O   -0.554830
    45  N   -0.607931
    46  H    0.359840
    47  C   -0.075521
    48  H    0.178140
    49  C    0.633943
    50  C    0.110165
    51  H    0.148456
    52  O   -0.551423
    53  C   -0.449508
    54  H    0.149495
    55  H    0.176781
    56  H    0.149313
    57  O   -0.649246
    58  H    0.423583
    59  N   -0.614352
    60  H    0.380801
    61  C   -0.068809
    62  H    0.192674
    63  C    0.595167
    64  C   -0.044250
    65  H    0.127132
    66  H    0.177476
    67  O   -0.530141
    68  O   -0.651330
    69  H    0.434449
    70  N   -0.570625
    71  H    0.349367
    72  C   -0.253133
    73  H    0.202958
    74  H    0.196924
    75  C    0.646158
    76  O   -0.550241
    77  N   -0.613885
    78  H    0.362103
    79  C   -0.020477
    80  H    0.197506
    81  C    0.578485
    82  C   -0.278035
    83  H    0.190532
    84  H    0.157644
    85  O   -0.451857
    86  C   -0.275735
    87  H    0.158343
    88  H    0.159148
    89  C   -0.293459
    90  H    0.159796
    91  H    0.189182
    92  C   -0.182052
    93  H    0.195480
    94  H    0.203712
    95  N   -0.801491
    96  H    0.404196
    97  H    0.403147
    98  H    0.471888
    99  O   -0.563606
   100  H    0.426325
 Sum of Mulliken charges =   1.00000

 Dipole moment (field-independent basis, Debye):
    X=              3.6016    Y=             10.5903    Z=            -24.3376  Tot=             26.7851
 Quadrupole moment (field-independent basis, Debye-Ang):
   XX=           -211.2027   YY=           -253.0392   ZZ=           -118.3370
   XY=            -22.5696   XZ=             -7.8017   YZ=            -66.8421

 Normal termination of Gaussian 16 at Mon Jun  6 02:58:10 2022.
