 Gaussian 16, Revision C.01,
 Gaussian 16:  ES64L-G16RevC.01  3-Jul-2019

 ----------------------------------------------------------------------
 # B3LYP/6-31G* empiricaldispersion=gd3 guess=read geom=check nosymm in
 tegral(ultrafinegrid)
 ----------------------------------------------------------------------

 ------------------------------------------------------
 Candidate Structure: Conf:879 Charge calc in gas phase
 ------------------------------------------------------
 Structure from the checkpoint file:  "conf-879.chk"
 Charge =  1 Multiplicity = 1

                          Input orientation:
 ---------------------------------------------------------------------
 Center     Atomic      Atomic             Coordinates (Angstroms)
 Number     Number       Type             X           Y           Z
 ---------------------------------------------------------------------
      1          7           0       -5.016223    1.986927    4.519097
      2          1           0       -4.529515    1.092103    4.533632
      3          1           0       -5.864387    1.857278    5.072613
      4          6           0       -5.458625    2.306750    3.148562
      5          1           0       -6.013355    1.480253    2.667089
      6          6           0       -4.204297    2.603987    2.315722
      7          6           0       -6.359671    3.541676    3.174856
      8          1           0       -5.843100    4.334036    3.729812
      9          1           0       -6.502671    3.919094    2.156952
     10          8           0       -3.918265    3.713451    1.885345
     11          6           0       -7.706374    3.262681    3.836957
     12          7           0       -8.674398    4.187149    3.584205
     13          1           0       -9.552162    4.104774    4.078529
     14          1           0       -8.489733    5.035359    3.069804
     15          8           0       -7.913998    2.281895    4.546849
     16          7           0       -3.389391    1.515093    2.123203
     17          1           0       -3.657552    0.602976    2.467649
     18          6           0       -2.039854    1.651252    1.611238
     19          1           0       -1.984915    2.653876    1.175638
     20          6           0       -1.845887    0.584918    0.540408
     21          6           0       -0.952680    1.521857    2.718705
     22          1           0       -1.075438    0.531410    3.181097
     23          8           0       -2.119327   -0.607283    0.772559
     24          6           0       -1.174476    2.592684    3.805855
     25          1           0       -2.216212    2.554377    4.142419
     26          1           0       -1.032617    3.587615    3.361758
     27          6           0        0.453485    1.589105    2.103650
     28          1           0        0.602754    2.538422    1.571772
     29          1           0        1.218411    1.519256    2.880784
     30          1           0        0.635315    0.763449    1.408727
     31          6           0       -0.264349    2.428724    5.028516
     32          1           0       -0.535766    3.152882    5.803562
     33          1           0       -0.363187    1.425575    5.461872
     34          1           0        0.792769    2.586689    4.788837
     35          7           0       -1.344442    0.993715   -0.646203
     36          1           0       -1.108659    1.971430   -0.757142
     37          6           0       -1.051746    0.093478   -1.769464
     38          1           0       -1.884723   -0.614913   -1.837577
     39          6           0        0.236998   -0.693160   -1.440171
     40          6           0       -0.919125    0.885767   -3.063441
     41          1           0       -0.755602    0.206958   -3.904894
     42          1           0       -1.832080    1.457383   -3.252642
     43          1           0       -0.064197    1.566902   -3.012712
     44          8           0        1.341751   -0.362313   -1.900536
     45          7           0        0.052569   -1.705619   -0.579094
     46          1           0       -0.891581   -1.793803   -0.208621
     47          6           0        1.129788   -2.344099    0.157113
     48          1           0        1.900374   -1.591533    0.362129
     49          6           0        1.721104   -3.501299   -0.646592
     50          6           0        0.569117   -2.832990    1.529851
     51          1           0       -0.235974   -3.553490    1.313463
     52          8           0        1.013534   -4.267992   -1.304103
     53          6           0        1.638597   -3.507234    2.380111
     54          1           0        2.017567   -4.421076    1.912411
     55          1           0        1.206062   -3.766832    3.349178
     56          1           0        2.475097   -2.821595    2.557948
     57          8           0        0.086204   -1.726298    2.264587
     58          1           0       -0.784616   -1.446789    1.923296
     59          7           0        3.071920   -3.622746   -0.577103
     60          1           0        3.609388   -3.014375    0.033886
     61          6           0        3.777298   -4.834799   -0.966793
     62          1           0        3.273027   -5.700487   -0.520183
     63          6           0        5.206644   -4.689992   -0.428948
     64          6           0        3.865973   -5.044480   -2.525759
     65          1           0        3.747172   -6.114442   -2.738568
     66          1           0        4.849544   -4.747719   -2.896330
     67          8           0        5.624185   -3.599200   -0.036761
     68          8           0        2.907511   -4.287687   -3.251565
     69          1           0        2.028234   -4.465770   -2.845049
     70          7           0        5.988713   -5.796777   -0.479538
     71          1           0        5.642539   -6.596701   -0.993876
     72          6           0        7.433285   -5.612401   -0.454867
     73          1           0        7.709984   -5.098156    0.468499
     74          1           0        7.909039   -6.596823   -0.460536
     75          6           0        7.864849   -4.818052   -1.710390
     76          8           0        7.238528   -4.950924   -2.759459
     77          7           0        8.920930   -3.993626   -1.530128
     78          1           0        9.352619   -3.956236   -0.616252
     79          6           0        9.474113   -3.079434   -2.538627
     80          1           0       10.155916   -3.641325   -3.195021
     81          6           0       10.348150   -2.025262   -1.848937
     82          6           0        8.415091   -2.398198   -3.428240
     83          1           0        8.945716   -1.671302   -4.049043
     84          1           0        8.002244   -3.164402   -4.084234
     85          8           0       10.563395   -0.925322   -2.294571
     86          6           0        7.283508   -1.714851   -2.636154
     87          1           0        7.153842   -2.207653   -1.666063
     88          1           0        7.547802   -0.671630   -2.426210
     89          6           0        5.943347   -1.794302   -3.381432
     90          1           0        5.756300   -2.845408   -3.633032
     91          1           0        5.991522   -1.239099   -4.328551
     92          6           0        4.796108   -1.273583   -2.522628
     93          1           0        4.792897   -1.770781   -1.551052
     94          1           0        4.854519   -0.193417   -2.363192
     95          7           0        3.457578   -1.561997   -3.149898
     96          1           0        2.672452   -1.143755   -2.593651
     97          1           0        3.274691   -2.597262   -3.217278
     98          1           0        3.405496   -1.172595   -4.095310
     99          8           0       10.891601   -2.482107   -0.693719
    100          1           0       11.452459   -1.768183   -0.334345
 ---------------------------------------------------------------------

 SCF Done:  E(RB3LYP) =  -2418.60577373     A.U. after    1 cycles

 Alpha  occ. eigenvalues --  -19.29779 -19.27299 -19.24545 -19.24517 -19.23937
 Alpha  occ. eigenvalues --  -19.23683 -19.23083 -19.23023 -19.21828 -19.17736
 Alpha  occ. eigenvalues --  -19.16408 -14.53762 -14.48212 -14.48197 -14.47738
 Alpha  occ. eigenvalues --  -14.47197 -14.46626 -14.42836 -14.40728 -14.36594
 Alpha  occ. eigenvalues --  -10.41961 -10.41269 -10.40766 -10.40752 -10.39530
 Alpha  occ. eigenvalues --  -10.39348 -10.35730 -10.35270 -10.35114 -10.34765
 Alpha  occ. eigenvalues --  -10.34696 -10.34452 -10.34254 -10.34145 -10.34141
 Alpha  occ. eigenvalues --  -10.33945 -10.31127 -10.29795 -10.28472 -10.28088
 Alpha  occ. eigenvalues --  -10.27890 -10.27493 -10.27006 -10.26631 -10.24854
 Alpha  occ. eigenvalues --  -10.24422 -10.23688 -10.22807  -1.20469  -1.16912
 Alpha  occ. eigenvalues --   -1.16147  -1.15624  -1.14421  -1.13834  -1.13676
 Alpha  occ. eigenvalues --   -1.11524  -1.11081  -1.09739  -1.09037  -1.08146
 Alpha  occ. eigenvalues --   -1.04608  -1.04338  -1.04266  -1.03433  -1.03005
 Alpha  occ. eigenvalues --   -0.99516  -0.95383  -0.93965  -0.91034  -0.90281
 Alpha  occ. eigenvalues --   -0.88868  -0.87934  -0.87269  -0.86506  -0.82916
 Alpha  occ. eigenvalues --   -0.81641  -0.81299  -0.80893  -0.80541  -0.77759
 Alpha  occ. eigenvalues --   -0.77358  -0.75607  -0.74931  -0.72472  -0.71861
 Alpha  occ. eigenvalues --   -0.71563  -0.71127  -0.70506  -0.70164  -0.68943
 Alpha  occ. eigenvalues --   -0.68693  -0.68599  -0.68444  -0.67139  -0.66362
 Alpha  occ. eigenvalues --   -0.66276  -0.65755  -0.64276  -0.63873  -0.63408
 Alpha  occ. eigenvalues --   -0.62872  -0.62514  -0.61865  -0.61307  -0.60483
 Alpha  occ. eigenvalues --   -0.60094  -0.59892  -0.59502  -0.58971  -0.58785
 Alpha  occ. eigenvalues --   -0.58341  -0.58015  -0.57777  -0.57293  -0.56823
 Alpha  occ. eigenvalues --   -0.56708  -0.55891  -0.55495  -0.55214  -0.54747
 Alpha  occ. eigenvalues --   -0.54321  -0.53827  -0.53459  -0.53228  -0.52807
 Alpha  occ. eigenvalues --   -0.52606  -0.52067  -0.51667  -0.51613  -0.51483
 Alpha  occ. eigenvalues --   -0.51108  -0.50808  -0.50704  -0.50465  -0.50029
 Alpha  occ. eigenvalues --   -0.49791  -0.49473  -0.49161  -0.49094  -0.48751
 Alpha  occ. eigenvalues --   -0.48243  -0.48014  -0.47896  -0.47854  -0.47480
 Alpha  occ. eigenvalues --   -0.47399  -0.47107  -0.46803  -0.46686  -0.46210
 Alpha  occ. eigenvalues --   -0.45907  -0.45823  -0.45403  -0.44415  -0.43829
 Alpha  occ. eigenvalues --   -0.43748  -0.43538  -0.43070  -0.42811  -0.42228
 Alpha  occ. eigenvalues --   -0.42087  -0.42033  -0.41687  -0.40721  -0.40672
 Alpha  occ. eigenvalues --   -0.40153  -0.39623  -0.39183  -0.38972  -0.38866
 Alpha  occ. eigenvalues --   -0.38593  -0.38088  -0.37659  -0.37544  -0.37328
 Alpha  occ. eigenvalues --   -0.36695  -0.36159  -0.35552  -0.35381  -0.35253
 Alpha  occ. eigenvalues --   -0.32186  -0.31920  -0.31782  -0.30303  -0.28681
 Alpha virt. eigenvalues --   -0.11079  -0.10647  -0.10185  -0.09082  -0.08619
 Alpha virt. eigenvalues --   -0.07784  -0.05906  -0.03839  -0.03703  -0.03240
 Alpha virt. eigenvalues --   -0.02318  -0.02032  -0.01826  -0.01694  -0.00909

 Mulliken charges:
               1
     1  N   -0.730303
     2  H    0.285782
     3  H    0.344874
     4  C   -0.079181
     5  H    0.139534
     6  C    0.649565
     7  C   -0.366492
     8  H    0.200104
     9  H    0.168853
    10  O   -0.521193
    11  C    0.608685
    12  N   -0.747701
    13  H    0.349418
    14  H    0.344139
    15  O   -0.518559
    16  N   -0.621318
    17  H    0.334940
    18  C   -0.055679
    19  H    0.178521
    20  C    0.651663
    21  C   -0.078680
    22  H    0.136232
    23  O   -0.590191
    24  C   -0.272892
    25  H    0.175842
    26  H    0.143708
    27  C   -0.472702
    28  H    0.135480
    29  H    0.169844
    30  H    0.140881
    31  C   -0.452318
    32  H    0.162043
    33  H    0.144772
    34  H    0.143659
    35  N   -0.588072
    36  H    0.356392
    37  C   -0.057952
    38  H    0.197715
    39  C    0.637199
    40  C   -0.476258
    41  H    0.173111
    42  H    0.182396
    43  H    0.175129
    44  O   -0.579429
    45  N   -0.589072
    46  H    0.379624
    47  C   -0.057094
    48  H    0.167707
    49  C    0.621055
    50  C    0.097919
    51  H    0.155500
    52  O   -0.545521
    53  C   -0.465916
    54  H    0.148150
    55  H    0.191719
    56  H    0.159431
    57  O   -0.641871
    58  H    0.436988
    59  N   -0.629641
    60  H    0.367550
    61  C   -0.064090
    62  H    0.196343
    63  C    0.599286
    64  C   -0.084938
    65  H    0.167056
    66  H    0.219874
    67  O   -0.527116
    68  O   -0.647452
    69  H    0.443647
    70  N   -0.561439
    71  H    0.352406
    72  C   -0.254572
    73  H    0.199846
    74  H    0.204780
    75  C    0.635512
    76  O   -0.531033
    77  N   -0.628958
    78  H    0.365608
    79  C   -0.032009
    80  H    0.207635
    81  C    0.591113
    82  C   -0.283811
    83  H    0.181060
    84  H    0.184374
    85  O   -0.438947
    86  C   -0.290792
    87  H    0.171874
    88  H    0.163072
    89  C   -0.295852
    90  H    0.178003
    91  H    0.156242
    92  C   -0.200017
    93  H    0.205039
    94  H    0.197189
    95  N   -0.813946
    96  H    0.441836
    97  H    0.441566
    98  H    0.384350
    99  O   -0.583657
   100  H    0.432828
 Sum of Mulliken charges =   1.00000

 Dipole moment (field-independent basis, Debye):
    X=             16.6855    Y=             -9.9701    Z=             -6.7869  Tot=             20.5881
 Quadrupole moment (field-independent basis, Debye-Ang):
   XX=            -99.7794   YY=           -207.2560   ZZ=           -264.0631
   XY=           -104.9899   XZ=            -19.3437   YZ=              8.6918

 Normal termination of Gaussian 16 at Mon Jun  6 03:05:47 2022.
