 Gaussian 16, Revision C.01,
 Gaussian 16:  ES64L-G16RevC.01  3-Jul-2019

 ----------------------------------------------------------------------
 # B3LYP/6-31G* empiricaldispersion=gd3 guess=read geom=check nosymm in
 tegral(ultrafinegrid)
 ----------------------------------------------------------------------

 ------------------------------------------------------
 Candidate Structure: Conf:112 Charge calc in gas phase
 ------------------------------------------------------
 Structure from the checkpoint file:  "conf-112.chk"
 Charge =  1 Multiplicity = 1

                          Input orientation:
 ---------------------------------------------------------------------
 Center     Atomic      Atomic             Coordinates (Angstroms)
 Number     Number       Type             X           Y           Z
 ---------------------------------------------------------------------
      1          7           0       -7.850546    1.259216    3.396933
      2          1           0       -8.676317    0.675686    3.284693
      3          1           0       -7.966101    2.089117    2.816849
      4          6           0       -6.654480    0.559019    2.969142
      5          1           0       -6.354387   -0.141042    3.761482
      6          6           0       -5.542126    1.595263    2.754913
      7          6           0       -6.810536   -0.246602    1.632462
      8          1           0       -7.532579   -1.056232    1.797903
      9          1           0       -7.199012    0.425451    0.864284
     10          8           0       -5.773136    2.670866    2.214986
     11          6           0       -5.477597   -0.787433    1.133917
     12          7           0       -4.944158   -1.817569    1.855870
     13          1           0       -3.954496   -2.001660    1.743592
     14          1           0       -5.405829   -2.189003    2.673336
     15          8           0       -4.879343   -0.278667    0.189732
     16          7           0       -4.295271    1.199257    3.150031
     17          1           0       -4.172881    0.243239    3.460984
     18          6           0       -3.088244    1.831653    2.629260
     19          1           0       -3.417311    2.738150    2.116191
     20          6           0       -2.487854    0.831200    1.635044
     21          6           0       -2.072839    2.193225    3.735123
     22          1           0       -1.722933    1.243548    4.164668
     23          8           0       -2.207603   -0.321110    2.001330
     24          6           0       -2.730053    3.006699    4.870342
     25          1           0       -1.953272    3.218900    5.617012
     26          1           0       -3.472580    2.372952    5.368700
     27          6           0       -0.860143    2.910764    3.120909
     28          1           0       -1.153187    3.849446    2.636572
     29          1           0       -0.125842    3.151517    3.896804
     30          1           0       -0.358258    2.292214    2.368874
     31          6           0       -3.405569    4.316368    4.441571
     32          1           0       -3.801558    4.839944    5.318237
     33          1           0       -2.703701    4.997339    3.946289
     34          1           0       -4.244853    4.135702    3.761256
     35          7           0       -2.292394    1.265181    0.372602
     36          1           0       -2.660500    2.173958    0.124062
     37          6           0       -2.021837    0.336504   -0.731422
     38          1           0       -2.540313   -0.594780   -0.482014
     39          6           0       -0.509271    0.066036   -0.815879
     40          6           0       -2.583790    0.895826   -2.030777
     41          1           0       -2.392046    0.200487   -2.852463
     42          1           0       -3.664118    1.025663   -1.924165
     43          1           0       -2.108888    1.847817   -2.288652
     44          8           0        0.191755    0.511712   -1.736792
     45          7           0       -0.019511   -0.695974    0.187307
     46          1           0       -0.660322   -1.000750    0.922112
     47          6           0        1.408607   -0.902282    0.407034
     48          1           0        1.932871    0.036828    0.185591
     49          6           0        1.936332   -1.974950   -0.566465
     50          6           0        1.668495   -1.317582    1.871663
     51          1           0        2.748625   -1.516410    1.952520
     52          8           0        2.276762   -3.111160   -0.205667
     53          6           0        1.275776   -0.235451    2.869716
     54          1           0        1.779359    0.711349    2.646870
     55          1           0        1.558194   -0.555161    3.876467
     56          1           0        0.193982   -0.076398    2.858710
     57          8           0        0.917803   -2.480225    2.189443
     58          1           0        1.278667   -3.190116    1.628517
     59          7           0        1.991441   -1.579396   -1.860918
     60          1           0        1.565510   -0.672460   -2.090878
     61          6           0        2.258106   -2.553755   -2.906788
     62          1           0        1.791805   -3.505360   -2.622884
     63          6           0        3.778132   -2.774688   -3.046313
     64          6           0        1.656502   -2.111943   -4.244119
     65          1           0        0.604825   -1.846100   -4.108887
     66          1           0        1.720366   -2.956911   -4.945441
     67          8           0        4.441858   -2.159590   -3.908610
     68          8           0        2.329627   -0.955138   -4.779698
     69          1           0        3.282701   -1.117262   -4.525746
     70          7           0        4.333636   -3.641530   -2.196908
     71          1           0        3.756008   -3.992139   -1.436910
     72          6           0        5.750744   -3.958828   -2.276604
     73          1           0        6.353604   -3.092041   -1.981820
     74          1           0        5.952186   -4.775864   -1.579496
     75          6           0        6.093003   -4.428648   -3.705825
     76          8           0        5.358841   -5.202473   -4.308900
     77          7           0        7.233945   -3.904460   -4.213210
     78          1           0        7.806131   -3.278691   -3.659395
     79          6           0        7.719810   -4.165206   -5.558018
     80          1           0        7.414741   -5.173346   -5.853551
     81          6           0        9.241738   -4.085375   -5.518495
     82          6           0        7.178488   -3.126106   -6.577085
     83          1           0        7.317100   -2.135657   -6.125037
     84          1           0        7.793850   -3.153290   -7.482934
     85          8           0        9.873428   -3.550907   -4.633871
     86          6           0        5.694431   -3.353255   -6.932364
     87          1           0        5.627675   -3.995573   -7.820326
     88          1           0        5.198003   -3.890217   -6.121227
     89          6           0        4.935611   -2.039089   -7.167358
     90          1           0        5.432564   -1.420775   -7.927556
     91          1           0        4.936792   -1.479397   -6.225497
     92          6           0        3.498227   -2.323338   -7.595711
     93          1           0        3.435589   -2.643734   -8.638554
     94          1           0        3.044774   -3.093642   -6.966792
     95          7           0        2.623718   -1.093319   -7.432860
     96          1           0        1.716556   -1.202040   -7.896645
     97          1           0        3.073958   -0.262146   -7.829151
     98          1           0        2.444732   -0.928718   -6.380487
     99          8           0        9.790464   -4.634629   -6.616737
    100          1           0       10.757990   -4.518360   -6.549981
 ---------------------------------------------------------------------

 SCF Done:  E(RB3LYP) =  -2418.59961396     A.U. after    2 cycles

 Alpha  occ. eigenvalues --  -19.28822 -19.28337 -19.24312 -19.23334 -19.22479
 Alpha  occ. eigenvalues --  -19.20444 -19.20434 -19.20238 -19.19780 -19.17884
 Alpha  occ. eigenvalues --  -19.17636 -14.58376 -14.47228 -14.45632 -14.45240
 Alpha  occ. eigenvalues --  -14.44159 -14.43805 -14.42216 -14.42077 -14.36762
 Alpha  occ. eigenvalues --  -10.41317 -10.40501 -10.38688 -10.38309 -10.38181
 Alpha  occ. eigenvalues --  -10.36856 -10.36494 -10.36338 -10.35454 -10.35039
 Alpha  occ. eigenvalues --  -10.34617 -10.33304 -10.33108 -10.31624 -10.31593
 Alpha  occ. eigenvalues --  -10.31234 -10.30549 -10.29339 -10.29120 -10.29037
 Alpha  occ. eigenvalues --  -10.28839 -10.25707 -10.25068 -10.24943 -10.23819
 Alpha  occ. eigenvalues --  -10.23381 -10.22853 -10.21298  -1.19817  -1.16884
 Alpha  occ. eigenvalues --   -1.14454  -1.13937  -1.12691  -1.12313  -1.12011
 Alpha  occ. eigenvalues --   -1.11230  -1.10972  -1.09681  -1.09291  -1.08322
 Alpha  occ. eigenvalues --   -1.03688  -1.02486  -1.01928  -1.00713  -0.99941
 Alpha  occ. eigenvalues --   -0.98835  -0.96790  -0.94456  -0.92628  -0.88902
 Alpha  occ. eigenvalues --   -0.88130  -0.87013  -0.85374  -0.83764  -0.83522
 Alpha  occ. eigenvalues --   -0.82008  -0.81788  -0.79126  -0.78744  -0.76453
 Alpha  occ. eigenvalues --   -0.76403  -0.75990  -0.72820  -0.72427  -0.71849
 Alpha  occ. eigenvalues --   -0.71740  -0.71115  -0.69643  -0.69283  -0.68933
 Alpha  occ. eigenvalues --   -0.68754  -0.67616  -0.66849  -0.66340  -0.65642
 Alpha  occ. eigenvalues --   -0.65187  -0.64363  -0.63935  -0.63479  -0.62817
 Alpha  occ. eigenvalues --   -0.61430  -0.61339  -0.60764  -0.60206  -0.60142
 Alpha  occ. eigenvalues --   -0.59702  -0.59253  -0.58975  -0.58689  -0.58133
 Alpha  occ. eigenvalues --   -0.57723  -0.57079  -0.56402  -0.56126  -0.55769
 Alpha  occ. eigenvalues --   -0.55590  -0.55470  -0.55069  -0.54357  -0.54139
 Alpha  occ. eigenvalues --   -0.54087  -0.53363  -0.52851  -0.52327  -0.52150
 Alpha  occ. eigenvalues --   -0.51952  -0.51507  -0.51326  -0.50877  -0.50511
 Alpha  occ. eigenvalues --   -0.50255  -0.50117  -0.49920  -0.49740  -0.48862
 Alpha  occ. eigenvalues --   -0.48654  -0.48383  -0.47931  -0.47714  -0.47559
 Alpha  occ. eigenvalues --   -0.47139  -0.46690  -0.46577  -0.46358  -0.46204
 Alpha  occ. eigenvalues --   -0.46029  -0.45678  -0.45107  -0.45011  -0.44911
 Alpha  occ. eigenvalues --   -0.44725  -0.44635  -0.44580  -0.44453  -0.43670
 Alpha  occ. eigenvalues --   -0.43552  -0.43178  -0.43034  -0.42692  -0.42675
 Alpha  occ. eigenvalues --   -0.41954  -0.41763  -0.41179  -0.40893  -0.40114
 Alpha  occ. eigenvalues --   -0.38838  -0.37651  -0.37628  -0.37463  -0.37401
 Alpha  occ. eigenvalues --   -0.37074  -0.36854  -0.36090  -0.35237  -0.34555
 Alpha  occ. eigenvalues --   -0.34506  -0.34189  -0.34007  -0.33628  -0.32788
 Alpha  occ. eigenvalues --   -0.32568  -0.32008  -0.31465  -0.30648  -0.28632
 Alpha virt. eigenvalues --   -0.10445  -0.10060  -0.08370  -0.08198  -0.06780
 Alpha virt. eigenvalues --   -0.06563  -0.05971  -0.04918  -0.04299  -0.04112
 Alpha virt. eigenvalues --   -0.03310  -0.02337  -0.01125  -0.00695  -0.00330

 Mulliken charges:
               1
     1  N   -0.709470
     2  H    0.302256
     3  H    0.326597
     4  C   -0.051360
     5  H    0.132028
     6  C    0.626405
     7  C   -0.367364
     8  H    0.158293
     9  H    0.187032
    10  O   -0.526851
    11  C    0.579270
    12  N   -0.742997
    13  H    0.364045
    14  H    0.339008
    15  O   -0.521059
    16  N   -0.595480
    17  H    0.335723
    18  C   -0.051204
    19  H    0.179531
    20  C    0.658822
    21  C   -0.092947
    22  H    0.142153
    23  O   -0.585440
    24  C   -0.252337
    25  H    0.137455
    26  H    0.145789
    27  C   -0.470481
    28  H    0.149823
    29  H    0.158531
    30  H    0.145701
    31  C   -0.475948
    32  H    0.154140
    33  H    0.140534
    34  H    0.180645
    35  N   -0.586818
    36  H    0.351394
    37  C   -0.044399
    38  H    0.194172
    39  C    0.630439
    40  C   -0.479594
    41  H    0.152334
    42  H    0.194428
    43  H    0.163981
    44  O   -0.564427
    45  N   -0.617541
    46  H    0.395126
    47  C   -0.061701
    48  H    0.177573
    49  C    0.633633
    50  C    0.105415
    51  H    0.134834
    52  O   -0.565112
    53  C   -0.472729
    54  H    0.144825
    55  H    0.172331
    56  H    0.184416
    57  O   -0.635431
    58  H    0.415324
    59  N   -0.618655
    60  H    0.400961
    61  C   -0.092170
    62  H    0.197095
    63  C    0.668860
    64  C   -0.076255
    65  H    0.191217
    66  H    0.147763
    67  O   -0.593159
    68  O   -0.680730
    69  H    0.455931
    70  N   -0.572396
    71  H    0.387038
    72  C   -0.227398
    73  H    0.181200
    74  H    0.205689
    75  C    0.639175
    76  O   -0.526249
    77  N   -0.595480
    78  H    0.352116
    79  C   -0.051097
    80  H    0.208094
    81  C    0.582247
    82  C   -0.272941
    83  H    0.155479
    84  H    0.174144
    85  O   -0.455801
    86  C   -0.290714
    87  H    0.152903
    88  H    0.207947
    89  C   -0.303638
    90  H    0.160548
    91  H    0.185366
    92  C   -0.198578
    93  H    0.209863
    94  H    0.212569
    95  N   -0.771514
    96  H    0.403806
    97  H    0.403204
    98  H    0.450180
    99  O   -0.558701
   100  H    0.428762
 Sum of Mulliken charges =   1.00000

 Dipole moment (field-independent basis, Debye):
    X=             12.1944    Y=             -8.9146    Z=            -24.3799  Tot=             28.6802
 Quadrupole moment (field-independent basis, Debye-Ang):
   XX=           -161.3519   YY=           -267.6015   ZZ=            -70.9427
   XY=            -22.4489   XZ=           -108.7081   YZ=             38.6141

 Normal termination of Gaussian 16 at Mon Jun  6 02:57:46 2022.
