 Gaussian 16, Revision C.01,
 Gaussian 16:  ES64L-G16RevC.01  3-Jul-2019

 ----------------------------------------------------------------------
 # B3LYP/6-31G* empiricaldispersion=gd3 guess=read geom=check nosymm in
 tegral(ultrafinegrid)
 ----------------------------------------------------------------------

 ------------------------------------------------------
 Candidate Structure: Conf:234 Charge calc in gas phase
 ------------------------------------------------------
 Structure from the checkpoint file:  "conf-234.chk"
 Charge =  1 Multiplicity = 1

                          Input orientation:
 ---------------------------------------------------------------------
 Center     Atomic      Atomic             Coordinates (Angstroms)
 Number     Number       Type             X           Y           Z
 ---------------------------------------------------------------------
      1          7           0       -8.149480    0.918749    2.512300
      2          1           0       -8.405050    1.890116    2.326370
      3          1           0       -8.194974    0.817326    3.525809
      4          6           0       -6.774172    0.737657    2.069099
      5          1           0       -6.405728   -0.213690    2.475460
      6          6           0       -5.835989    1.883788    2.499860
      7          6           0       -6.763051    0.663420    0.515567
      8          1           0       -7.336802   -0.218838    0.212699
      9          1           0       -7.255842    1.554693    0.119942
     10          8           0       -6.231181    3.041633    2.534339
     11          6           0       -5.348223    0.647856   -0.046169
     12          7           0       -4.647354   -0.512226    0.135873
     13          1           0       -3.639298   -0.459529    0.053955
     14          1           0       -5.045381   -1.296914    0.631220
     15          8           0       -4.841486    1.634235   -0.572362
     16          7           0       -4.548003    1.511534    2.797694
     17          1           0       -4.273214    0.565077    2.564402
     18          6           0       -3.459917    2.485489    2.764703
     19          1           0       -3.949899    3.460339    2.730000
     20          6           0       -2.693407    2.231018    1.461870
     21          6           0       -2.557940    2.429320    4.022710
     22          1           0       -3.235667    2.653981    4.858669
     23          8           0       -2.235760    1.106078    1.198088
     24          6           0       -1.461281    3.514141    3.987775
     25          1           0       -0.764988    3.305109    3.165697
     26          1           0       -0.873898    3.414252    4.910184
     27          6           0       -1.943883    1.042964    4.267106
     28          1           0       -1.262936    0.767732    3.457023
     29          1           0       -1.388789    1.044332    5.212257
     30          1           0       -2.713453    0.267049    4.343284
     31          6           0       -1.976225    4.955371    3.889533
     32          1           0       -1.156726    5.669494    4.022842
     33          1           0       -2.429944    5.171197    2.915203
     34          1           0       -2.730543    5.163491    4.657754
     35          7           0       -2.560856    3.277051    0.619560
     36          1           0       -3.058205    4.129588    0.840267
     37          6           0       -2.148370    3.098053   -0.778696
     38          1           0       -2.495581    2.101336   -1.070719
     39          6           0       -0.613946    3.136653   -0.884024
     40          6           0       -2.818170    4.146245   -1.656411
     41          1           0       -2.510209    4.017786   -2.697066
     42          1           0       -3.902479    4.024538   -1.589112
     43          1           0       -2.530844    5.158714   -1.354620
     44          8           0       -0.019421    4.018477   -1.521513
     45          7           0        0.020877    2.124326   -0.245902
     46          1           0       -0.557876    1.516992    0.340459
     47          6           0        1.461950    2.149954    0.011846
     48          1           0        1.753280    3.189589    0.212899
     49          6           0        2.214154    1.666198   -1.244137
     50          6           0        1.797506    1.296978    1.241889
     51          1           0        1.578571    0.246351    1.000667
     52          8           0        2.781159    0.571284   -1.321803
     53          6           0        3.260611    1.434579    1.658144
     54          1           0        3.928518    1.062866    0.877333
     55          1           0        3.446099    0.848524    2.565516
     56          1           0        3.496097    2.481783    1.877233
     57          8           0        0.920520    1.771577    2.265112
     58          1           0        1.045766    1.227515    3.057441
     59          7           0        2.186601    2.556355   -2.268243
     60          1           0        1.560842    3.361913   -2.130014
     61          6           0        2.533337    2.178461   -3.628978
     62          1           0        2.220269    1.134826   -3.791675
     63          6           0        4.051013    2.199510   -3.917195
     64          6           0        1.775733    3.105185   -4.595498
     65          1           0        1.976407    4.152964   -4.341918
     66          1           0        0.699367    2.937843   -4.511920
     67          8           0        4.520378    2.764611   -4.924924
     68          8           0        2.161727    2.874025   -5.958241
     69          1           0        3.139743    3.052750   -5.931579
     70          7           0        4.822280    1.516843   -3.061402
     71          1           0        4.350600    0.941060   -2.361346
     72          6           0        6.209733    1.280521   -3.404605
     73          1           0        6.720431    2.236465   -3.552725
     74          1           0        6.687969    0.759416   -2.570363
     75          6           0        6.313188    0.392769   -4.658885
     76          8           0        5.498065   -0.503423   -4.872195
     77          7           0        7.359562    0.673471   -5.466975
     78          1           0        8.009872    1.412284   -5.218819
     79          6           0        7.811709   -0.194116   -6.544449
     80          1           0        7.698591   -1.238450   -6.228421
     81          6           0        9.305076    0.084420   -6.719684
     82          6           0        7.076457   -0.018759   -7.899298
     83          1           0        7.083542    1.043897   -8.172029
     84          1           0        7.675149   -0.543937   -8.649564
     85          8           0        9.894677    1.004390   -6.195532
     86          6           0        5.645143   -0.591004   -7.920641
     87          1           0        5.446924   -1.023490   -8.909110
     88          1           0        5.585952   -1.411702   -7.198857
     89          6           0        4.528558    0.427059   -7.612709
     90          1           0        4.314692    1.017972   -8.515376
     91          1           0        4.831026    1.125965   -6.828390
     92          6           0        3.283819   -0.330578   -7.158771
     93          1           0        3.089786   -1.204446   -7.787839
     94          1           0        3.403351   -0.654622   -6.122453
     95          7           0        2.035501    0.528221   -7.226337
     96          1           0        1.206338    0.004975   -6.928878
     97          1           0        1.864787    0.843169   -8.186857
     98          1           0        2.097367    1.419109   -6.624876
     99          8           0        9.879577   -0.809367   -7.541318
    100          1           0       10.822349   -0.568326   -7.625164
 ---------------------------------------------------------------------

 SCF Done:  E(RB3LYP) =  -2418.60231709     A.U. after    1 cycles

 Alpha  occ. eigenvalues --  -19.29388 -19.27978 -19.24003 -19.23748 -19.22882
 Alpha  occ. eigenvalues --  -19.22212 -19.21377 -19.20776 -19.19890 -19.18054
 Alpha  occ. eigenvalues --  -19.17631 -14.57455 -14.46187 -14.45804 -14.45471
 Alpha  occ. eigenvalues --  -14.44204 -14.43828 -14.42240 -14.42216 -14.37057
 Alpha  occ. eigenvalues --  -10.41971 -10.39939 -10.38746 -10.38734 -10.37040
 Alpha  occ. eigenvalues --  -10.36809 -10.36507 -10.35545 -10.35417 -10.34860
 Alpha  occ. eigenvalues --  -10.34288 -10.33888 -10.32905 -10.32419 -10.32083
 Alpha  occ. eigenvalues --  -10.30587 -10.30520 -10.29416 -10.29172 -10.28956
 Alpha  occ. eigenvalues --  -10.28898 -10.25524 -10.25359 -10.25309 -10.24725
 Alpha  occ. eigenvalues --  -10.23642 -10.23140 -10.23137  -1.20474  -1.16347
 Alpha  occ. eigenvalues --   -1.14148  -1.13808  -1.13058  -1.12246  -1.11835
 Alpha  occ. eigenvalues --   -1.11623  -1.11391  -1.10293  -1.09770  -1.09306
 Alpha  occ. eigenvalues --   -1.03308  -1.02467  -1.02256  -1.00835  -0.99971
 Alpha  occ. eigenvalues --   -0.98749  -0.96951  -0.94653  -0.91943  -0.88628
 Alpha  occ. eigenvalues --   -0.88038  -0.87182  -0.85875  -0.83997  -0.83412
 Alpha  occ. eigenvalues --   -0.82236  -0.81513  -0.79252  -0.78967  -0.77012
 Alpha  occ. eigenvalues --   -0.75972  -0.75901  -0.72565  -0.72098  -0.71544
 Alpha  occ. eigenvalues --   -0.71060  -0.70724  -0.70495  -0.68716  -0.68565
 Alpha  occ. eigenvalues --   -0.68368  -0.67846  -0.67416  -0.66998  -0.65349
 Alpha  occ. eigenvalues --   -0.65149  -0.64169  -0.63943  -0.63087  -0.62678
 Alpha  occ. eigenvalues --   -0.62291  -0.61694  -0.61388  -0.60765  -0.60373
 Alpha  occ. eigenvalues --   -0.60083  -0.59494  -0.59274  -0.58604  -0.57646
 Alpha  occ. eigenvalues --   -0.57186  -0.57052  -0.56566  -0.56215  -0.55672
 Alpha  occ. eigenvalues --   -0.55554  -0.55370  -0.54628  -0.54556  -0.54033
 Alpha  occ. eigenvalues --   -0.53815  -0.52965  -0.52447  -0.52206  -0.52081
 Alpha  occ. eigenvalues --   -0.51857  -0.51235  -0.51043  -0.50870  -0.50598
 Alpha  occ. eigenvalues --   -0.50361  -0.50133  -0.49855  -0.49524  -0.49159
 Alpha  occ. eigenvalues --   -0.48770  -0.48601  -0.48534  -0.47747  -0.47593
 Alpha  occ. eigenvalues --   -0.47513  -0.47399  -0.46967  -0.46714  -0.46379
 Alpha  occ. eigenvalues --   -0.46186  -0.46111  -0.45952  -0.45755  -0.45469
 Alpha  occ. eigenvalues --   -0.45354  -0.44884  -0.44722  -0.44266  -0.44119
 Alpha  occ. eigenvalues --   -0.44075  -0.43711  -0.43059  -0.42698  -0.42518
 Alpha  occ. eigenvalues --   -0.41452  -0.41442  -0.41241  -0.40807  -0.40707
 Alpha  occ. eigenvalues --   -0.38745  -0.38690  -0.38514  -0.38053  -0.37864
 Alpha  occ. eigenvalues --   -0.37255  -0.37023  -0.36257  -0.35576  -0.35407
 Alpha  occ. eigenvalues --   -0.35023  -0.34750  -0.34291  -0.33777  -0.33213
 Alpha  occ. eigenvalues --   -0.32834  -0.32323  -0.31526  -0.30812  -0.29227
 Alpha virt. eigenvalues --   -0.10252  -0.09613  -0.09021  -0.08302  -0.07310
 Alpha virt. eigenvalues --   -0.06839  -0.06193  -0.04407  -0.04092  -0.03550
 Alpha virt. eigenvalues --   -0.01900  -0.01352  -0.01145  -0.00900  -0.00388

 Mulliken charges:
               1
     1  N   -0.694508
     2  H    0.320743
     3  H    0.308737
     4  C   -0.083242
     5  H    0.129035
     6  C    0.588367
     7  C   -0.335955
     8  H    0.176399
     9  H    0.188229
    10  O   -0.514130
    11  C    0.573492
    12  N   -0.745016
    13  H    0.361543
    14  H    0.338032
    15  O   -0.517416
    16  N   -0.598771
    17  H    0.333961
    18  C   -0.064879
    19  H    0.183703
    20  C    0.669568
    21  C   -0.071061
    22  H    0.145403
    23  O   -0.593591
    24  C   -0.287421
    25  H    0.169800
    26  H    0.138165
    27  C   -0.475056
    28  H    0.160649
    29  H    0.145123
    30  H    0.140326
    31  C   -0.452182
    32  H    0.155336
    33  H    0.125645
    34  H    0.157852
    35  N   -0.591419
    36  H    0.356312
    37  C   -0.051762
    38  H    0.197052
    39  C    0.628690
    40  C   -0.478018
    41  H    0.157503
    42  H    0.194662
    43  H    0.165001
    44  O   -0.560561
    45  N   -0.628516
    46  H    0.401759
    47  C   -0.057559
    48  H    0.187673
    49  C    0.637851
    50  C    0.121904
    51  H    0.149714
    52  O   -0.551505
    53  C   -0.476721
    54  H    0.167849
    55  H    0.154325
    56  H    0.162720
    57  O   -0.625682
    58  H    0.407674
    59  N   -0.632044
    60  H    0.402251
    61  C   -0.081797
    62  H    0.171026
    63  C    0.643577
    64  C   -0.083004
    65  H    0.191290
    66  H    0.183218
    67  O   -0.577173
    68  O   -0.664510
    69  H    0.450252
    70  N   -0.575789
    71  H    0.395217
    72  C   -0.244827
    73  H    0.194255
    74  H    0.202547
    75  C    0.632427
    76  O   -0.545305
    77  N   -0.606253
    78  H    0.362911
    79  C   -0.031382
    80  H    0.198726
    81  C    0.581103
    82  C   -0.280122
    83  H    0.160558
    84  H    0.183365
    85  O   -0.455252
    86  C   -0.277852
    87  H    0.151363
    88  H    0.180165
    89  C   -0.292455
    90  H    0.144088
    91  H    0.203154
    92  C   -0.208575
    93  H    0.196364
    94  H    0.240948
    95  N   -0.772329
    96  H    0.399590
    97  H    0.399748
    98  H    0.439832
    99  O   -0.557260
   100  H    0.432126
 Sum of Mulliken charges =   1.00000

 Dipole moment (field-independent basis, Debye):
    X=             12.9755    Y=              0.6739    Z=            -21.7664  Tot=             25.3495
 Quadrupole moment (field-independent basis, Debye-Ang):
   XX=           -180.4441   YY=           -281.4217   ZZ=            -69.3281
   XY=              9.3059   XZ=           -103.1420   YZ=              0.1936

 Normal termination of Gaussian 16 at Mon Jun  6 02:57:36 2022.
