 Gaussian 16, Revision C.01,
 Gaussian 16:  ES64L-G16RevC.01  3-Jul-2019

 ----------------------------------------------------------------------
 # B3LYP/6-31G* empiricaldispersion=gd3 guess=read geom=check nosymm in
 tegral(ultrafinegrid)
 ----------------------------------------------------------------------

 ------------------------------------------------------
 Candidate Structure: Conf:137 Charge calc in gas phase
 ------------------------------------------------------
 Structure from the checkpoint file:  "conf-137.chk"
 Charge =  1 Multiplicity = 1

                          Input orientation:
 ---------------------------------------------------------------------
 Center     Atomic      Atomic             Coordinates (Angstroms)
 Number     Number       Type             X           Y           Z
 ---------------------------------------------------------------------
      1          7           0       -7.064343   -1.568647    4.684666
      2          1           0       -7.642994   -1.179551    3.940593
      3          1           0       -7.026063   -0.873702    5.427937
      4          6           0       -5.732184   -1.853583    4.163408
      5          1           0       -5.081870   -2.126374    5.003397
      6          6           0       -5.132977   -0.670087    3.386119
      7          6           0       -5.826998   -3.067022    3.205581
      8          1           0       -6.123381   -3.943460    3.784342
      9          1           0       -6.593431   -2.858222    2.453487
     10          8           0       -5.616490   -0.301517    2.314098
     11          6           0       -4.481148   -3.327592    2.559229
     12          7           0       -4.301669   -2.808210    1.324901
     13          1           0       -3.376962   -2.816050    0.915099
     14          1           0       -4.951362   -2.111841    0.979649
     15          8           0       -3.585100   -3.932189    3.172129
     16          7           0       -4.023969   -0.072378    3.906679
     17          1           0       -3.732048   -0.290559    4.849507
     18          6           0       -3.450327    1.093042    3.242776
     19          1           0       -4.268227    1.792837    3.043944
     20          6           0       -2.850666    0.664566    1.897776
     21          6           0       -2.399955    1.801292    4.143172
     22          1           0       -2.948410    2.053407    5.063850
     23          8           0       -2.114513   -0.340491    1.791014
     24          6           0       -1.897366    3.121158    3.519140
     25          1           0       -1.377262    2.916140    2.575414
     26          1           0       -1.137737    3.525974    4.198775
     27          6           0       -1.205986    0.908765    4.523439
     28          1           0       -0.550767    0.720880    3.668328
     29          1           0       -0.607193    1.408249    5.291106
     30          1           0       -1.517993   -0.057264    4.943201
     31          6           0       -2.973744    4.191434    3.304279
     32          1           0       -2.516494    5.127979    2.971079
     33          1           0       -3.710842    3.911883    2.540650
     34          1           0       -3.526190    4.398045    4.228875
     35          7           0       -3.114274    1.451897    0.849758
     36          1           0       -3.685630    2.274018    0.991753
     37          6           0       -2.463509    1.289806   -0.450651
     38          1           0       -2.657227    0.267692   -0.795528
     39          6           0       -0.947949    1.518864   -0.261041
     40          6           0       -3.029138    2.310315   -1.438394
     41          1           0       -2.577760    2.168681   -2.424336
     42          1           0       -4.113843    2.199462   -1.537608
     43          1           0       -2.793054    3.324399   -1.099585
     44          8           0       -0.538285    2.506898    0.335599
     45          7           0       -0.151667    0.548749   -0.773446
     46          1           0       -0.529230   -0.214479   -1.324033
     47          6           0        1.296837    0.552080   -0.644106
     48          1           0        1.625123    1.587054   -0.513671
     49          6           0        1.851972   -0.107999   -1.909645
     50          6           0        1.724251   -0.289826    0.600832
     51          1           0        1.559897   -1.347303    0.340594
     52          8           0        1.190936   -1.001931   -2.459407
     53          6           0        3.182048   -0.090210    0.979035
     54          1           0        3.839607   -0.453595    0.187579
     55          1           0        3.402475   -0.662625    1.884831
     56          1           0        3.380738    0.967159    1.187027
     57          8           0        0.931780    0.067286    1.733233
     58          1           0       -0.005071    0.032871    1.469590
     59          7           0        3.070695    0.283576   -2.314788
     60          1           0        3.463394    1.132226   -1.927070
     61          6           0        3.725803   -0.232185   -3.524540
     62          1           0        2.968507   -0.285054   -4.315503
     63          6           0        4.316747   -1.641965   -3.269824
     64          6           0        4.842685    0.727608   -3.925820
     65          1           0        5.224630    0.423642   -4.909365
     66          1           0        5.667997    0.636369   -3.207401
     67          8           0        5.518325   -1.823560   -3.134161
     68          8           0        4.285884    2.039071   -3.938026
     69          1           0        4.994220    2.663308   -4.156190
     70          7           0        3.383784   -2.640321   -3.243796
     71          1           0        2.417983   -2.334318   -3.136734
     72          6           0        3.739181   -3.922422   -2.689606
     73          1           0        3.096696   -4.703477   -3.111424
     74          1           0        4.773771   -4.143266   -2.972210
     75          6           0        3.652754   -3.923094   -1.152492
     76          8           0        3.577892   -2.886920   -0.500309
     77          7           0        3.668739   -5.163059   -0.582406
     78          1           0        3.843245   -5.964067   -1.175428
     79          6           0        3.873032   -5.345635    0.851371
     80          1           0        4.423279   -4.467500    1.212963
     81          6           0        4.751124   -6.554861    1.166338
     82          6           0        2.561446   -5.446620    1.663948
     83          1           0        1.982464   -6.311615    1.314526
     84          1           0        2.840369   -5.642547    2.705130
     85          8           0        5.005976   -6.908870    2.292414
     86          6           0        1.731056   -4.166855    1.560806
     87          1           0        2.379144   -3.305490    1.758029
     88          1           0        1.384217   -4.040149    0.528282
     89          6           0        0.527217   -4.113183    2.512741
     90          1           0        0.871930   -4.193390    3.553371
     91          1           0       -0.160602   -4.950235    2.335041
     92          6           0       -0.175941   -2.780322    2.297625
     93          1           0        0.513358   -1.940283    2.398130
     94          1           0       -0.618171   -2.719576    1.298419
     95          7           0       -1.299714   -2.508332    3.256138
     96          1           0       -1.720530   -1.586254    2.994078
     97          1           0       -0.962068   -2.469104    4.220428
     98          1           0       -2.076354   -3.219690    3.199042
     99          8           0        5.203180   -7.193509    0.061208
    100          1           0        5.748375   -7.943227    0.368124
 ---------------------------------------------------------------------

 SCF Done:  E(RB3LYP) =  -2418.61818231     A.U. after    3 cycles

 Alpha  occ. eigenvalues --  -19.28491 -19.25353 -19.23942 -19.23287 -19.23016
 Alpha  occ. eigenvalues --  -19.22480 -19.22154 -19.21557 -19.20932 -19.20148
 Alpha  occ. eigenvalues --  -19.18622 -14.53649 -14.48575 -14.48283 -14.47320
 Alpha  occ. eigenvalues --  -14.45849 -14.45601 -14.44587 -14.42294 -14.41940
 Alpha  occ. eigenvalues --  -10.41492 -10.41017 -10.40624 -10.39683 -10.38408
 Alpha  occ. eigenvalues --  -10.38405 -10.37107 -10.35743 -10.34907 -10.34493
 Alpha  occ. eigenvalues --  -10.34441 -10.33807 -10.32604 -10.32528 -10.32329
 Alpha  occ. eigenvalues --  -10.31320 -10.30929 -10.30584 -10.30478 -10.29762
 Alpha  occ. eigenvalues --  -10.29730 -10.28552 -10.28020 -10.27700 -10.27655
 Alpha  occ. eigenvalues --  -10.27016 -10.26384 -10.24748  -1.19122  -1.16685
 Alpha  occ. eigenvalues --   -1.15400  -1.14773  -1.13719  -1.12830  -1.12044
 Alpha  occ. eigenvalues --   -1.10668  -1.10444  -1.10094  -1.09632  -1.09063
 Alpha  occ. eigenvalues --   -1.04836  -1.04208  -1.02293  -1.02016  -1.01623
 Alpha  occ. eigenvalues --   -1.01139  -0.99416  -0.99153  -0.91872  -0.90808
 Alpha  occ. eigenvalues --   -0.88914  -0.87009  -0.86821  -0.86611  -0.84091
 Alpha  occ. eigenvalues --   -0.83448  -0.81740  -0.81387  -0.79691  -0.78962
 Alpha  occ. eigenvalues --   -0.76771  -0.75016  -0.74781  -0.72928  -0.72340
 Alpha  occ. eigenvalues --   -0.71570  -0.70903  -0.70199  -0.69604  -0.69460
 Alpha  occ. eigenvalues --   -0.68845  -0.68513  -0.68053  -0.67434  -0.66890
 Alpha  occ. eigenvalues --   -0.66809  -0.66015  -0.65376  -0.64802  -0.63867
 Alpha  occ. eigenvalues --   -0.62854  -0.62344  -0.62017  -0.61068  -0.60932
 Alpha  occ. eigenvalues --   -0.60672  -0.60148  -0.59631  -0.59417  -0.58557
 Alpha  occ. eigenvalues --   -0.58191  -0.57716  -0.57085  -0.56633  -0.56456
 Alpha  occ. eigenvalues --   -0.56418  -0.56231  -0.55900  -0.55482  -0.55167
 Alpha  occ. eigenvalues --   -0.54206  -0.53704  -0.53392  -0.53090  -0.52797
 Alpha  occ. eigenvalues --   -0.52577  -0.52398  -0.52056  -0.51895  -0.51550
 Alpha  occ. eigenvalues --   -0.51184  -0.51036  -0.50886  -0.50674  -0.50560
 Alpha  occ. eigenvalues --   -0.49840  -0.49728  -0.49405  -0.49034  -0.48952
 Alpha  occ. eigenvalues --   -0.48826  -0.48741  -0.47961  -0.47726  -0.47357
 Alpha  occ. eigenvalues --   -0.47354  -0.47154  -0.46801  -0.46661  -0.46420
 Alpha  occ. eigenvalues --   -0.46158  -0.46014  -0.45820  -0.45471  -0.45098
 Alpha  occ. eigenvalues --   -0.44569  -0.44395  -0.44046  -0.43636  -0.43385
 Alpha  occ. eigenvalues --   -0.42953  -0.42403  -0.42317  -0.42224  -0.41912
 Alpha  occ. eigenvalues --   -0.41343  -0.40111  -0.39617  -0.39266  -0.38893
 Alpha  occ. eigenvalues --   -0.38186  -0.37411  -0.37372  -0.36917  -0.36611
 Alpha  occ. eigenvalues --   -0.36486  -0.35963  -0.35068  -0.34551  -0.34403
 Alpha  occ. eigenvalues --   -0.33887  -0.33653  -0.33445  -0.32372  -0.31319
 Alpha virt. eigenvalues --   -0.11048  -0.10668  -0.09119  -0.07942  -0.07485
 Alpha virt. eigenvalues --   -0.07372  -0.07066  -0.05973  -0.05134  -0.05006
 Alpha virt. eigenvalues --   -0.03671  -0.03253  -0.01148  -0.00729  -0.00344

 Mulliken charges:
               1
     1  N   -0.691104
     2  H    0.323263
     3  H    0.314876
     4  C   -0.068855
     5  H    0.148474
     6  C    0.607568
     7  C   -0.326643
     8  H    0.211385
     9  H    0.177336
    10  O   -0.546977
    11  C    0.575466
    12  N   -0.708535
    13  H    0.341972
    14  H    0.377016
    15  O   -0.558725
    16  N   -0.632015
    17  H    0.340298
    18  C   -0.038189
    19  H    0.178037
    20  C    0.689760
    21  C   -0.119145
    22  H    0.147068
    23  O   -0.619371
    24  C   -0.296131
    25  H    0.197436
    26  H    0.158883
    27  C   -0.483196
    28  H    0.192933
    29  H    0.179370
    30  H    0.096272
    31  C   -0.458538
    32  H    0.177561
    33  H    0.120660
    34  H    0.157103
    35  N   -0.571574
    36  H    0.363797
    37  C   -0.033542
    38  H    0.154736
    39  C    0.612982
    40  C   -0.492539
    41  H    0.186777
    42  H    0.176512
    43  H    0.190332
    44  O   -0.509642
    45  N   -0.627932
    46  H    0.350875
    47  C   -0.063816
    48  H    0.188293
    49  C    0.653640
    50  C    0.131083
    51  H    0.138709
    52  O   -0.573507
    53  C   -0.466983
    54  H    0.192179
    55  H    0.160210
    56  H    0.153628
    57  O   -0.660431
    58  H    0.438100
    59  N   -0.589419
    60  H    0.358375
    61  C   -0.074495
    62  H    0.190211
    63  C    0.628509
    64  C   -0.071214
    65  H    0.163565
    66  H    0.169078
    67  O   -0.511341
    68  O   -0.632009
    69  H    0.412245
    70  N   -0.591177
    71  H    0.372474
    72  C   -0.258797
    73  H    0.172007
    74  H    0.221422
    75  C    0.616977
    76  O   -0.517652
    77  N   -0.611323
    78  H    0.354170
    79  C   -0.056421
    80  H    0.209460
    81  C    0.594568
    82  C   -0.263589
    83  H    0.147618
    84  H    0.176901
    85  O   -0.445570
    86  C   -0.274640
    87  H    0.174445
    88  H    0.153076
    89  C   -0.276467
    90  H    0.151983
    91  H    0.164088
    92  C   -0.216727
    93  H    0.235154
    94  H    0.177637
    95  N   -0.812719
    96  H    0.437131
    97  H    0.384283
    98  H    0.431063
    99  O   -0.579714
   100  H    0.429632
 Sum of Mulliken charges =   1.00000

 Dipole moment (field-independent basis, Debye):
    X=             -6.6958    Y=             -5.9402    Z=              6.9031  Tot=             11.3037
 Quadrupole moment (field-independent basis, Debye-Ang):
   XX=           -218.2997   YY=           -219.8767   ZZ=           -222.1184
   XY=            -17.8183   XZ=            -46.8384   YZ=              1.0167

 Normal termination of Gaussian 16 at Mon Jun  6 02:58:30 2022.
