 Gaussian 16, Revision C.01,
 Gaussian 16:  ES64L-G16RevC.01  3-Jul-2019

 ----------------------------------------------------------------------
 # B3LYP/6-31G* empiricaldispersion=gd3 guess=read geom=check nosymm in
 tegral(ultrafinegrid)
 ----------------------------------------------------------------------

 ------------------------------------------------------
 Candidate Structure: Conf:746 Charge calc in gas phase
 ------------------------------------------------------
 Structure from the checkpoint file:  "conf-746.chk"
 Charge =  1 Multiplicity = 1

                          Input orientation:
 ---------------------------------------------------------------------
 Center     Atomic      Atomic             Coordinates (Angstroms)
 Number     Number       Type             X           Y           Z
 ---------------------------------------------------------------------
      1          7           0       -5.295845   -3.194786    0.913896
      2          1           0       -5.508641   -2.458818    0.236514
      3          1           0       -6.075400   -3.192998    1.570435
      4          6           0       -4.064864   -2.805514    1.609977
      5          1           0       -3.999172   -3.382947    2.540604
      6          6           0       -4.036668   -1.295271    1.914574
      7          6           0       -2.823340   -3.119890    0.733361
      8          1           0       -2.934238   -2.585415   -0.219488
      9          1           0       -1.922886   -2.710051    1.196707
     10          8           0       -4.638466   -0.501668    1.203648
     11          6           0       -2.581600   -4.595089    0.428613
     12          7           0       -3.667312   -5.339352    0.196672
     13          1           0       -3.552301   -6.317525   -0.033679
     14          1           0       -4.589228   -4.893737    0.270223
     15          8           0       -1.430154   -5.072135    0.367508
     16          7           0       -3.275198   -0.909039    2.983132
     17          1           0       -2.661011   -1.608185    3.380554
     18          6           0       -2.804736    0.466966    3.054671
     19          1           0       -3.689299    1.110631    3.017997
     20          6           0       -1.936337    0.753431    1.806440
     21          6           0       -2.044855    0.704563    4.389444
     22          1           0       -2.655287    0.201257    5.152328
     23          8           0       -1.465299   -0.174260    1.137824
     24          6           0       -1.981448    2.197918    4.770659
     25          1           0       -2.975153    2.644235    4.624424
     26          1           0       -1.291727    2.720309    4.094299
     27          6           0       -0.646241    0.064699    4.371075
     28          1           0        0.022925    0.630321    3.712777
     29          1           0       -0.205438    0.053017    5.371210
     30          1           0       -0.662596   -0.970104    4.007680
     31          6           0       -1.539546    2.443875    6.218237
     32          1           0       -1.576780    3.511734    6.455881
     33          1           0       -2.195599    1.921225    6.924217
     34          1           0       -0.513752    2.104643    6.395755
     35          7           0       -1.704422    2.053558    1.520785
     36          1           0       -2.172613    2.755936    2.077968
     37          6           0       -1.083817    2.520509    0.269385
     38          1           0       -1.465965    1.872398   -0.530890
     39          6           0        0.456859    2.361393    0.247445
     40          6           0       -1.479544    3.967907    0.001884
     41          1           0       -1.037042    4.298972   -0.939517
     42          1           0       -2.568329    4.060245   -0.062298
     43          1           0       -1.100118    4.627168    0.789331
     44          8           0        1.207813    3.305805    0.017429
     45          7           0        0.898118    1.085877    0.417928
     46          1           0        0.203283    0.339444    0.478907
     47          6           0        2.263835    0.723791    0.070223
     48          1           0        2.943517    1.487318    0.458313
     49          6           0        2.367194    0.663298   -1.464599
     50          6           0        2.629834   -0.645724    0.663494
     51          1           0        3.622878   -0.910561    0.275722
     52          8           0        2.075799   -0.388371   -2.078881
     53          6           0        2.619669   -0.671813    2.181288
     54          1           0        3.324471    0.060642    2.586598
     55          1           0        2.915951   -1.662406    2.544893
     56          1           0        1.619445   -0.444337    2.558777
     57          8           0        1.662603   -1.610002    0.196161
     58          1           0        1.651914   -1.471436   -0.787094
     59          7           0        2.732418    1.795116   -2.071612
     60          1           0        2.698816    2.648297   -1.518636
     61          6           0        2.804796    1.937386   -3.531304
     62          1           0        1.938029    1.425961   -3.966309
     63          6           0        4.117103    1.285240   -4.028570
     64          6           0        2.766599    3.416503   -3.890775
     65          1           0        2.772568    3.510411   -4.985482
     66          1           0        3.677773    3.899406   -3.513084
     67          8           0        5.102709    1.947931   -4.315761
     68          8           0        1.585161    3.952485   -3.304929
     69          1           0        1.633207    4.918380   -3.358511
     70          7           0        4.049650   -0.078306   -4.096260
     71          1           0        3.245009   -0.494749   -3.633821
     72          6           0        5.249449   -0.878274   -4.148213
     73          1           0        5.163836   -1.654357   -4.918825
     74          1           0        6.076463   -0.217127   -4.428943
     75          6           0        5.564481   -1.498031   -2.774120
     76          8           0        5.261339   -0.941446   -1.720980
     77          7           0        6.200383   -2.696434   -2.847496
     78          1           0        6.383813   -3.115491   -3.752470
     79          6           0        6.749706   -3.428060   -1.716560
     80          1           0        7.601184   -2.878134   -1.290559
     81          6           0        7.307250   -4.735515   -2.274344
     82          6           0        5.748298   -3.674008   -0.564186
     83          1           0        6.238772   -4.322492    0.169629
     84          1           0        5.569257   -2.705969   -0.091291
     85          8           0        7.239233   -5.075123   -3.435964
     86          6           0        4.405730   -4.269171   -1.001622
     87          1           0        3.967378   -3.624581   -1.772606
     88          1           0        4.542661   -5.261367   -1.452202
     89          6           0        3.440921   -4.340141    0.189347
     90          1           0        3.434808   -3.354858    0.668110
     91          1           0        3.804066   -5.058255    0.936803
     92          6           0        2.001433   -4.680750   -0.204459
     93          1           0        1.715245   -4.178869   -1.132227
     94          1           0        1.829601   -5.752610   -0.328261
     95          7           0        1.046205   -4.170463    0.840371
     96          1           0        0.034802   -4.439971    0.642185
     97          1           0        1.142726   -3.127344    0.836540
     98          1           0        1.291626   -4.527769    1.766921
     99          8           0        7.894902   -5.470850   -1.313125
    100          1           0        8.248157   -6.274727   -1.740091
 ---------------------------------------------------------------------

 SCF Done:  E(RB3LYP) =  -2418.62905642     A.U. after    2 cycles

 Alpha  occ. eigenvalues --  -19.28836 -19.25186 -19.23411 -19.22740 -19.22202
 Alpha  occ. eigenvalues --  -19.22151 -19.21831 -19.21153 -19.20334 -19.19647
 Alpha  occ. eigenvalues --  -19.18379 -14.52876 -14.46384 -14.45426 -14.45118
 Alpha  occ. eigenvalues --  -14.44703 -14.44279 -14.43837 -14.42428 -14.42146
 Alpha  occ. eigenvalues --  -10.41330 -10.39750 -10.38781 -10.38323 -10.37819
 Alpha  occ. eigenvalues --  -10.37162 -10.36881 -10.35509 -10.35101 -10.33833
 Alpha  occ. eigenvalues --  -10.33203 -10.33003 -10.32861 -10.32566 -10.32335
 Alpha  occ. eigenvalues --  -10.30898 -10.30537 -10.29933 -10.29877 -10.29806
 Alpha  occ. eigenvalues --  -10.29384 -10.28339 -10.27714 -10.27383 -10.27380
 Alpha  occ. eigenvalues --  -10.27262 -10.26187 -10.25455  -1.19900  -1.14386
 Alpha  occ. eigenvalues --   -1.14158  -1.13761  -1.12789  -1.11899  -1.11707
 Alpha  occ. eigenvalues --   -1.11484  -1.10920  -1.10135  -1.09062  -1.08308
 Alpha  occ. eigenvalues --   -1.02535  -1.02139  -1.01649  -1.00965  -1.00913
 Alpha  occ. eigenvalues --   -1.00526  -0.98938  -0.98668  -0.90844  -0.90774
 Alpha  occ. eigenvalues --   -0.87827  -0.86885  -0.86426  -0.85691  -0.84783
 Alpha  occ. eigenvalues --   -0.82473  -0.81568  -0.80221  -0.79902  -0.79000
 Alpha  occ. eigenvalues --   -0.75630  -0.74553  -0.73836  -0.72437  -0.71934
 Alpha  occ. eigenvalues --   -0.70859  -0.70397  -0.69817  -0.68900  -0.68626
 Alpha  occ. eigenvalues --   -0.67893  -0.67824  -0.67650  -0.66602  -0.65983
 Alpha  occ. eigenvalues --   -0.65450  -0.65187  -0.64621  -0.63783  -0.62702
 Alpha  occ. eigenvalues --   -0.62061  -0.61790  -0.61351  -0.60518  -0.60112
 Alpha  occ. eigenvalues --   -0.59358  -0.59142  -0.58566  -0.58117  -0.57980
 Alpha  occ. eigenvalues --   -0.57848  -0.57535  -0.56855  -0.56290  -0.55915
 Alpha  occ. eigenvalues --   -0.55563  -0.55529  -0.55298  -0.54847  -0.54667
 Alpha  occ. eigenvalues --   -0.54528  -0.54059  -0.53645  -0.53275  -0.52938
 Alpha  occ. eigenvalues --   -0.52393  -0.52179  -0.51514  -0.50966  -0.50862
 Alpha  occ. eigenvalues --   -0.50669  -0.50600  -0.50145  -0.49872  -0.49343
 Alpha  occ. eigenvalues --   -0.49321  -0.49150  -0.48809  -0.48599  -0.48359
 Alpha  occ. eigenvalues --   -0.48115  -0.47827  -0.47428  -0.47387  -0.47225
 Alpha  occ. eigenvalues --   -0.47088  -0.46650  -0.46597  -0.46450  -0.46312
 Alpha  occ. eigenvalues --   -0.46084  -0.45725  -0.45551  -0.45144  -0.45026
 Alpha  occ. eigenvalues --   -0.44515  -0.44229  -0.44198  -0.43877  -0.43603
 Alpha  occ. eigenvalues --   -0.43315  -0.42675  -0.42358  -0.41906  -0.41502
 Alpha  occ. eigenvalues --   -0.40972  -0.40832  -0.38198  -0.37393  -0.37295
 Alpha  occ. eigenvalues --   -0.37160  -0.37009  -0.36912  -0.36684  -0.36233
 Alpha  occ. eigenvalues --   -0.35985  -0.35102  -0.34430  -0.33979  -0.33921
 Alpha  occ. eigenvalues --   -0.33832  -0.33406  -0.32915  -0.31956  -0.31253
 Alpha virt. eigenvalues --   -0.08644  -0.08349  -0.08286  -0.07997  -0.06847
 Alpha virt. eigenvalues --   -0.06407  -0.05911  -0.05706  -0.04302  -0.03168
 Alpha virt. eigenvalues --   -0.02324  -0.01092  -0.00994  -0.00848  -0.00121

 Mulliken charges:
               1
     1  N   -0.736930
     2  H    0.340050
     3  H    0.330948
     4  C   -0.106314
     5  H    0.156623
     6  C    0.628791
     7  C   -0.357900
     8  H    0.203990
     9  H    0.170466
    10  O   -0.515151
    11  C    0.607007
    12  N   -0.723776
    13  H    0.351888
    14  H    0.400169
    15  O   -0.582099
    16  N   -0.597838
    17  H    0.328838
    18  C   -0.063143
    19  H    0.187153
    20  C    0.657144
    21  C   -0.094679
    22  H    0.156086
    23  O   -0.570132
    24  C   -0.279829
    25  H    0.143745
    26  H    0.140816
    27  C   -0.480884
    28  H    0.171770
    29  H    0.173596
    30  H    0.128355
    31  C   -0.453217
    32  H    0.165750
    33  H    0.156339
    34  H    0.155817
    35  N   -0.601660
    36  H    0.350042
    37  C   -0.059279
    38  H    0.192422
    39  C    0.627038
    40  C   -0.477649
    41  H    0.197124
    42  H    0.161528
    43  H    0.170804
    44  O   -0.521642
    45  N   -0.631605
    46  H    0.391921
    47  C   -0.077491
    48  H    0.188447
    49  C    0.687280
    50  C    0.101399
    51  H    0.190794
    52  O   -0.612270
    53  C   -0.480282
    54  H    0.174483
    55  H    0.141299
    56  H    0.174316
    57  O   -0.707300
    58  H    0.443028
    59  N   -0.589784
    60  H    0.386747
    61  C   -0.075502
    62  H    0.185416
    63  C    0.622648
    64  C   -0.068630
    65  H    0.160327
    66  H    0.166957
    67  O   -0.505707
    68  O   -0.625684
    69  H    0.409950
    70  N   -0.590650
    71  H    0.368624
    72  C   -0.248415
    73  H    0.165787
    74  H    0.227603
    75  C    0.611114
    76  O   -0.529991
    77  N   -0.632107
    78  H    0.360887
    79  C   -0.010358
    80  H    0.199452
    81  C    0.580167
    82  C   -0.293390
    83  H    0.168466
    84  H    0.185061
    85  O   -0.459632
    86  C   -0.271602
    87  H    0.159379
    88  H    0.154311
    89  C   -0.296867
    90  H    0.171837
    91  H    0.156477
    92  C   -0.175154
    93  H    0.196879
    94  H    0.202568
    95  N   -0.804508
    96  H    0.444741
    97  H    0.434607
    98  H    0.375811
    99  O   -0.562840
   100  H    0.428808
 Sum of Mulliken charges =   1.00000

 Dipole moment (field-independent basis, Debye):
    X=              1.2828    Y=            -12.6439    Z=              6.5275  Tot=             14.2871
 Quadrupole moment (field-independent basis, Debye-Ang):
   XX=           -211.6320   YY=           -181.7737   ZZ=           -245.2344
   XY=            -30.8430   XZ=            -17.6965   YZ=             -6.2257

 Normal termination of Gaussian 16 at Mon Jun  6 02:58:00 2022.
