 Gaussian 16, Revision C.01,
 Gaussian 16:  ES64L-G16RevC.01  3-Jul-2019

 ----------------------------------------------------------------------
 # B3LYP/6-31G* empiricaldispersion=gd3 guess=read geom=check nosymm in
 tegral(ultrafinegrid)
 ----------------------------------------------------------------------

 ------------------------------------------------------
 Candidate Structure: Conf:496 Charge calc in gas phase
 ------------------------------------------------------
 Structure from the checkpoint file:  "conf-496.chk"
 Charge =  1 Multiplicity = 1

                          Input orientation:
 ---------------------------------------------------------------------
 Center     Atomic      Atomic             Coordinates (Angstroms)
 Number     Number       Type             X           Y           Z
 ---------------------------------------------------------------------
      1          7           0       -6.969874    2.563870    5.323718
      2          1           0       -7.179526    3.537608    5.094509
      3          1           0       -6.282309    2.614554    6.074620
      4          6           0       -6.345297    1.967657    4.137699
      5          1           0       -5.831086    1.048737    4.447779
      6          6           0       -5.324095    2.927958    3.495263
      7          6           0       -7.415898    1.600010    3.082539
      8          1           0       -8.020303    2.494536    2.878798
      9          1           0       -6.940088    1.306737    2.143700
     10          8           0       -5.369697    4.140325    3.695774
     11          6           0       -8.344784    0.440007    3.468829
     12          7           0       -8.876376    0.526761    4.717333
     13          1           0       -9.446239   -0.241741    5.041887
     14          1           0       -8.515742    1.230200    5.360878
     15          8           0       -8.593546   -0.463036    2.679705
     16          7           0       -4.411115    2.350346    2.674069
     17          1           0       -4.410653    1.352397    2.501133
     18          6           0       -3.456640    3.137401    1.912994
     19          1           0       -3.960500    4.061300    1.613133
     20          6           0       -3.071374    2.319363    0.686629
     21          6           0       -2.207656    3.514993    2.777997
     22          1           0       -2.653209    3.982446    3.665881
     23          8           0       -3.139201    1.082214    0.681572
     24          6           0       -1.277886    4.553333    2.119610
     25          1           0       -0.763663    4.099720    1.262362
     26          1           0       -0.486289    4.774949    2.847086
     27          6           0       -1.411993    2.275295    3.206799
     28          1           0       -0.870535    1.826972    2.367962
     29          1           0       -0.673020    2.550915    3.967444
     30          1           0       -2.061045    1.506300    3.637868
     31          6           0       -1.951114    5.875053    1.724244
     32          1           0       -1.205760    6.615698    1.415020
     33          1           0       -2.659191    5.768908    0.890644
     34          1           0       -2.519135    6.293955    2.562901
     35          7           0       -2.617028    3.007076   -0.385743
     36          1           0       -2.460859    4.001451   -0.290411
     37          6           0       -1.938148    2.314777   -1.478496
     38          1           0       -2.656331    1.626247   -1.937251
     39          6           0       -0.744992    1.531793   -0.885940
     40          6           0       -1.439806    3.331499   -2.504385
     41          1           0       -0.982045    2.817016   -3.354535
     42          1           0       -2.266965    3.944405   -2.877080
     43          1           0       -0.682537    3.977460   -2.048015
     44          8           0        0.114576    2.107880   -0.227407
     45          7           0       -0.733335    0.202599   -1.160840
     46          1           0       -1.510365   -0.213273   -1.658029
     47          6           0        0.185433   -0.725676   -0.528850
     48          1           0        0.987586   -0.130338   -0.084774
     49          6           0        0.690612   -1.691910   -1.593364
     50          6           0       -0.538193   -1.507121    0.616508
     51          1           0       -1.354269   -2.080077    0.143963
     52          8           0       -0.061663   -2.163536   -2.442367
     53          6           0        0.401186   -2.466371    1.340622
     54          1           0        0.785008   -3.245379    0.674575
     55          1           0       -0.139931   -2.942561    2.162439
     56          1           0        1.246547   -1.914937    1.768827
     57          8           0       -1.033655   -0.611071    1.581647
     58          1           0       -1.779670   -0.099485    1.210963
     59          7           0        2.008333   -2.035786   -1.518979
     60          1           0        2.615878   -1.667347   -0.796857
     61          6           0        2.554173   -3.072193   -2.364104
     62          1           0        1.796590   -3.850154   -2.513166
     63          6           0        3.807280   -3.636851   -1.702259
     64          6           0        2.925972   -2.495252   -3.744994
     65          1           0        3.644429   -1.676387   -3.610693
     66          1           0        2.009073   -2.105979   -4.199867
     67          8           0        4.474829   -2.996140   -0.901070
     68          8           0        3.492907   -3.543333   -4.546844
     69          1           0        3.886114   -3.116557   -5.328005
     70          7           0        4.166727   -4.891874   -2.126227
     71          1           0        3.651525   -5.289743   -2.900973
     72          6           0        5.483174   -5.395392   -1.828669
     73          1           0        5.755882   -5.093123   -0.814093
     74          1           0        5.483162   -6.490790   -1.859172
     75          6           0        6.612121   -4.904482   -2.736433
     76          8           0        7.792938   -5.207077   -2.452125
     77          7           0        6.297841   -4.196100   -3.827550
     78          1           0        5.313350   -3.956702   -4.011611
     79          6           0        7.328701   -3.611397   -4.686460
     80          1           0        8.182600   -3.351584   -4.054967
     81          6           0        6.789325   -2.327707   -5.312276
     82          6           0        7.827070   -4.522155   -5.844315
     83          1           0        6.961664   -4.884309   -6.412909
     84          1           0        8.403388   -3.879777   -6.518597
     85          8           0        5.626850   -2.114047   -5.590252
     86          6           0        8.728439   -5.693873   -5.405892
     87          1           0        9.410270   -5.944449   -6.226995
     88          1           0        9.354443   -5.336282   -4.580065
     89          6           0        7.955327   -6.964280   -5.005905
     90          1           0        7.626745   -7.492812   -5.908463
     91          1           0        7.042972   -6.708968   -4.461647
     92          6           0        8.761023   -7.965825   -4.178697
     93          1           0        8.146149   -8.822099   -3.892651
     94          1           0        9.641732   -8.335280   -4.710353
     95          7           0        9.255295   -7.338337   -2.881335
     96          1           0       10.127568   -6.822398   -3.027469
     97          1           0        9.436529   -8.042094   -2.160212
     98          1           0        8.562002   -6.609453   -2.522586
     99          8           0        7.787840   -1.479549   -5.584600
    100          1           0        7.410919   -0.699700   -6.038010
 ---------------------------------------------------------------------

 SCF Done:  E(RB3LYP) =  -2418.58280254     A.U. after    1 cycles

 Alpha  occ. eigenvalues --  -19.32626 -19.27613 -19.26509 -19.25945 -19.22657
 Alpha  occ. eigenvalues --  -19.18854 -19.18486 -19.17708 -19.16950 -19.15378
 Alpha  occ. eigenvalues --  -19.12164 -14.60025 -14.49985 -14.47459 -14.44047
 Alpha  occ. eigenvalues --  -14.42582 -14.41931 -14.39926 -14.36340 -14.35935
 Alpha  occ. eigenvalues --  -10.45649 -10.43249 -10.40474 -10.39516 -10.37415
 Alpha  occ. eigenvalues --  -10.35941 -10.35491 -10.35102 -10.34254 -10.34187
 Alpha  occ. eigenvalues --  -10.33103 -10.32971 -10.32779 -10.32772 -10.32178
 Alpha  occ. eigenvalues --  -10.30120 -10.29724 -10.29233 -10.28812 -10.27814
 Alpha  occ. eigenvalues --  -10.26781 -10.24660 -10.23194 -10.22871 -10.22346
 Alpha  occ. eigenvalues --  -10.21886 -10.21845 -10.20122  -1.23915  -1.18036
 Alpha  occ. eigenvalues --   -1.15114  -1.14859  -1.14564  -1.12609  -1.11032
 Alpha  occ. eigenvalues --   -1.10487  -1.08734  -1.07213  -1.06601  -1.05811
 Alpha  occ. eigenvalues --   -1.03929  -1.03756  -1.00615  -0.98990  -0.98165
 Alpha  occ. eigenvalues --   -0.96563  -0.95352  -0.93563  -0.91881  -0.90709
 Alpha  occ. eigenvalues --   -0.87704  -0.86069  -0.85496  -0.84296  -0.83205
 Alpha  occ. eigenvalues --   -0.81749  -0.79677  -0.79383  -0.77401  -0.76923
 Alpha  occ. eigenvalues --   -0.75713  -0.74931  -0.74354  -0.73934  -0.73368
 Alpha  occ. eigenvalues --   -0.72861  -0.71240  -0.70977  -0.69867  -0.68630
 Alpha  occ. eigenvalues --   -0.67132  -0.66762  -0.66358  -0.65603  -0.65118
 Alpha  occ. eigenvalues --   -0.64926  -0.64296  -0.63896  -0.63476  -0.62942
 Alpha  occ. eigenvalues --   -0.61640  -0.60994  -0.60617  -0.60159  -0.59764
 Alpha  occ. eigenvalues --   -0.59622  -0.59346  -0.58820  -0.58299  -0.57715
 Alpha  occ. eigenvalues --   -0.57663  -0.56800  -0.56570  -0.56273  -0.55791
 Alpha  occ. eigenvalues --   -0.55431  -0.54840  -0.54635  -0.54383  -0.54228
 Alpha  occ. eigenvalues --   -0.53869  -0.53406  -0.52970  -0.52535  -0.52219
 Alpha  occ. eigenvalues --   -0.51792  -0.51574  -0.51428  -0.50409  -0.49893
 Alpha  occ. eigenvalues --   -0.49741  -0.48941  -0.48490  -0.48319  -0.48279
 Alpha  occ. eigenvalues --   -0.47912  -0.47795  -0.47588  -0.47523  -0.47230
 Alpha  occ. eigenvalues --   -0.47113  -0.46737  -0.46218  -0.45892  -0.45250
 Alpha  occ. eigenvalues --   -0.45072  -0.44880  -0.44660  -0.44355  -0.44037
 Alpha  occ. eigenvalues --   -0.43854  -0.43782  -0.43455  -0.42966  -0.42435
 Alpha  occ. eigenvalues --   -0.42370  -0.42077  -0.41428  -0.40985  -0.40929
 Alpha  occ. eigenvalues --   -0.40845  -0.40494  -0.40328  -0.39960  -0.39062
 Alpha  occ. eigenvalues --   -0.38462  -0.37801  -0.37208  -0.37051  -0.36967
 Alpha  occ. eigenvalues --   -0.36531  -0.35999  -0.35932  -0.33590  -0.33448
 Alpha  occ. eigenvalues --   -0.33121  -0.32516  -0.32187  -0.30537  -0.30389
 Alpha  occ. eigenvalues --   -0.29194  -0.29089  -0.28602  -0.27565  -0.25840
 Alpha virt. eigenvalues --   -0.13241  -0.12243  -0.11339  -0.08772  -0.06846
 Alpha virt. eigenvalues --   -0.05136  -0.05098  -0.04853  -0.04063  -0.03397
 Alpha virt. eigenvalues --   -0.03093  -0.02008  -0.01452  -0.01380  -0.01057

 Mulliken charges:
               1
     1  N   -0.721455
     2  H    0.326677
     3  H    0.314149
     4  C   -0.096473
     5  H    0.153227
     6  C    0.603693
     7  C   -0.349117
     8  H    0.172424
     9  H    0.168706
    10  O   -0.534813
    11  C    0.567324
    12  N   -0.748219
    13  H    0.329864
    14  H    0.374019
    15  O   -0.514303
    16  N   -0.612664
    17  H    0.351063
    18  C   -0.058361
    19  H    0.180281
    20  C    0.646208
    21  C   -0.074755
    22  H    0.159215
    23  O   -0.580738
    24  C   -0.290339
    25  H    0.161200
    26  H    0.145512
    27  C   -0.480191
    28  H    0.182974
    29  H    0.143834
    30  H    0.144219
    31  C   -0.466043
    32  H    0.153189
    33  H    0.125420
    34  H    0.170396
    35  N   -0.597496
    36  H    0.354689
    37  C   -0.024769
    38  H    0.162448
    39  C    0.624118
    40  C   -0.489199
    41  H    0.168238
    42  H    0.169646
    43  H    0.181692
    44  O   -0.526966
    45  N   -0.598762
    46  H    0.348226
    47  C   -0.077832
    48  H    0.182634
    49  C    0.630764
    50  C    0.143002
    51  H    0.128908
    52  O   -0.539666
    53  C   -0.462168
    54  H    0.134612
    55  H    0.175420
    56  H    0.153876
    57  O   -0.651857
    58  H    0.453063
    59  N   -0.623155
    60  H    0.359134
    61  C   -0.047814
    62  H    0.193704
    63  C    0.590591
    64  C   -0.048882
    65  H    0.155580
    66  H    0.194596
    67  O   -0.509136
    68  O   -0.659607
    69  H    0.437948
    70  N   -0.594370
    71  H    0.355143
    72  C   -0.236453
    73  H    0.240992
    74  H    0.178375
    75  C    0.628638
    76  O   -0.600993
    77  N   -0.628199
    78  H    0.410095
    79  C   -0.026548
    80  H    0.209157
    81  C    0.585869
    82  C   -0.286253
    83  H    0.170974
    84  H    0.189389
    85  O   -0.474905
    86  C   -0.276580
    87  H    0.174143
    88  H    0.139352
    89  C   -0.291186
    90  H    0.194573
    91  H    0.167967
    92  C   -0.195051
    93  H    0.214314
    94  H    0.214642
    95  N   -0.758245
    96  H    0.411228
    97  H    0.410969
    98  H    0.445500
    99  O   -0.542876
   100  H    0.438639
 Sum of Mulliken charges =   1.00000

 Dipole moment (field-independent basis, Debye):
    X=             42.0489    Y=            -27.5931    Z=            -20.3819  Tot=             54.2670
 Quadrupole moment (field-independent basis, Debye-Ang):
   XX=             26.4520   YY=            -51.2343   ZZ=           -171.3346
   XY=           -278.1922   XZ=           -168.8460   YZ=            102.9489

 Normal termination of Gaussian 16 at Mon Jun  6 03:05:53 2022.
