 Gaussian 16, Revision C.01,
 Gaussian 16:  ES64L-G16RevC.01  3-Jul-2019

 ----------------------------------------------------------------------
 # B3LYP/6-31G* empiricaldispersion=gd3 guess=read geom=check nosymm in
 tegral(ultrafinegrid)
 ----------------------------------------------------------------------

 ------------------------------------------------------
 Candidate Structure: Conf:883 Charge calc in gas phase
 ------------------------------------------------------
 Structure from the checkpoint file:  "conf-883.chk"
 Charge =  1 Multiplicity = 1

                          Input orientation:
 ---------------------------------------------------------------------
 Center     Atomic      Atomic             Coordinates (Angstroms)
 Number     Number       Type             X           Y           Z
 ---------------------------------------------------------------------
      1          7           0       -3.087442    4.126892    3.882576
      2          1           0       -2.811933    3.393024    4.533267
      3          1           0       -3.961126    4.515397    4.238692
      4          6           0       -3.391369    3.555727    2.560529
      5          1           0       -4.171370    2.771853    2.591562
      6          6           0       -2.107616    2.923619    2.016336
      7          6           0       -3.871800    4.662944    1.622100
      8          1           0       -3.140006    5.478636    1.638345
      9          1           0       -3.909929    4.294429    0.590602
     10          8           0       -1.452350    3.400891    1.085450
     11          6           0       -5.245780    5.191814    2.033888
     12          7           0       -5.809585    6.070047    1.159857
     13          1           0       -6.676535    6.516102    1.427061
     14          1           0       -5.309434    6.433969    0.362432
     15          8           0       -5.809116    4.842842    3.067162
     16          7           0       -1.713382    1.784439    2.656353
     17          1           0       -2.332156    1.359423    3.332442
     18          6           0       -0.398764    1.179703    2.443456
     19          1           0        0.261051    2.016894    2.192205
     20          6           0       -0.421007    0.262517    1.198156
     21          6           0        0.130675    0.515479    3.733394
     22          1           0        0.204251    1.339622    4.457657
     23          8           0       -0.300698   -0.970760    1.257667
     24          6           0        1.552246   -0.061903    3.554695
     25          1           0        1.470286   -0.997704    2.987870
     26          1           0        1.921624   -0.335212    4.550287
     27          6           0       -0.804881   -0.556633    4.317777
     28          1           0       -0.967662   -1.364870    3.601118
     29          1           0       -0.364478   -0.980493    5.226551
     30          1           0       -1.781272   -0.151934    4.610938
     31          6           0        2.559642    0.888252    2.890679
     32          1           0        3.583541    0.495426    2.960140
     33          1           0        2.334402    1.063131    1.830501
     34          1           0        2.571801    1.865801    3.385681
     35          7           0       -0.559162    0.937542    0.039997
     36          1           0       -0.722796    1.946506    0.109535
     37          6           0       -0.685380    0.289110   -1.257790
     38          1           0       -1.677825   -0.175618   -1.337494
     39          6           0        0.388393   -0.799203   -1.375462
     40          6           0       -0.502235    1.326598   -2.370284
     41          1           0       -0.640190    0.862447   -3.351252
     42          1           0       -1.237525    2.130714   -2.264885
     43          1           0        0.503622    1.752706   -2.318623
     44          8           0        1.581685   -0.527739   -1.156922
     45          7           0       -0.053093   -2.012269   -1.741287
     46          1           0       -1.004582   -2.122870   -2.075694
     47          6           0        0.775351   -3.199248   -1.845061
     48          1           0        1.814840   -2.868760   -1.845426
     49          6           0        0.472374   -3.851401   -3.216107
     50          6           0        0.562684   -4.086828   -0.588067
     51          1           0       -0.510062   -4.311271   -0.508055
     52          8           0       -0.556794   -3.583593   -3.827014
     53          6           0        1.351998   -5.387667   -0.593388
     54          1           0        1.033108   -6.045709   -1.404937
     55          1           0        1.197928   -5.902923    0.358071
     56          1           0        2.427462   -5.200531   -0.703798
     57          8           0        0.974167   -3.348418    0.572123
     58          1           0        0.352566   -2.604941    0.736156
     59          7           0        1.464185   -4.650455   -3.666124
     60          1           0        2.278350   -4.829664   -3.084814
     61          6           0        1.707185   -5.006792   -5.054386
     62          1           0        0.881826   -5.591026   -5.473863
     63          6           0        3.007692   -5.820561   -5.034933
     64          6           0        1.890214   -3.684924   -5.886764
     65          1           0        2.530551   -3.019496   -5.292601
     66          1           0        0.902596   -3.226475   -5.976712
     67          8           0        3.642343   -5.974586   -3.987966
     68          8           0        2.419638   -3.874712   -7.181645
     69          1           0        3.391444   -3.773516   -7.090132
     70          7           0        3.480676   -6.244658   -6.238876
     71          1           0        2.997415   -5.842726   -7.038788
     72          6           0        4.936308   -6.343875   -6.357626
     73          1           0        5.301489   -7.211160   -5.802452
     74          1           0        5.186970   -6.474079   -7.413218
     75          6           0        5.543267   -5.025892   -5.828621
     76          8           0        5.068975   -3.935009   -6.167536
     77          7           0        6.544196   -5.134970   -4.930474
     78          1           0        6.793074   -6.053671   -4.580126
     79          6           0        6.876304   -4.036666   -4.024838
     80          1           0        7.069517   -3.130341   -4.603128
     81          6           0        8.128963   -4.443607   -3.265876
     82          6           0        5.687534   -3.811205   -3.051346
     83          1           0        4.845558   -3.502989   -3.678436
     84          1           0        5.418807   -4.788918   -2.638143
     85          8           0        8.467025   -5.590908   -3.076196
     86          6           0        5.865626   -2.806891   -1.905540
     87          1           0        6.592926   -3.185589   -1.176805
     88          1           0        6.259655   -1.851334   -2.272035
     89          6           0        4.497817   -2.592111   -1.233624
     90          1           0        4.014169   -3.568705   -1.094584
     91          1           0        3.853141   -2.005976   -1.900217
     92          6           0        4.567475   -1.897860    0.122969
     93          1           0        5.116814   -2.497452    0.854081
     94          1           0        5.043898   -0.915970    0.051046
     95          7           0        3.180454   -1.673736    0.660713
     96          1           0        3.187282   -1.222025    1.578197
     97          1           0        2.591172   -2.537126    0.727105
     98          1           0        2.611668   -1.079384    0.003118
     99          8           0        8.786446   -3.372778   -2.780234
    100          1           0        9.557440   -3.708724   -2.282772
 ---------------------------------------------------------------------

 SCF Done:  E(RB3LYP) =  -2418.60890382     A.U. after    1 cycles

 Alpha  occ. eigenvalues --  -19.29463 -19.26131 -19.23979 -19.23799 -19.23307
 Alpha  occ. eigenvalues --  -19.22262 -19.22161 -19.21756 -19.21560 -19.21543
 Alpha  occ. eigenvalues --  -19.17907 -14.54334 -14.47910 -14.46138 -14.46041
 Alpha  occ. eigenvalues --  -14.45695 -14.45361 -14.44917 -14.42128 -14.38265
 Alpha  occ. eigenvalues --  -10.41773 -10.41033 -10.39653 -10.38932 -10.38732
 Alpha  occ. eigenvalues --  -10.38499 -10.38099 -10.36692 -10.35679 -10.35421
 Alpha  occ. eigenvalues --  -10.34435 -10.34102 -10.33618 -10.33340 -10.32611
 Alpha  occ. eigenvalues --  -10.32408 -10.31794 -10.31297 -10.30302 -10.29614
 Alpha  occ. eigenvalues --  -10.29459 -10.28702 -10.28501 -10.28413 -10.28290
 Alpha  occ. eigenvalues --  -10.27932 -10.26513 -10.26336  -1.20358  -1.16097
 Alpha  occ. eigenvalues --   -1.14625  -1.14375  -1.13509  -1.13172  -1.13024
 Alpha  occ. eigenvalues --   -1.12833  -1.11487  -1.09835  -1.09787  -1.09680
 Alpha  occ. eigenvalues --   -1.04283  -1.03234  -1.02415  -1.02384  -1.02224
 Alpha  occ. eigenvalues --   -1.01510  -0.96852  -0.95916  -0.92235  -0.91039
 Alpha  occ. eigenvalues --   -0.89949  -0.87967  -0.87470  -0.85368  -0.83969
 Alpha  occ. eigenvalues --   -0.82934  -0.82844  -0.81896  -0.80693  -0.79994
 Alpha  occ. eigenvalues --   -0.75872  -0.75468  -0.74367  -0.73972  -0.73073
 Alpha  occ. eigenvalues --   -0.72529  -0.71435  -0.71106  -0.70322  -0.69465
 Alpha  occ. eigenvalues --   -0.68184  -0.68090  -0.67874  -0.67575  -0.67222
 Alpha  occ. eigenvalues --   -0.66746  -0.66359  -0.64835  -0.64689  -0.63907
 Alpha  occ. eigenvalues --   -0.62205  -0.61934  -0.61621  -0.61019  -0.60772
 Alpha  occ. eigenvalues --   -0.60544  -0.59810  -0.59423  -0.59227  -0.58544
 Alpha  occ. eigenvalues --   -0.58250  -0.57694  -0.57600  -0.57359  -0.56723
 Alpha  occ. eigenvalues --   -0.56277  -0.56178  -0.55888  -0.55513  -0.55317
 Alpha  occ. eigenvalues --   -0.54571  -0.53936  -0.53748  -0.53394  -0.53235
 Alpha  occ. eigenvalues --   -0.52951  -0.52700  -0.52389  -0.52301  -0.51829
 Alpha  occ. eigenvalues --   -0.51697  -0.51348  -0.51072  -0.50751  -0.50642
 Alpha  occ. eigenvalues --   -0.50527  -0.49803  -0.49483  -0.49418  -0.49130
 Alpha  occ. eigenvalues --   -0.48974  -0.48799  -0.48543  -0.48270  -0.48130
 Alpha  occ. eigenvalues --   -0.47975  -0.47526  -0.47300  -0.46983  -0.46964
 Alpha  occ. eigenvalues --   -0.46686  -0.46577  -0.46236  -0.45753  -0.45629
 Alpha  occ. eigenvalues --   -0.45233  -0.45159  -0.44635  -0.44252  -0.44160
 Alpha  occ. eigenvalues --   -0.43478  -0.43305  -0.42795  -0.42614  -0.42430
 Alpha  occ. eigenvalues --   -0.41444  -0.41346  -0.40198  -0.38439  -0.38350
 Alpha  occ. eigenvalues --   -0.38133  -0.37700  -0.37307  -0.36433  -0.36356
 Alpha  occ. eigenvalues --   -0.36273  -0.35576  -0.35333  -0.35136  -0.34361
 Alpha  occ. eigenvalues --   -0.33929  -0.33338  -0.33237  -0.31877  -0.30635
 Alpha virt. eigenvalues --   -0.10378  -0.09481  -0.09356  -0.08867  -0.08241
 Alpha virt. eigenvalues --   -0.07298  -0.06956  -0.06441  -0.04216  -0.03694
 Alpha virt. eigenvalues --   -0.02538  -0.01918  -0.01673  -0.01571  -0.01102

 Mulliken charges:
               1
     1  N   -0.726601
     2  H    0.287684
     3  H    0.344189
     4  C   -0.072522
     5  H    0.144615
     6  C    0.655801
     7  C   -0.363131
     8  H    0.199947
     9  H    0.165299
    10  O   -0.546102
    11  C    0.608325
    12  N   -0.747426
    13  H    0.353388
    14  H    0.344341
    15  O   -0.513876
    16  N   -0.626179
    17  H    0.345098
    18  C   -0.072801
    19  H    0.193004
    20  C    0.646302
    21  C   -0.090079
    22  H    0.152962
    23  O   -0.581281
    24  C   -0.281846
    25  H    0.138043
    26  H    0.159173
    27  C   -0.479452
    28  H    0.183697
    29  H    0.165497
    30  H    0.138963
    31  C   -0.494341
    32  H    0.140824
    33  H    0.152553
    34  H    0.182915
    35  N   -0.619834
    36  H    0.396419
    37  C   -0.013018
    38  H    0.164562
    39  C    0.646712
    40  C   -0.484753
    41  H    0.179697
    42  H    0.182560
    43  H    0.188404
    44  O   -0.595762
    45  N   -0.583163
    46  H    0.363627
    47  C   -0.106336
    48  H    0.165764
    49  C    0.629967
    50  C    0.140083
    51  H    0.156977
    52  O   -0.520420
    53  C   -0.488410
    54  H    0.188026
    55  H    0.187928
    56  H    0.150015
    57  O   -0.689108
    58  H    0.466740
    59  N   -0.636981
    60  H    0.361757
    61  C   -0.063898
    62  H    0.202982
    63  C    0.598498
    64  C   -0.048248
    65  H    0.137407
    66  H    0.191758
    67  O   -0.542969
    68  O   -0.640070
    69  H    0.434572
    70  N   -0.571823
    71  H    0.361136
    72  C   -0.237536
    73  H    0.191392
    74  H    0.202912
    75  C    0.626743
    76  O   -0.551419
    77  N   -0.579801
    78  H    0.361222
    79  C   -0.040192
    80  H    0.204741
    81  C    0.584551
    82  C   -0.289076
    83  H    0.174652
    84  H    0.178064
    85  O   -0.455120
    86  C   -0.270963
    87  H    0.152470
    88  H    0.166684
    89  C   -0.308454
    90  H    0.161311
    91  H    0.186460
    92  C   -0.179663
    93  H    0.197441
    94  H    0.201591
    95  N   -0.819526
    96  H    0.406768
    97  H    0.421795
    98  H    0.452062
    99  O   -0.563159
   100  H    0.426265
 Sum of Mulliken charges =   1.00000

 Dipole moment (field-independent basis, Debye):
    X=             11.3817    Y=             -6.7823    Z=             -1.7652  Tot=             13.3663
 Quadrupole moment (field-independent basis, Debye-Ang):
   XX=           -180.4515   YY=           -219.4353   ZZ=           -247.0725
   XY=            -67.3485   XZ=            -17.4647   YZ=             24.0739

 Normal termination of Gaussian 16 at Mon Jun  6 03:05:50 2022.
