 Gaussian 16, Revision C.01,
 Gaussian 16:  ES64L-G16RevC.01  3-Jul-2019

 ----------------------------------------------------------------------
 # B3LYP/6-31G* empiricaldispersion=gd3 guess=read geom=check nosymm in
 tegral(ultrafinegrid)
 ----------------------------------------------------------------------

 ------------------------------------------------------
 Candidate Structure: Conf:156 Charge calc in gas phase
 ------------------------------------------------------
 Structure from the checkpoint file:  "conf-156.chk"
 Charge =  1 Multiplicity = 1

                          Input orientation:
 ---------------------------------------------------------------------
 Center     Atomic      Atomic             Coordinates (Angstroms)
 Number     Number       Type             X           Y           Z
 ---------------------------------------------------------------------
      1          7           0       -4.524504    0.624864    3.647941
      2          1           0       -4.886999    0.275940    2.724321
      3          1           0       -4.052376   -0.273819    4.159534
      4          1           0       -5.233837    1.109712    4.207732
      5          6           0       -3.323073    1.491216    3.273345
      6          1           0       -3.569216    2.549884    3.379396
      7          6           0       -3.054745    1.115694    1.790755
      8          6           0       -2.104133    1.094789    4.149645
      9          1           0       -1.204741    1.591596    3.787089
     10          1           0       -2.286808    1.403860    5.183968
     11          8           0       -3.809672    0.296886    1.225874
     12          6           0       -1.927047   -0.431441    4.129806
     13          7           0       -0.737212   -0.888555    3.787118
     14          1           0       -0.527774   -1.883287    3.651498
     15          1           0       -0.030261   -0.251739    3.405595
     16          8           0       -2.936372   -1.160642    4.420562
     17          7           0       -1.955197    1.668783    1.233216
     18          1           0       -1.325759    2.231762    1.805355
     19          6           0       -1.226011    0.944224    0.173775
     20          1           0       -1.910879    0.209619   -0.251782
     21          6           0       -0.028550    0.312723    0.903147
     22          6           0       -0.631514    1.889607   -0.906098
     23          1           0        0.161163    2.497491   -0.445747
     24          1           0       -0.128119    1.254837   -1.645319
     25          8           0        0.400167    0.848201    1.970117
     26          6           0       -1.661551    2.754304   -1.598373
     27          6           0       -1.999573    2.526361   -2.937778
     28          1           0       -1.557713    1.687574   -3.464998
     29          6           0       -2.243501    3.848129   -0.935352
     30          1           0       -1.988232    4.036893    0.099757
     31          6           0       -2.881111    3.381325   -3.611360
     32          1           0       -3.133344    3.188367   -4.647767
     33          6           0       -3.121861    4.703534   -1.601956
     34          1           0       -3.557237    5.547413   -1.079362
     35          6           0       -3.438271    4.477077   -2.947048
     36          1           0       -4.117493    5.142208   -3.466319
     37          7           0        0.593191   -0.711914    0.313390
     38          1           0        0.257985   -1.088149   -0.569936
     39          6           0        1.930218   -1.147857    0.795926
     40          1           0        1.965686   -0.882777    1.852426
     41          6           0        2.984148   -0.345343   -0.008167
     42          6           0        2.105997   -2.646350    0.625700
     43          1           0        3.163685   -2.888429    0.781213
     44          1           0        1.872956   -2.951756   -0.400663
     45          8           0        3.803558   -0.917254   -0.751428
     46          6           0        1.237044   -3.406093    1.633264
     47          7           0        1.169758   -4.742959    1.429455
     48          1           0        0.645995   -5.314667    2.084850
     49          1           0        1.672299   -5.204360    0.679913
     50          8           0        0.656369   -2.831312    2.576125
     51          7           0        2.856627    0.992420    0.145427
     52          1           0        2.190180    1.404004    0.800293
     53          6           0        3.588907    1.976770   -0.659260
     54          1           0        4.666398    1.909457   -0.496527
     55          6           0        3.079966    3.380462   -0.296913
     56          6           0        3.270019    1.766596   -2.180997
     57          1           0        3.544228    0.734411   -2.410944
     58          1           0        2.182198    1.871167   -2.284637
     59          8           0        3.813066    4.356041   -0.655807
     60          6           0        4.011271    2.753222   -3.129701
     61          1           0        4.731871    3.337874   -2.551022
     62          1           0        4.556950    2.197253   -3.899297
     63          6           0        3.062958    3.745618   -3.852318
     64          1           0        3.633998    4.345544   -4.568884
     65          1           0        2.284857    3.194675   -4.392393
     66          7           0        2.414594    4.630571   -2.852992
     67          1           0        3.004533    4.827739   -2.003542
     68          7           0        0.283664    4.737549   -3.811770
     69          1           0       -0.713672    4.580849   -3.703232
     70          1           0        0.662511    4.832832   -4.745448
     71          7           0        0.586857    5.070027   -1.517010
     72          1           0       -0.373846    5.383508   -1.437970
     73          6           0        1.097933    4.816105   -2.729639
     74          8           0        1.870647    3.464938    0.168331
     75          1           0        1.086141    4.661758   -0.675123
 ---------------------------------------------------------------------

 SCF Done:  E(RB3LYP) =  -1917.47920593     A.U. after   13 cycles

 Alpha  occ. eigenvalues --  -19.26514 -19.24922 -19.24376 -19.22256 -19.19370
 Alpha  occ. eigenvalues --  -19.17571 -19.16178 -14.54357 -14.49598 -14.49216
 Alpha  occ. eigenvalues --  -14.46461 -14.46448 -14.46256 -14.44005 -14.43729
 Alpha  occ. eigenvalues --  -14.42974 -10.43513 -10.42099 -10.41505 -10.41479
 Alpha  occ. eigenvalues --  -10.40042 -10.40024 -10.36798 -10.36109 -10.34949
 Alpha  occ. eigenvalues --  -10.34075 -10.33522 -10.30920 -10.30370 -10.30000
 Alpha  occ. eigenvalues --  -10.29743 -10.29464 -10.29449 -10.29406 -10.29382
 Alpha  occ. eigenvalues --  -10.29283 -10.29223 -10.25809 -10.25783  -1.17840
 Alpha  occ. eigenvalues --   -1.15436  -1.15320  -1.13010  -1.10417  -1.09981
 Alpha  occ. eigenvalues --   -1.08716  -1.08545  -1.06084  -1.04632  -1.02454
 Alpha  occ. eigenvalues --   -1.00984  -1.00775  -0.99039  -0.98804  -0.97519
 Alpha  occ. eigenvalues --   -0.96140  -0.92657  -0.90226  -0.88460  -0.86235
 Alpha  occ. eigenvalues --   -0.84931  -0.84819  -0.81622  -0.81022  -0.78299
 Alpha  occ. eigenvalues --   -0.76089  -0.74238  -0.72784  -0.72303  -0.71936
 Alpha  occ. eigenvalues --   -0.71384  -0.71211  -0.70779  -0.69238  -0.68841
 Alpha  occ. eigenvalues --   -0.68044  -0.67046  -0.66476  -0.65897  -0.64549
 Alpha  occ. eigenvalues --   -0.64418  -0.63879  -0.63529  -0.62694  -0.62241
 Alpha  occ. eigenvalues --   -0.61426  -0.60446  -0.60244  -0.59867  -0.59198
 Alpha  occ. eigenvalues --   -0.58830  -0.58657  -0.57749  -0.57500  -0.56439
 Alpha  occ. eigenvalues --   -0.55746  -0.55506  -0.54900  -0.54562  -0.54202
 Alpha  occ. eigenvalues --   -0.53801  -0.53746  -0.53130  -0.52780  -0.52423
 Alpha  occ. eigenvalues --   -0.52391  -0.51761  -0.51526  -0.50390  -0.50336
 Alpha  occ. eigenvalues --   -0.50165  -0.49580  -0.49401  -0.48813  -0.48541
 Alpha  occ. eigenvalues --   -0.48019  -0.47881  -0.47412  -0.47094  -0.46571
 Alpha  occ. eigenvalues --   -0.46381  -0.45512  -0.45062  -0.44480  -0.44306
 Alpha  occ. eigenvalues --   -0.42823  -0.41867  -0.41561  -0.41111  -0.40628
 Alpha  occ. eigenvalues --   -0.39731  -0.39351  -0.38768  -0.38558  -0.38133
 Alpha  occ. eigenvalues --   -0.37519  -0.37111  -0.36127  -0.35313  -0.35105
 Alpha  occ. eigenvalues --   -0.34237  -0.33022  -0.32628  -0.32095  -0.31565
 Alpha  occ. eigenvalues --   -0.29984
 Alpha virt. eigenvalues --   -0.13153  -0.12074  -0.10890  -0.10706  -0.10381
 Alpha virt. eigenvalues --   -0.07979  -0.06874  -0.06700  -0.06058  -0.04177
 Alpha virt. eigenvalues --   -0.04033  -0.03609  -0.01820  -0.01759  -0.01610

 Mulliken charges:
               1
     1  N   -0.787778
     2  H    0.419521
     3  H    0.459072
     4  H    0.390982
     5  C   -0.114821
     6  H    0.217907
     7  C    0.630861
     8  C   -0.391099
     9  H    0.209693
    10  H    0.215926
    11  O   -0.515724
    12  C    0.623830
    13  N   -0.745479
    14  H    0.405323
    15  H    0.406777
    16  O   -0.576566
    17  N   -0.574329
    18  H    0.365750
    19  C   -0.082099
    20  H    0.203874
    21  C    0.654440
    22  C   -0.436974
    23  H    0.247385
    24  H    0.155772
    25  O   -0.596732
    26  C    0.203087
    27  C   -0.200519
    28  H    0.141195
    29  C   -0.196825
    30  H    0.128478
    31  C   -0.163939
    32  H    0.158973
    33  C   -0.142310
    34  H    0.154984
    35  C   -0.131070
    36  H    0.161808
    37  N   -0.574914
    38  H    0.348829
    39  C   -0.080576
    40  H    0.215417
    41  C    0.635301
    42  C   -0.395419
    43  H    0.226312
    44  H    0.174485
    45  O   -0.533111
    46  C    0.629485
    47  N   -0.740266
    48  H    0.361952
    49  H    0.361416
    50  O   -0.549954
    51  N   -0.652704
    52  H    0.381062
    53  C    0.008600
    54  H    0.183219
    55  C    0.580007
    56  C   -0.305947
    57  H    0.190823
    58  H    0.124342
    59  O   -0.583208
    60  C   -0.301080
    61  H    0.200742
    62  H    0.156109
    63  C   -0.155901
    64  H    0.172728
    65  H    0.147140
    66  N   -0.610504
    67  H    0.416351
    68  N   -0.779162
    69  H    0.374157
    70  H    0.363828
    71  N   -0.783114
    72  H    0.342691
    73  C    0.753493
    74  O   -0.616957
    75  H    0.414954
 Sum of Mulliken charges =   1.00000

 Dipole moment (field-independent basis, Debye):
    X=            -11.9205    Y=              4.0121    Z=              0.9538  Tot=             12.6137
 Quadrupole moment (field-independent basis, Debye-Ang):
   XX=           -192.8931   YY=           -164.2621   ZZ=           -150.6122
   XY=            -47.6358   XZ=            -35.7644   YZ=            -20.9775

 Normal termination of Gaussian 16 at Fri Jul  8 15:58:59 2022.
