 Gaussian 16, Revision C.01,
 Gaussian 16:  ES64L-G16RevC.01  3-Jul-2019

 ----------------------------------------------------------------------
 # B3LYP/6-31G* empiricaldispersion=gd3 guess=read geom=check nosymm in
 tegral(ultrafinegrid)
 ----------------------------------------------------------------------

 ------------------------------------------------------
 Candidate Structure: Conf:497 Charge calc in gas phase
 ------------------------------------------------------
 Structure from the checkpoint file:  "conf-497.chk"
 Charge =  1 Multiplicity = 1

                          Input orientation:
 ---------------------------------------------------------------------
 Center     Atomic      Atomic             Coordinates (Angstroms)
 Number     Number       Type             X           Y           Z
 ---------------------------------------------------------------------
      1          7           0       -4.314360    4.191174   -0.744602
      2          1           0       -3.510563    3.965206   -2.257056
      3          1           0       -4.982624    3.418383   -0.623659
      4          1           0       -4.693190    5.102460   -0.479570
      5          6           0       -3.037164    3.842262   -0.096994
      6          1           0       -2.258057    4.307966   -0.687149
      7          6           0       -2.907837    2.308077   -0.257740
      8          6           0       -2.724144    4.312278    1.337140
      9          1           0       -3.216110    5.272795    1.537078
     10          1           0       -3.050590    3.593535    2.095947
     11          8           0       -3.906050    1.611726   -0.543813
     12          6           0       -1.194530    4.521772    1.423692
     13          7           0       -0.722540    4.893838    2.624114
     14          1           0        0.277366    5.039084    2.735334
     15          1           0       -1.323174    5.022627    3.431336
     16          8           0       -0.441933    4.351309    0.424762
     17          7           0       -1.660623    1.818581   -0.116626
     18          1           0       -0.851868    2.407171    0.107588
     19          6           0       -1.350837    0.420890   -0.421855
     20          1           0       -1.987350   -0.256614    0.155056
     21          6           0        0.129119    0.239561   -0.059666
     22          6           0       -1.597447    0.159524   -1.955675
     23          1           0       -2.659218    0.369847   -2.112993
     24          1           0       -1.004102    0.890807   -2.510405
     25          8           0        0.840768    1.246499    0.225757
     26          6           0       -1.247312   -1.248572   -2.375808
     27          6           0       -0.041316   -1.512584   -3.036432
     28          1           0        0.613375   -0.694436   -3.311958
     29          6           0       -2.052140   -2.326630   -1.972966
     30          1           0       -2.989494   -2.133062   -1.460840
     31          6           0        0.372442   -2.824020   -3.275102
     32          1           0        1.341334   -2.995764   -3.723818
     33          6           0       -1.649085   -3.640596   -2.224611
     34          1           0       -2.276489   -4.466480   -1.911178
     35          6           0       -0.432893   -3.891628   -2.870044
     36          1           0       -0.113790   -4.911530   -3.047334
     37          7           0        0.615212   -1.009130   -0.136295
     38          1           0        0.012608   -1.763745   -0.458897
     39          6           0        2.073151   -1.307411   -0.056930
     40          1           0        2.481350   -0.785276    0.811629
     41          6           0        2.725255   -0.775968   -1.359952
     42          6           0        2.256050   -2.825691    0.062821
     43          1           0        1.959055   -3.281439   -0.886466
     44          1           0        1.633162   -3.196464    0.878535
     45          8           0        2.954124   -1.505354   -2.351888
     46          6           0        3.709475   -3.195515    0.426322
     47          7           0        4.583052   -3.032920   -0.606665
     48          1           0        5.561971   -3.241628   -0.444937
     49          1           0        4.273550   -2.685737   -1.512009
     50          8           0        4.023003   -3.579214    1.561390
     51          7           0        2.967537    0.555040   -1.348254
     52          1           0        2.608094    1.105318   -0.564329
     53          6           0        3.512846    1.224325   -2.533536
     54          1           0        3.306277    0.556124   -3.378540
     55          6           0        5.030147    1.352474   -2.414483
     56          6           0        2.890342    2.616279   -2.736029
     57          1           0        3.235445    3.274033   -1.929032
     58          1           0        3.280037    3.032549   -3.670459
     59          8           0        5.672467    2.369123   -2.642600
     60          6           0        1.352998    2.556095   -2.734011
     61          1           0        1.002877    1.875500   -3.522886
     62          1           0        1.016506    2.152290   -1.778400
     63          6           0        0.710607    3.951422   -2.883603
     64          1           0        1.157403    4.630485   -2.152617
     65          1           0        0.855890    4.380918   -3.880072
     66          7           0       -0.740163    3.914010   -2.558027
     67          1           0       -0.926536    4.058094   -1.565657
     68          7           0       -1.333820    3.080549   -4.637933
     69          1           0       -2.017250    2.963741   -5.375807
     70          1           0       -0.370380    2.867655   -4.856168
     71          7           0       -3.011096    3.572845   -3.120661
     72          1           0       -3.641129    3.085037   -3.752377
     73          6           0       -1.702793    3.530251   -3.411222
     74          8           0        5.579195    0.155404   -2.030819
     75          1           0        6.569196    0.255016   -1.961527
 ---------------------------------------------------------------------

 SCF Done:  E(RB3LYP) =  -1917.47765561     A.U. after   13 cycles

 Alpha  occ. eigenvalues --  -19.27916 -19.25264 -19.23569 -19.22862 -19.22787
 Alpha  occ. eigenvalues --  -19.21371 -19.16654 -14.51074 -14.50264 -14.49101
 Alpha  occ. eigenvalues --  -14.48922 -14.47607 -14.46664 -14.45778 -14.45349
 Alpha  occ. eigenvalues --  -14.40847 -10.47048 -10.42979 -10.40890 -10.40507
 Alpha  occ. eigenvalues --  -10.40119 -10.38636 -10.35293 -10.35180 -10.34961
 Alpha  occ. eigenvalues --  -10.34764 -10.33796 -10.33615 -10.33050 -10.30109
 Alpha  occ. eigenvalues --  -10.29563 -10.29542 -10.28795 -10.27783 -10.27654
 Alpha  occ. eigenvalues --  -10.27531 -10.27334 -10.27200 -10.27195  -1.17586
 Alpha  occ. eigenvalues --   -1.15784  -1.14748  -1.14603  -1.13654  -1.12297
 Alpha  occ. eigenvalues --   -1.09411  -1.07581  -1.04385  -1.03733  -1.03528
 Alpha  occ. eigenvalues --   -1.03051  -1.02773  -1.02199  -1.01056  -0.95641
 Alpha  occ. eigenvalues --   -0.94579  -0.91229  -0.90086  -0.88656  -0.87062
 Alpha  occ. eigenvalues --   -0.85413  -0.83220  -0.83016  -0.80422  -0.78809
 Alpha  occ. eigenvalues --   -0.76831  -0.76550  -0.74810  -0.73080  -0.72260
 Alpha  occ. eigenvalues --   -0.71856  -0.70827  -0.69646  -0.68880  -0.68703
 Alpha  occ. eigenvalues --   -0.68020  -0.67797  -0.66997  -0.66757  -0.66125
 Alpha  occ. eigenvalues --   -0.64449  -0.64204  -0.63124  -0.62399  -0.61623
 Alpha  occ. eigenvalues --   -0.60850  -0.60482  -0.59949  -0.59376  -0.59259
 Alpha  occ. eigenvalues --   -0.58887  -0.58742  -0.58090  -0.57282  -0.56725
 Alpha  occ. eigenvalues --   -0.56619  -0.55965  -0.55685  -0.55006  -0.54662
 Alpha  occ. eigenvalues --   -0.54359  -0.54039  -0.53708  -0.52845  -0.52119
 Alpha  occ. eigenvalues --   -0.51919  -0.51329  -0.51045  -0.50654  -0.50533
 Alpha  occ. eigenvalues --   -0.50303  -0.49522  -0.49415  -0.49187  -0.48433
 Alpha  occ. eigenvalues --   -0.47999  -0.47813  -0.47694  -0.47432  -0.46501
 Alpha  occ. eigenvalues --   -0.46397  -0.45805  -0.45281  -0.45061  -0.44364
 Alpha  occ. eigenvalues --   -0.44096  -0.42831  -0.42585  -0.42504  -0.41290
 Alpha  occ. eigenvalues --   -0.40290  -0.40028  -0.40007  -0.39199  -0.38554
 Alpha  occ. eigenvalues --   -0.37872  -0.37556  -0.37388  -0.36589  -0.36294
 Alpha  occ. eigenvalues --   -0.34887  -0.34284  -0.33211  -0.32917  -0.31861
 Alpha  occ. eigenvalues --   -0.30335
 Alpha virt. eigenvalues --   -0.11421  -0.10941  -0.10832  -0.09561  -0.09127
 Alpha virt. eigenvalues --   -0.08998  -0.08730  -0.07435  -0.07119  -0.04677
 Alpha virt. eigenvalues --   -0.03776  -0.03653  -0.02964  -0.01731  -0.01221

 Mulliken charges:
               1
     1  N   -0.791785
     2  H    0.447148
     3  H    0.363957
     4  H    0.334345
     5  C   -0.066178
     6  H    0.141578
     7  C    0.622827
     8  C   -0.388219
     9  H    0.194562
    10  H    0.206793
    11  O   -0.544271
    12  C    0.632715
    13  N   -0.734696
    14  H    0.373921
    15  H    0.368891
    16  O   -0.551973
    17  N   -0.659858
    18  H    0.411619
    19  C   -0.039282
    20  H    0.197605
    21  C    0.633537
    22  C   -0.377269
    23  H    0.197826
    24  H    0.144049
    25  O   -0.576121
    26  C    0.119127
    27  C   -0.191710
    28  H    0.131265
    29  C   -0.202849
    30  H    0.148343
    31  C   -0.120351
    32  H    0.168741
    33  C   -0.128036
    34  H    0.156305
    35  C   -0.139901
    36  H    0.156870
    37  N   -0.602929
    38  H    0.373601
    39  C   -0.048640
    40  H    0.200569
    41  C    0.654769
    42  C   -0.397662
    43  H    0.189239
    44  H    0.184106
    45  O   -0.565614
    46  C    0.568301
    47  N   -0.755896
    48  H    0.341654
    49  H    0.382519
    50  O   -0.502079
    51  N   -0.608997
    52  H    0.379834
    53  C   -0.053974
    54  H    0.207911
    55  C    0.614762
    56  C   -0.291148
    57  H    0.170298
    58  H    0.176420
    59  O   -0.452393
    60  C   -0.313197
    61  H    0.134522
    62  H    0.194805
    63  C   -0.182042
    64  H    0.202279
    65  H    0.177021
    66  N   -0.654983
    67  H    0.432375
    68  N   -0.775428
    69  H    0.375063
    70  H    0.380655
    71  N   -0.817649
    72  H    0.358547
    73  C    0.830691
    74  O   -0.571315
    75  H    0.424482
 Sum of Mulliken charges =   1.00000

 Dipole moment (field-independent basis, Debye):
    X=             -7.3697    Y=             16.1086    Z=             -8.4488  Tot=             19.6260
 Quadrupole moment (field-independent basis, Debye-Ang):
   XX=           -188.1348   YY=           -150.9534   ZZ=           -164.4167
   XY=            -32.2604   XZ=             -2.7115   YZ=              6.0948

 Normal termination of Gaussian 16 at Fri Jul  8 15:59:23 2022.
