 Gaussian 16, Revision C.01,
 Gaussian 16:  ES64L-G16RevC.01  3-Jul-2019

 ----------------------------------------------------------------------
 # B3LYP/6-31G* empiricaldispersion=gd3 guess=read geom=check nosymm in
 tegral(ultrafinegrid)
 ----------------------------------------------------------------------

 ------------------------------------------------------
 Candidate Structure: Conf:746 Charge calc in gas phase
 ------------------------------------------------------
 Structure from the checkpoint file:  "conf-746.chk"
 Charge =  1 Multiplicity = 1

                          Input orientation:
 ---------------------------------------------------------------------
 Center     Atomic      Atomic             Coordinates (Angstroms)
 Number     Number       Type             X           Y           Z
 ---------------------------------------------------------------------
      1          7           0       -7.584388   -5.394371   -2.407929
      2          1           0       -7.770289   -5.733790   -1.460496
      3          1           0       -8.088234   -5.978562   -3.094643
      4          1           0       -7.841839   -4.378289   -2.453710
      5          6           0       -6.119986   -5.408019   -2.763127
      6          1           0       -5.624752   -6.182755   -2.173681
      7          6           0       -5.641387   -3.973217   -2.437855
      8          6           0       -6.008327   -5.729100   -4.272928
      9          1           0       -6.337476   -4.840228   -4.834036
     10          8           0       -6.505607   -3.090418   -2.360414
     11          6           0       -4.594327   -6.122546   -4.686441
     12          1           0       -3.878846   -5.307050   -4.542710
     13          1           0       -4.261743   -6.999941   -4.121901
     14          1           0       -4.584427   -6.380123   -5.750701
     15          8           0       -6.944267   -6.797787   -4.457268
     16          1           0       -6.997565   -7.024419   -5.399488
     17          7           0       -4.330388   -3.813174   -2.314656
     18          1           0       -3.684576   -4.586844   -2.457823
     19          6           0       -3.649206   -2.521464   -2.217155
     20          1           0       -4.321799   -1.760060   -2.619144
     21          6           0       -2.391749   -2.686546   -3.090077
     22          6           0       -3.298868   -2.195380   -0.727717
     23          1           0       -4.267572   -2.233576   -0.208125
     24          8           0       -1.925865   -3.814415   -3.281139
     25          6           0       -2.724558   -0.779129   -0.523842
     26          1           0       -1.746628   -0.691096   -1.006750
     27          1           0       -2.518089   -0.670612    0.546547
     28          6           0       -2.373015   -3.261555   -0.123872
     29          1           0       -1.438972   -3.332041   -0.689976
     30          1           0       -2.839832   -4.253601   -0.124027
     31          1           0       -2.109517   -2.996420    0.902289
     32          6           0       -3.637458    0.362286   -0.986142
     33          1           0       -3.209633    1.331580   -0.711760
     34          1           0       -4.629587    0.291420   -0.524462
     35          1           0       -3.789646    0.383242   -2.074288
     36          7           0       -1.845574   -1.551644   -3.581528
     37          1           0       -2.237680   -0.666515   -3.278149
     38          6           0       -0.426696   -1.478969   -3.981871
     39          1           0       -0.113690   -2.503055   -4.194182
     40          6           0        0.262406   -0.910671   -2.727658
     41          6           0       -0.235607   -0.576106   -5.193784
     42          1           0        0.819528   -0.559248   -5.484472
     43          1           0       -0.532232    0.448219   -4.950072
     44          1           0       -0.829087   -0.938118   -6.038059
     45          8           0        0.115736    0.277298   -2.439413
     46          7           0        0.825611   -1.811337   -1.886156
     47          1           0        1.089149   -2.725970   -2.226310
     48          6           0        1.303077   -1.365858   -0.587901
     49          1           0        0.520956   -0.705187   -0.202481
     50          6           0        2.600287   -0.545724   -0.744097
     51          6           0        1.466773   -2.542517    0.390623
     52          1           0        2.313454   -3.168608    0.083956
     53          1           0        0.556930   -3.147450    0.340350
     54          8           0        3.430761   -0.770270   -1.613106
     55          6           0        1.659523   -2.083087    1.849940
     56          1           0        1.646206   -2.965778    2.499052
     57          1           0        2.624336   -1.586719    1.986310
     58          6           0        0.504131   -1.172823    2.279012
     59          7           0        0.863329    0.030606    2.793405
     60          1           0        1.833543    0.321150    2.916957
     61          1           0        0.128335    0.682904    3.035878
     62          8           0       -0.670238   -1.501914    2.107455
     63          7           0        2.703296    0.410460    0.212530
     64          1           0        1.907454    0.559252    0.819286
     65          6           0        3.727808    1.416713    0.292605
     66          1           0        4.521541    1.144568   -0.409447
     67          6           0        4.264804    1.478848    1.730356
     68          6           0        3.129173    2.813431   -0.098806
     69          1           0        2.931864    2.783824   -1.175114
     70          1           0        3.877835    3.594508    0.079963
     71          8           0        3.642022    1.009229    2.686263
     72          6           0        1.852144    3.097679    0.661825
     73          6           0        0.610202    2.690764    0.144545
     74          1           0        0.559548    2.231743   -0.839999
     75          6           0        1.882103    3.641305    1.951774
     76          1           0        2.826820    3.945115    2.391213
     77          6           0       -0.558299    2.820804    0.890046
     78          1           0       -1.516453    2.499429    0.494602
     79          6           0        0.718246    3.783976    2.706981
     80          1           0        0.767839    4.204873    3.709774
     81          8           0       -1.686386    3.456295    2.866778
     82          1           0       -1.526948    3.877935    3.725743
     83          6           0       -0.509116    3.368829    2.177184
     84          7           0        5.429833    2.159111    1.872635
     85          1           0        5.814691    2.627034    1.058795
     86          6           0        5.832776    2.763786    3.143235
     87          1           0        5.189536    2.330617    3.912189
     88          6           0        5.591521    4.275140    2.988045
     89          6           0        7.307333    2.492235    3.451901
     90          1           0        7.586523    2.941336    4.411042
     91          1           0        7.488378    1.414847    3.501417
     92          1           0        7.941624    2.926806    2.672692
     93          8           0        6.032198    4.866567    1.997927
     94          7           0        4.861896    4.870836    3.955292
     95          1           0        4.593390    4.371858    4.798749
     96          6           0        4.697515    6.315766    4.034174
     97          1           0        5.587796    6.772976    3.602473
     98          6           0        4.595058    6.692659    5.523748
     99          6           0        3.433418    6.816256    3.292640
    100          1           0        3.176720    7.810264    3.674658
    101          1           0        2.602332    6.159905    3.576134
    102          8           0        4.838262    7.958081    5.828886
    103          6           0        3.546407    6.864863    1.760069
    104          1           0        2.561056    7.130219    1.352889
    105          1           0        3.794113    5.873630    1.369203
    106          6           0        4.597990    7.851454    1.220718
    107          1           0        4.592828    7.832413    0.126573
    108          1           0        5.598555    7.529988    1.518751
    109          7           0        4.383491    9.240680    1.634875
    110          1           0        3.636955    9.733262    1.160983
    111          7           0        5.690149    9.297158    3.631635
    112          1           0        5.210690    8.494777    5.047309
    113          1           0        6.372806    8.778358    3.081520
    114          7           0        3.842375   10.658255    3.393019
    115          1           0        4.090155   10.993442    4.315368
    116          1           0        2.848720   10.556917    3.231315
    117          6           0        4.686894    9.688966    2.898952
    118          8           0        4.252522    5.865398    6.348006
 ---------------------------------------------------------------------

 SCF Done:  E(RB3LYP) =  -2837.81367113     A.U. after    1 cycles

 Alpha  occ. eigenvalues --  -19.30338 -19.26211 -19.23987 -19.22129 -19.21254
 Alpha  occ. eigenvalues --  -19.19476 -19.19218 -19.17957 -19.17274 -19.17025
 Alpha  occ. eigenvalues --  -19.16871 -14.59519 -14.49286 -14.46008 -14.43980
 Alpha  occ. eigenvalues --  -14.42846 -14.42412 -14.41822 -14.41452 -14.41215
 Alpha  occ. eigenvalues --  -14.40615 -14.35497 -10.43353 -10.40557 -10.39873
 Alpha  occ. eigenvalues --  -10.39068 -10.36415 -10.35896 -10.35771 -10.35531
 Alpha  occ. eigenvalues --  -10.35002 -10.34548 -10.34297 -10.33785 -10.31808
 Alpha  occ. eigenvalues --  -10.31174 -10.30745 -10.30046 -10.29706 -10.29674
 Alpha  occ. eigenvalues --  -10.29070 -10.28202 -10.28186 -10.26249 -10.25963
 Alpha  occ. eigenvalues --  -10.25494 -10.25386 -10.25290 -10.25280 -10.25219
 Alpha  occ. eigenvalues --  -10.25185 -10.25109 -10.25072 -10.24786 -10.24592
 Alpha  occ. eigenvalues --  -10.24580 -10.24333 -10.23967  -1.19202  -1.17489
 Alpha  occ. eigenvalues --   -1.14076  -1.13177  -1.12903  -1.12001  -1.11523
 Alpha  occ. eigenvalues --   -1.10975  -1.09694  -1.08891  -1.08463  -1.05984
 Alpha  occ. eigenvalues --   -1.05021  -1.04520  -1.02310  -1.00082  -0.99408
 Alpha  occ. eigenvalues --   -0.99037  -0.98704  -0.95467  -0.95421  -0.93560
 Alpha  occ. eigenvalues --   -0.91447  -0.90831  -0.89952  -0.87211  -0.86029
 Alpha  occ. eigenvalues --   -0.85466  -0.85199  -0.84748  -0.82949  -0.82179
 Alpha  occ. eigenvalues --   -0.80872  -0.79846  -0.79425  -0.79340  -0.77801
 Alpha  occ. eigenvalues --   -0.77140  -0.74135  -0.74042  -0.73355  -0.72781
 Alpha  occ. eigenvalues --   -0.72416  -0.71655  -0.71110  -0.70255  -0.69436
 Alpha  occ. eigenvalues --   -0.68719  -0.68315  -0.67162  -0.66924  -0.66452
 Alpha  occ. eigenvalues --   -0.66168  -0.65683  -0.65401  -0.64999  -0.64807
 Alpha  occ. eigenvalues --   -0.64097  -0.63862  -0.63780  -0.63300  -0.62829
 Alpha  occ. eigenvalues --   -0.62056  -0.61816  -0.60532  -0.60386  -0.59405
 Alpha  occ. eigenvalues --   -0.58952  -0.58686  -0.58035  -0.57866  -0.57062
 Alpha  occ. eigenvalues --   -0.56648  -0.56385  -0.56144  -0.55608  -0.55316
 Alpha  occ. eigenvalues --   -0.54985  -0.54648  -0.54329  -0.53785  -0.53634
 Alpha  occ. eigenvalues --   -0.53545  -0.53050  -0.52917  -0.52724  -0.52084
 Alpha  occ. eigenvalues --   -0.51999  -0.51651  -0.51094  -0.51008  -0.50766
 Alpha  occ. eigenvalues --   -0.50415  -0.50266  -0.50124  -0.49992  -0.49614
 Alpha  occ. eigenvalues --   -0.49380  -0.49113  -0.49021  -0.48873  -0.48348
 Alpha  occ. eigenvalues --   -0.48252  -0.48119  -0.48038  -0.47910  -0.47659
 Alpha  occ. eigenvalues --   -0.47462  -0.46908  -0.46818  -0.46434  -0.46120
 Alpha  occ. eigenvalues --   -0.45987  -0.45672  -0.45481  -0.44874  -0.44632
 Alpha  occ. eigenvalues --   -0.44518  -0.44381  -0.44177  -0.43934  -0.43846
 Alpha  occ. eigenvalues --   -0.43602  -0.43201  -0.43062  -0.42864  -0.42704
 Alpha  occ. eigenvalues --   -0.42438  -0.42300  -0.41783  -0.41747  -0.41488
 Alpha  occ. eigenvalues --   -0.41359  -0.41026  -0.40703  -0.40581  -0.40224
 Alpha  occ. eigenvalues --   -0.40039  -0.39900  -0.39614  -0.39454  -0.38848
 Alpha  occ. eigenvalues --   -0.37986  -0.36471  -0.35695  -0.34501  -0.34157
 Alpha  occ. eigenvalues --   -0.34113  -0.33746  -0.33343  -0.32589  -0.32333
 Alpha  occ. eigenvalues --   -0.32294  -0.32085  -0.31635  -0.31067  -0.30794
 Alpha  occ. eigenvalues --   -0.30727  -0.30675  -0.30436  -0.29283  -0.27950
 Alpha virt. eigenvalues --   -0.12215  -0.10027  -0.08908  -0.06721  -0.06074
 Alpha virt. eigenvalues --   -0.05808  -0.05192  -0.05001  -0.04420  -0.03808
 Alpha virt. eigenvalues --   -0.03304  -0.03011  -0.02828  -0.02442  -0.02196

 Mulliken charges:
               1
     1  N   -0.746809
     2  H    0.417231
     3  H    0.429552
     4  H    0.424710
     5  C   -0.125998
     6  H    0.215285
     7  C    0.643566
     8  C    0.126865
     9  H    0.170816
    10  O   -0.536024
    11  C   -0.491762
    12  H    0.198472
    13  H    0.181449
    14  H    0.182552
    15  O   -0.647328
    16  H    0.433549
    17  N   -0.590730
    18  H    0.372546
    19  C   -0.094068
    20  H    0.190962
    21  C    0.636335
    22  C   -0.073721
    23  H    0.143595
    24  O   -0.551809
    25  C   -0.307671
    26  H    0.162293
    27  H    0.195330
    28  C   -0.489827
    29  H    0.159376
    30  H    0.117486
    31  H    0.216173
    32  C   -0.473353
    33  H    0.178620
    34  H    0.157461
    35  H    0.124394
    36  N   -0.596328
    37  H    0.358634
    38  C   -0.067029
    39  H    0.181457
    40  C    0.646588
    41  C   -0.453820
    42  H    0.177436
    43  H    0.177661
    44  H    0.160859
    45  O   -0.539932
    46  N   -0.602143
    47  H    0.344537
    48  C   -0.069532
    49  H    0.192203
    50  C    0.632999
    51  C   -0.301381
    52  H    0.160228
    53  H    0.176668
    54  O   -0.530599
    55  C   -0.368076
    56  H    0.179442
    57  H    0.177662
    58  C    0.573249
    59  N   -0.784649
    60  H    0.407307
    61  H    0.346992
    62  O   -0.527764
    63  N   -0.607188
    64  H    0.366306
    65  C   -0.083217
    66  H    0.194225
    67  C    0.644786
    68  C   -0.372834
    69  H    0.178149
    70  H    0.165591
    71  O   -0.547615
    72  C    0.124805
    73  C   -0.222413
    74  H    0.179851
    75  C   -0.176173
    76  H    0.147269
    77  C   -0.167572
    78  H    0.151071
    79  C   -0.217346
    80  H    0.134071
    81  O   -0.643175
    82  H    0.413054
    83  C    0.337937
    84  N   -0.580478
    85  H    0.348490
    86  C   -0.069989
    87  H    0.182917
    88  C    0.619939
    89  C   -0.449652
    90  H    0.166725
    91  H    0.172690
    92  H    0.172019
    93  O   -0.552789
    94  N   -0.606488
    95  H    0.357663
    96  C   -0.059461
    97  H    0.167656
    98  C    0.594758
    99  C   -0.279577
   100  H    0.146963
   101  H    0.155959
   102  O   -0.602745
   103  C   -0.263664
   104  H    0.133981
   105  H    0.170409
   106  C   -0.168770
   107  H    0.163289
   108  H    0.184049
   109  N   -0.577343
   110  H    0.325920
   111  N   -0.735674
   112  H    0.463838
   113  H    0.302982
   114  N   -0.738064
   115  H    0.357761
   116  H    0.329926
   117  C    0.646014
   118  O   -0.481020
 Sum of Mulliken charges =   1.00000

 Dipole moment (field-independent basis, Debye):
    X=            -22.2297    Y=            -13.5373    Z=            -12.5996  Tot=             28.9166
 Quadrupole moment (field-independent basis, Debye-Ang):
   XX=           -159.9417   YY=           -149.3115   ZZ=           -308.1574
   XY=            149.1123   XZ=             71.9922   YZ=             68.1628

 Normal termination of Gaussian 16 at Mon Jun 27 02:45:31 2022.
