 Gaussian 16, Revision C.01,
 Gaussian 16:  ES64L-G16RevC.01  3-Jul-2019

 ----------------------------------------------------------------------
 # B3LYP/6-31G* empiricaldispersion=gd3 guess=read geom=check nosymm in
 tegral(ultrafinegrid)
 ----------------------------------------------------------------------

 ------------------------------------------------------
 Candidate Structure: Conf:961 Charge calc in gas phase
 ------------------------------------------------------
 Structure from the checkpoint file:  "conf-961.chk"
 Charge =  1 Multiplicity = 1

                          Input orientation:
 ---------------------------------------------------------------------
 Center     Atomic      Atomic             Coordinates (Angstroms)
 Number     Number       Type             X           Y           Z
 ---------------------------------------------------------------------
      1          7           0       -1.478772   -5.057555   -6.294061
      2          1           0       -1.325547   -5.959340   -6.747060
      3          1           0       -0.799051   -4.325617   -6.634709
      4          1           0       -2.457886   -4.718765   -6.440195
      5          6           0       -1.285093   -5.051745   -4.810047
      6          1           0       -1.065053   -6.064270   -4.465392
      7          6           0       -2.624274   -4.550472   -4.238511
      8          6           0       -0.077762   -4.062386   -4.487237
      9          1           0       -0.404024   -3.388409   -3.688315
     10          8           0       -3.492214   -4.138789   -5.010533
     11          6           0        1.167989   -4.831212   -4.070982
     12          1           0        0.976582   -5.444332   -3.182511
     13          1           0        1.511269   -5.484828   -4.880977
     14          1           0        1.969680   -4.126307   -3.837490
     15          8           0        0.199351   -3.311744   -5.659439
     16          1           0       -0.177922   -2.391032   -5.541030
     17          7           0       -2.738208   -4.584782   -2.899787
     18          1           0       -1.901466   -4.792606   -2.368641
     19          6           0       -3.719990   -3.748494   -2.211173
     20          1           0       -4.711710   -4.034058   -2.572052
     21          6           0       -3.449126   -2.277837   -2.594101
     22          6           0       -3.616065   -4.004688   -0.675780
     23          1           0       -3.785732   -5.085410   -0.563655
     24          8           0       -2.340144   -1.942541   -3.046982
     25          6           0       -4.714800   -3.294715    0.139166
     26          1           0       -4.554277   -2.211048    0.106492
     27          1           0       -4.555900   -3.562662    1.187103
     28          6           0       -2.215375   -3.667730   -0.124708
     29          1           0       -1.866381   -2.680983   -0.442836
     30          1           0       -1.453601   -4.397806   -0.430872
     31          1           0       -2.239817   -3.668170    0.967924
     32          6           0       -6.154013   -3.649027   -0.254562
     33          1           0       -6.865454   -3.193996    0.441737
     34          1           0       -6.312542   -4.733707   -0.229224
     35          1           0       -6.436016   -3.313859   -1.263010
     36          7           0       -4.433221   -1.396500   -2.372377
     37          1           0       -5.299924   -1.724885   -1.966066
     38          6           0       -4.265855    0.061423   -2.487735
     39          1           0       -3.538588    0.222446   -3.289177
     40          6           0       -3.675680    0.643183   -1.169700
     41          6           0       -5.597015    0.716913   -2.831327
     42          1           0       -5.462787    1.795973   -2.929714
     43          1           0       -6.325516    0.559174   -2.029625
     44          1           0       -5.990613    0.314906   -3.769536
     45          8           0       -4.284159    1.479899   -0.512594
     46          7           0       -2.469843    0.130383   -0.819002
     47          1           0       -1.963285   -0.471647   -1.462376
     48          6           0       -1.693449    0.617587    0.320791
     49          1           0       -1.969286    1.663524    0.491168
     50          6           0       -0.222253    0.469639   -0.094991
     51          6           0       -1.919011   -0.211313    1.600093
     52          1           0       -1.226766    0.150484    2.371963
     53          1           0       -1.646668   -1.248230    1.391143
     54          8           0        0.156125   -0.571182   -0.634427
     55          6           0       -3.354077   -0.165751    2.135338
     56          1           0       -3.585048    0.821176    2.551312
     57          1           0       -4.063579   -0.322479    1.316243
     58          6           0       -3.592592   -1.287920    3.142787
     59          7           0       -4.244987   -0.937468    4.283107
     60          1           0       -4.487683    0.017047    4.500595
     61          1           0       -4.415011   -1.650635    4.979222
     62          8           0       -3.244602   -2.446010    2.921102
     63          7           0        0.574210    1.527577    0.167291
     64          1           0        0.245485    2.320600    0.709896
     65          6           0        1.989969    1.563994   -0.144825
     66          1           0        2.370280    0.538142   -0.131907
     67          6           0        2.664987    2.430198    0.932936
     68          6           0        2.257571    2.190330   -1.551226
     69          1           0        3.337370    2.161602   -1.737849
     70          1           0        1.961254    3.245070   -1.511020
     71          8           0        2.007327    3.250789    1.577410
     72          6           0        1.496669    1.459775   -2.627680
     73          6           0        2.021503    0.304873   -3.218396
     74          1           0        3.039876    0.001032   -2.988542
     75          6           0        0.189947    1.841771   -2.955448
     76          1           0       -0.226590    2.749114   -2.527007
     77          6           0        1.245449   -0.493071   -4.055962
     78          1           0        1.647467   -1.402025   -4.492962
     79          6           0       -0.598067    1.055052   -3.792610
     80          1           0       -1.610675    1.351998   -4.049524
     81          8           0       -0.887922   -0.968782   -5.076803
     82          1           0       -1.646870   -1.218487   -4.499957
     83          6           0       -0.076046   -0.130522   -4.306193
     84          7           0        3.990526    2.252565    1.058891
     85          1           0        4.515039    1.606280    0.473192
     86          6           0        4.832352    3.064690    1.922519
     87          1           0        4.566971    4.120001    1.779873
     88          6           0        6.279190    2.825479    1.439843
     89          6           0        4.650844    2.700207    3.405137
     90          1           0        5.271362    3.335779    4.044577
     91          1           0        3.602968    2.839605    3.682755
     92          1           0        4.933165    1.656347    3.576361
     93          8           0        6.527142    1.956796    0.594963
     94          7           0        7.211111    3.596578    2.018746
     95          1           0        6.977081    4.337058    2.674117
     96          6           0        8.644097    3.484962    1.763137
     97          1           0        8.919366    2.429465    1.700373
     98          6           0        9.361398    4.173260    2.946997
     99          6           0        8.981021    4.208499    0.436868
    100          1           0        8.721195    5.266330    0.575471
    101          1           0        8.301171    3.809412   -0.324146
    102          8           0       10.488053    3.671835    3.274207
    103          6           0       10.411731    4.077914   -0.116517
    104          1           0       10.419641    4.537275   -1.115881
    105          1           0       10.654828    3.019244   -0.271017
    106          6           0       11.562165    4.678577    0.711390
    107          1           0       12.479322    4.692502    0.109485
    108          1           0       11.731071    4.072521    1.596617
    109          7           0       11.265177    6.056391    1.139430
    110          1           0       10.823750    6.646000    0.446505
    111          7           0       11.830491    5.873169    3.397110
    112          1           0       11.966854    6.386341    4.258755
    113          1           0       11.371340    4.894053    3.505208
    114          7           0       11.305365    7.949996    2.479918
    115          1           0       10.928156    8.288555    3.355049
    116          1           0       11.039774    8.495079    1.671382
    117          6           0       11.445540    6.597563    2.353023
    118          8           0        8.828262    5.206060    3.400171
 ---------------------------------------------------------------------

 SCF Done:  E(RB3LYP) =  -2837.82544496     A.U. after    2 cycles

 Alpha  occ. eigenvalues --  -19.26724 -19.25952 -19.25787 -19.23661 -19.19095
 Alpha  occ. eigenvalues --  -19.18174 -19.17597 -19.17409 -19.16158 -19.12852
 Alpha  occ. eigenvalues --  -19.12204 -14.56879 -14.48721 -14.47500 -14.45007
 Alpha  occ. eigenvalues --  -14.44820 -14.42987 -14.42665 -14.42288 -14.41222
 Alpha  occ. eigenvalues --  -14.40847 -14.39657 -10.42537 -10.40298 -10.40067
 Alpha  occ. eigenvalues --  -10.38593 -10.37047 -10.36312 -10.35458 -10.35414
 Alpha  occ. eigenvalues --  -10.34539 -10.34421 -10.33152 -10.32633 -10.31811
 Alpha  occ. eigenvalues --  -10.30312 -10.30245 -10.29921 -10.29331 -10.28781
 Alpha  occ. eigenvalues --  -10.28433 -10.27999 -10.26272 -10.26158 -10.26152
 Alpha  occ. eigenvalues --  -10.26094 -10.26041 -10.26006 -10.25928 -10.25837
 Alpha  occ. eigenvalues --  -10.25822 -10.25805 -10.25593 -10.25493 -10.25417
 Alpha  occ. eigenvalues --  -10.24524 -10.23213 -10.22723  -1.18360  -1.15334
 Alpha  occ. eigenvalues --   -1.15170  -1.12807  -1.11121  -1.10667  -1.10207
 Alpha  occ. eigenvalues --   -1.09329  -1.09228  -1.08714  -1.07826  -1.05918
 Alpha  occ. eigenvalues --   -1.05654  -1.03689  -0.99462  -0.99203  -0.98575
 Alpha  occ. eigenvalues --   -0.97943  -0.97643  -0.96759  -0.95933  -0.95634
 Alpha  occ. eigenvalues --   -0.92354  -0.91908  -0.89604  -0.87255  -0.85934
 Alpha  occ. eigenvalues --   -0.85289  -0.84637  -0.84273  -0.82415  -0.81974
 Alpha  occ. eigenvalues --   -0.81774  -0.80530  -0.79796  -0.78727  -0.77882
 Alpha  occ. eigenvalues --   -0.74124  -0.73356  -0.72929  -0.72843  -0.72303
 Alpha  occ. eigenvalues --   -0.72016  -0.71725  -0.70639  -0.70485  -0.70047
 Alpha  occ. eigenvalues --   -0.69862  -0.68983  -0.68692  -0.66672  -0.66515
 Alpha  occ. eigenvalues --   -0.66304  -0.65682  -0.65200  -0.64988  -0.64691
 Alpha  occ. eigenvalues --   -0.64568  -0.63564  -0.63394  -0.62206  -0.62135
 Alpha  occ. eigenvalues --   -0.61736  -0.61427  -0.61377  -0.60137  -0.59970
 Alpha  occ. eigenvalues --   -0.59490  -0.58660  -0.57627  -0.57367  -0.56897
 Alpha  occ. eigenvalues --   -0.56423  -0.56042  -0.55823  -0.55564  -0.55495
 Alpha  occ. eigenvalues --   -0.55030  -0.54260  -0.54001  -0.53657  -0.53443
 Alpha  occ. eigenvalues --   -0.53130  -0.52642  -0.52345  -0.52089  -0.52008
 Alpha  occ. eigenvalues --   -0.51683  -0.51529  -0.51297  -0.51130  -0.51027
 Alpha  occ. eigenvalues --   -0.50889  -0.50547  -0.50412  -0.49565  -0.49482
 Alpha  occ. eigenvalues --   -0.49397  -0.49021  -0.48877  -0.48691  -0.48453
 Alpha  occ. eigenvalues --   -0.48071  -0.48015  -0.47743  -0.47459  -0.47227
 Alpha  occ. eigenvalues --   -0.47113  -0.46859  -0.46766  -0.46557  -0.46059
 Alpha  occ. eigenvalues --   -0.45977  -0.45492  -0.45459  -0.45126  -0.44924
 Alpha  occ. eigenvalues --   -0.44603  -0.44550  -0.44318  -0.44136  -0.43787
 Alpha  occ. eigenvalues --   -0.42848  -0.42659  -0.42485  -0.42443  -0.42044
 Alpha  occ. eigenvalues --   -0.41923  -0.41757  -0.41553  -0.41424  -0.41273
 Alpha  occ. eigenvalues --   -0.41215  -0.41147  -0.40841  -0.40592  -0.40452
 Alpha  occ. eigenvalues --   -0.39687  -0.39549  -0.39128  -0.38981  -0.38763
 Alpha  occ. eigenvalues --   -0.38122  -0.37441  -0.36881  -0.35401  -0.33534
 Alpha  occ. eigenvalues --   -0.33134  -0.33081  -0.32911  -0.32678  -0.32220
 Alpha  occ. eigenvalues --   -0.31626  -0.31495  -0.31090  -0.30976  -0.30286
 Alpha  occ. eigenvalues --   -0.29899  -0.29513  -0.28251  -0.27026  -0.26335
 Alpha virt. eigenvalues --   -0.11758  -0.09779  -0.08404  -0.07474  -0.06730
 Alpha virt. eigenvalues --   -0.06028  -0.05221  -0.05028  -0.04202  -0.03337
 Alpha virt. eigenvalues --   -0.02998  -0.02476  -0.02093  -0.01935  -0.01702

 Mulliken charges:
               1
     1  N   -0.758768
     2  H    0.405983
     3  H    0.429582
     4  H    0.422152
     5  C   -0.142699
     6  H    0.213645
     7  C    0.642083
     8  C    0.084139
     9  H    0.208379
    10  O   -0.526115
    11  C   -0.451941
    12  H    0.155337
    13  H    0.160215
    14  H    0.198425
    15  O   -0.675531
    16  H    0.474676
    17  N   -0.592953
    18  H    0.353446
    19  C   -0.065672
    20  H    0.194986
    21  C    0.656346
    22  C   -0.106985
    23  H    0.154242
    24  O   -0.590626
    25  C   -0.297724
    26  H    0.142576
    27  H    0.202353
    28  C   -0.517902
    29  H    0.185349
    30  H    0.125872
    31  H    0.222507
    32  C   -0.473627
    33  H    0.174101
    34  H    0.163748
    35  H    0.127348
    36  N   -0.582346
    37  H    0.359492
    38  C   -0.085207
    39  H    0.182242
    40  C    0.622887
    41  C   -0.457458
    42  H    0.190878
    43  H    0.170219
    44  H    0.160547
    45  O   -0.517291
    46  N   -0.641214
    47  H    0.387510
    48  C   -0.036577
    49  H    0.169753
    50  C    0.620814
    51  C   -0.273607
    52  H    0.155900
    53  H    0.191457
    54  O   -0.548943
    55  C   -0.365019
    56  H    0.150962
    57  H    0.189730
    58  C    0.602224
    59  N   -0.740786
    60  H    0.347116
    61  H    0.349499
    62  O   -0.522917
    63  N   -0.612792
    64  H    0.354458
    65  C   -0.052420
    66  H    0.182282
    67  C    0.628071
    68  C   -0.365541
    69  H    0.164665
    70  H    0.164233
    71  O   -0.548153
    72  C    0.190101
    73  C   -0.169316
    74  H    0.137299
    75  C   -0.190311
    76  H    0.139071
    77  C   -0.169944
    78  H    0.139675
    79  C   -0.172061
    80  H    0.139731
    81  O   -0.741067
    82  H    0.453513
    83  C    0.341116
    84  N   -0.618531
    85  H    0.355435
    86  C   -0.038511
    87  H    0.174689
    88  C    0.620325
    89  C   -0.449460
    90  H    0.160742
    91  H    0.183285
    92  H    0.159770
    93  O   -0.560486
    94  N   -0.616272
    95  H    0.348281
    96  C   -0.006105
    97  H    0.164524
    98  C    0.581143
    99  C   -0.264876
   100  H    0.124717
   101  H    0.164768
   102  O   -0.622072
   103  C   -0.297523
   104  H    0.135543
   105  H    0.168098
   106  C   -0.152588
   107  H    0.162521
   108  H    0.229933
   109  N   -0.591994
   110  H    0.336554
   111  N   -0.747111
   112  H    0.339963
   113  H    0.428130
   114  N   -0.757858
   115  H    0.366812
   116  H    0.349454
   117  C    0.770272
   118  O   -0.591002
 Sum of Mulliken charges =   1.00000

 Dipole moment (field-independent basis, Debye):
    X=              1.2442    Y=             -5.5236    Z=            -14.3295  Tot=             15.4076
 Quadrupole moment (field-independent basis, Debye-Ang):
   XX=           -159.8975   YY=           -146.8937   ZZ=           -236.6017
   XY=            156.8556   XZ=              8.8196   YZ=            100.9041

 Normal termination of Gaussian 16 at Mon Jun 27 02:45:58 2022.
