 Gaussian 16, Revision C.01,
 Gaussian 16:  ES64L-G16RevC.01  3-Jul-2019

 ----------------------------------------------------------------------
 # B3LYP/6-31G* empiricaldispersion=gd3 guess=read geom=check nosymm in
 tegral(ultrafinegrid)
 ----------------------------------------------------------------------

 ------------------------------------------------------
 Candidate Structure: Conf:535 Charge calc in gas phase
 ------------------------------------------------------
 Structure from the checkpoint file:  "conf-535.chk"
 Charge =  1 Multiplicity = 1

                          Input orientation:
 ---------------------------------------------------------------------
 Center     Atomic      Atomic             Coordinates (Angstroms)
 Number     Number       Type             X           Y           Z
 ---------------------------------------------------------------------
      1          7           0       -7.589998   -6.155856   -2.795475
      2          1           0       -8.134463   -5.243018   -2.748968
      3          1           0       -7.889399   -6.823813   -2.083831
      4          1           0       -7.703689   -6.548427   -3.743391
      5          6           0       -6.167297   -5.677039   -2.665081
      6          1           0       -5.801218   -5.918112   -1.664197
      7          6           0       -6.310364   -4.131719   -2.810761
      8          6           0       -5.308702   -6.360030   -3.748156
      9          1           0       -4.385535   -5.777182   -3.867685
     10          8           0       -7.457545   -3.665771   -2.854862
     11          6           0       -4.962357   -7.808568   -3.409463
     12          1           0       -4.357230   -7.866600   -2.498572
     13          1           0       -5.866026   -8.413982   -3.272337
     14          1           0       -4.381236   -8.257170   -4.221996
     15          8           0       -6.116434   -6.257800   -4.921291
     16          1           0       -5.660359   -6.668799   -5.672392
     17          7           0       -5.178431   -3.445245   -2.832360
     18          1           0       -4.271195   -3.905384   -2.880695
     19          6           0       -5.060974   -1.998406   -3.041599
     20          1           0       -5.987510   -1.649497   -3.508609
     21          6           0       -3.857393   -1.871052   -3.993006
     22          6           0       -4.822658   -1.233487   -1.700585
     23          1           0       -3.863837   -1.570547   -1.284467
     24          8           0       -2.963979   -2.722993   -3.952492
     25          6           0       -5.934012   -1.583680   -0.687452
     26          1           0       -5.932247   -2.668670   -0.523026
     27          1           0       -6.912976   -1.342835   -1.124993
     28          6           0       -4.718133    0.281531   -1.927842
     29          1           0       -5.666045    0.693287   -2.301947
     30          1           0       -3.916038    0.559971   -2.616071
     31          1           0       -4.479597    0.770011   -0.981157
     32          6           0       -5.777005   -0.889885    0.671390
     33          1           0       -6.495634   -1.297890    1.390588
     34          1           0       -5.961354    0.186390    0.600818
     35          1           0       -4.765453   -1.024400    1.068783
     36          7           0       -3.840590   -0.811447   -4.827232
     37          1           0       -4.534420   -0.086695   -4.682423
     38          6           0       -2.581902   -0.367816   -5.455612
     39          1           0       -2.078302   -1.265443   -5.822791
     40          6           0       -1.801414    0.287899   -4.299300
     41          6           0       -2.849018    0.607827   -6.592490
     42          1           0       -1.899259    0.915574   -7.040277
     43          1           0       -3.339720    1.505893   -6.203062
     44          1           0       -3.478421    0.150173   -7.361380
     45          8           0       -2.059542    1.437028   -3.949881
     46          7           0       -0.980591   -0.551178   -3.634012
     47          1           0       -0.854764   -1.491618   -3.982381
     48          6           0       -0.478159   -0.252903   -2.307914
     49          1           0       -1.083439    0.579254   -1.936912
     50          6           0        1.000879    0.135012   -2.354416
     51          6           0       -0.649050   -1.486517   -1.397139
     52          1           0        0.032435   -2.274511   -1.740457
     53          1           0       -1.673576   -1.853517   -1.510858
     54          8           0        1.802292   -0.446075   -3.084755
     55          6           0       -0.381354   -1.174469    0.082493
     56          1           0       -0.552385   -2.080906    0.674232
     57          1           0        0.655678   -0.864863    0.243104
     58          6           0       -1.360829   -0.114468    0.580597
     59          7           0       -0.790169    0.993651    1.126076
     60          1           0        0.215891    1.088748    1.261918
     61          1           0       -1.404517    1.698064    1.512779
     62          8           0       -2.579589   -0.250208    0.439849
     63          7           0        1.311858    1.104931   -1.461435
     64          1           0        0.578964    1.502888   -0.890009
     65          6           0        2.647542    1.594357   -1.246022
     66          1           0        3.317547    0.897096   -1.756421
     67          6           0        2.932224    1.593468    0.264559
     68          6           0        2.827602    3.014529   -1.873892
     69          1           0        3.899209    3.235217   -1.948718
     70          1           0        2.398266    3.762669   -1.196246
     71          8           0        2.010823    1.478740    1.095087
     72          6           0        2.131001    3.059650   -3.213129
     73          6           0        2.666053    2.416577   -4.337141
     74          1           0        3.658313    1.975911   -4.281591
     75          6           0        0.839471    3.589303   -3.311566
     76          1           0        0.394870    4.082988   -2.450329
     77          6           0        1.931122    2.281220   -5.512160
     78          1           0        2.337866    1.762870   -6.374500
     79          6           0        0.087907    3.459603   -4.477289
     80          1           0       -0.931570    3.834835   -4.516377
     81          8           0       -0.083245    2.574180   -6.730222
     82          1           0       -0.964675    2.963190   -6.619576
     83          6           0        0.628284    2.783213   -5.574046
     84          7           0        4.217997    1.764891    0.605773
     85          1           0        4.959954    1.868951   -0.083282
     86          6           0        4.698128    1.828062    1.978736
     87          1           0        4.073092    2.532162    2.539747
     88          6           0        6.148233    2.351291    1.909669
     89          6           0        4.654919    0.452589    2.669396
     90          1           0        5.052404    0.517315    3.687283
     91          1           0        3.622598    0.095025    2.705349
     92          1           0        5.263084   -0.265137    2.108057
     93          8           0        6.740397    2.413793    0.816462
     94          7           0        6.665177    2.671320    3.098422
     95          1           0        6.176648    2.403687    3.975932
     96          6           0        8.082576    2.657372    3.444724
     97          1           0        8.595748    1.893407    2.845233
     98          6           0        8.146267    2.211352    4.977281
     99          6           0        8.791741    3.995163    3.258926
    100          1           0        9.745959    3.904726    3.791022
    101          1           0        8.208093    4.780662    3.759041
    102          8           0        9.279833    2.260462    5.480733
    103          6           0        9.017236    4.363588    1.790384
    104          1           0        8.056503    4.440330    1.267572
    105          1           0        9.578329    3.561181    1.293769
    106          6           0        9.794727    5.669430    1.663618
    107          1           0       10.770825    5.580464    2.155348
    108          1           0        9.240604    6.496236    2.126643
    109          7           0       10.024588    5.982753    0.233288
    110          1           0        9.443499    5.479306   -0.427188
    111          7           0       11.527532    7.711864    0.586736
    112          1           0       12.394656    8.151060    0.312853
    113          1           0       11.281806    7.749066    1.565770
    114          7           0       11.191543    6.902566   -1.555569
    115          1           0       11.605458    7.727009   -1.966132
    116          1           0       10.845845    6.195447   -2.188122
    117          6           0       10.901640    6.855081   -0.238829
    118          8           0        7.028157    1.878624    5.460657
 ---------------------------------------------------------------------

 SCF Done:  E(RB3LYP) =  -2837.74001999     A.U. after    1 cycles

 Alpha  occ. eigenvalues --  -19.30049 -19.25787 -19.22292 -19.21671 -19.17714
 Alpha  occ. eigenvalues --  -19.16977 -19.16245 -19.15757 -19.14088 -19.05528
 Alpha  occ. eigenvalues --  -19.04453 -14.58540 -14.51003 -14.50949 -14.50484
 Alpha  occ. eigenvalues --  -14.48503 -14.45516 -14.42159 -14.40543 -14.40213
 Alpha  occ. eigenvalues --  -14.39739 -14.35373 -10.47095 -10.42694 -10.40220
 Alpha  occ. eigenvalues --  -10.39696 -10.38418 -10.34846 -10.33855 -10.33832
 Alpha  occ. eigenvalues --  -10.33039 -10.33009 -10.32270 -10.31541 -10.30949
 Alpha  occ. eigenvalues --  -10.30552 -10.28728 -10.28435 -10.28202 -10.26714
 Alpha  occ. eigenvalues --  -10.26315 -10.25116 -10.25059 -10.24702 -10.24541
 Alpha  occ. eigenvalues --  -10.24478 -10.24240 -10.23476 -10.23275 -10.23076
 Alpha  occ. eigenvalues --  -10.22996 -10.22875 -10.22713 -10.22402 -10.22149
 Alpha  occ. eigenvalues --  -10.21185 -10.20571 -10.20367  -1.18896  -1.17092
 Alpha  occ. eigenvalues --   -1.15573  -1.13706  -1.12349  -1.10082  -1.09835
 Alpha  occ. eigenvalues --   -1.08460  -1.07638  -1.07352  -1.05277  -1.05173
 Alpha  occ. eigenvalues --   -1.04511  -1.03903  -1.01807  -0.98805  -0.98558
 Alpha  occ. eigenvalues --   -0.97659  -0.96635  -0.94594  -0.93039  -0.92799
 Alpha  occ. eigenvalues --   -0.89810  -0.89315  -0.89132  -0.86798  -0.86178
 Alpha  occ. eigenvalues --   -0.85545  -0.84505  -0.83298  -0.81186  -0.80555
 Alpha  occ. eigenvalues --   -0.79261  -0.78632  -0.78299  -0.77481  -0.76742
 Alpha  occ. eigenvalues --   -0.76518  -0.76065  -0.73754  -0.73432  -0.72626
 Alpha  occ. eigenvalues --   -0.72270  -0.71091  -0.71032  -0.70907  -0.69936
 Alpha  occ. eigenvalues --   -0.69407  -0.68653  -0.67857  -0.67106  -0.66211
 Alpha  occ. eigenvalues --   -0.66090  -0.65203  -0.64674  -0.64472  -0.64227
 Alpha  occ. eigenvalues --   -0.63652  -0.63110  -0.63018  -0.62802  -0.62362
 Alpha  occ. eigenvalues --   -0.61565  -0.61481  -0.60557  -0.59206  -0.58846
 Alpha  occ. eigenvalues --   -0.58714  -0.58316  -0.58088  -0.57851  -0.57550
 Alpha  occ. eigenvalues --   -0.57091  -0.56330  -0.56100  -0.56005  -0.55388
 Alpha  occ. eigenvalues --   -0.54660  -0.54265  -0.53663  -0.53503  -0.53187
 Alpha  occ. eigenvalues --   -0.52786  -0.52272  -0.52108  -0.51952  -0.51337
 Alpha  occ. eigenvalues --   -0.51227  -0.50880  -0.50312  -0.50268  -0.50024
 Alpha  occ. eigenvalues --   -0.49565  -0.48706  -0.48458  -0.48301  -0.48219
 Alpha  occ. eigenvalues --   -0.47855  -0.47608  -0.47434  -0.47219  -0.46849
 Alpha  occ. eigenvalues --   -0.46630  -0.46303  -0.46101  -0.46010  -0.45970
 Alpha  occ. eigenvalues --   -0.45860  -0.45365  -0.44715  -0.44631  -0.44380
 Alpha  occ. eigenvalues --   -0.44187  -0.43811  -0.43635  -0.43524  -0.42895
 Alpha  occ. eigenvalues --   -0.42626  -0.42620  -0.42547  -0.42210  -0.41985
 Alpha  occ. eigenvalues --   -0.41863  -0.41649  -0.41313  -0.41184  -0.40930
 Alpha  occ. eigenvalues --   -0.40861  -0.40454  -0.40252  -0.39621  -0.39439
 Alpha  occ. eigenvalues --   -0.39349  -0.39154  -0.38834  -0.38636  -0.38414
 Alpha  occ. eigenvalues --   -0.37691  -0.37524  -0.37400  -0.37090  -0.36615
 Alpha  occ. eigenvalues --   -0.36050  -0.36020  -0.35099  -0.34873  -0.32951
 Alpha  occ. eigenvalues --   -0.32417  -0.31701  -0.31257  -0.31060  -0.30500
 Alpha  occ. eigenvalues --   -0.30065  -0.29765  -0.29219  -0.28341  -0.28112
 Alpha  occ. eigenvalues --   -0.26872  -0.25689  -0.20607  -0.20414  -0.18789
 Alpha virt. eigenvalues --   -0.11775  -0.11040  -0.09394  -0.07854  -0.07135
 Alpha virt. eigenvalues --   -0.05095  -0.04499  -0.04291  -0.03850  -0.03434
 Alpha virt. eigenvalues --   -0.03094  -0.02585  -0.02266  -0.02109  -0.02009

 Mulliken charges:
               1
     1  N   -0.760352
     2  H    0.435448
     3  H    0.410409
     4  H    0.426044
     5  C   -0.121782
     6  H    0.226959
     7  C    0.669621
     8  C    0.099935
     9  H    0.188951
    10  O   -0.539143
    11  C   -0.472842
    12  H    0.184025
    13  H    0.154413
    14  H    0.189767
    15  O   -0.635987
    16  H    0.434594
    17  N   -0.596143
    18  H    0.366140
    19  C   -0.081805
    20  H    0.182106
    21  C    0.636519
    22  C   -0.082937
    23  H    0.177146
    24  O   -0.562128
    25  C   -0.252369
    26  H    0.105103
    27  H    0.140145
    28  C   -0.509987
    29  H    0.129660
    30  H    0.174165
    31  H    0.203850
    32  C   -0.459210
    33  H    0.136583
    34  H    0.153298
    35  H    0.191195
    36  N   -0.585372
    37  H    0.350338
    38  C   -0.055607
    39  H    0.175451
    40  C    0.636004
    41  C   -0.491852
    42  H    0.195898
    43  H    0.164122
    44  H    0.160576
    45  O   -0.546781
    46  N   -0.568198
    47  H    0.351755
    48  C   -0.080319
    49  H    0.187771
    50  C    0.652024
    51  C   -0.294911
    52  H    0.158906
    53  H    0.167512
    54  O   -0.544889
    55  C   -0.367197
    56  H    0.170043
    57  H    0.176372
    58  C    0.577887
    59  N   -0.784806
    60  H    0.416653
    61  H    0.336457
    62  O   -0.530361
    63  N   -0.595381
    64  H    0.340103
    65  C   -0.060569
    66  H    0.193640
    67  C    0.646286
    68  C   -0.369953
    69  H    0.151234
    70  H    0.151626
    71  O   -0.578824
    72  C    0.172794
    73  C   -0.167131
    74  H    0.126525
    75  C   -0.195469
    76  H    0.121177
    77  C   -0.153511
    78  H    0.138602
    79  C   -0.160958
    80  H    0.131438
    81  O   -0.654008
    82  H    0.410600
    83  C    0.339313
    84  N   -0.612410
    85  H    0.352549
    86  C   -0.034967
    87  H    0.174670
    88  C    0.594803
    89  C   -0.463525
    90  H    0.199185
    91  H    0.166173
    92  H    0.151483
    93  O   -0.590397
    94  N   -0.605142
    95  H    0.364203
    96  C   -0.078894
    97  H    0.139348
    98  C    0.586901
    99  C   -0.260881
   100  H    0.171993
   101  H    0.132019
   102  O   -0.584624
   103  C   -0.309162
   104  H    0.174568
   105  H    0.156318
   106  C   -0.151856
   107  H    0.182322
   108  H    0.181407
   109  N   -0.598637
   110  H    0.371033
   111  N   -0.755626
   112  H    0.381759
   113  H    0.397288
   114  N   -0.765544
   115  H    0.381068
   116  H    0.383215
   117  C    0.826358
   118  O   -0.613399
 Sum of Mulliken charges =   1.00000

 Dipole moment (field-independent basis, Debye):
    X=             -6.2457    Y=             -2.0926    Z=            -27.6479  Tot=             28.4217
 Quadrupole moment (field-independent basis, Debye-Ang):
   XX=             89.6536   YY=             15.3425   ZZ=           -374.5508
   XY=            410.4693   XZ=            -55.5763   YZ=             40.3756

 Normal termination of Gaussian 16 at Mon Jun 27 02:45:23 2022.
