 Gaussian 16, Revision C.01,
 Gaussian 16:  ES64L-G16RevC.01  3-Jul-2019

 ----------------------------------------------------------------------
 # B3LYP/6-31G* empiricaldispersion=gd3 guess=read geom=check nosymm in
 tegral(ultrafinegrid)
 ----------------------------------------------------------------------

 ------------------------------------------------------
 Candidate Structure: Conf:883 Charge calc in gas phase
 ------------------------------------------------------
 Structure from the checkpoint file:  "conf-883.chk"
 Charge =  1 Multiplicity = 1

                          Input orientation:
 ---------------------------------------------------------------------
 Center     Atomic      Atomic             Coordinates (Angstroms)
 Number     Number       Type             X           Y           Z
 ---------------------------------------------------------------------
      1          7           0       -7.757788   -3.820887   -4.098551
      2          1           0       -8.012703   -4.232905   -3.197053
      3          1           0       -8.137881   -4.394881   -4.868101
      4          1           0       -8.090329   -2.825656   -4.115583
      5          6           0       -6.268206   -3.699476   -4.291986
      6          1           0       -5.774944   -4.479170   -3.707505
      7          6           0       -5.945914   -2.261600   -3.822209
      8          6           0       -5.977400   -3.891298   -5.799199
      9          1           0       -6.328843   -2.991351   -6.328268
     10          8           0       -6.880601   -1.451113   -3.805871
     11          6           0       -4.499460   -4.130757   -6.087101
     12          1           0       -3.877728   -3.271691   -5.815044
     13          1           0       -4.145629   -5.018241   -5.551764
     14          1           0       -4.362021   -4.305250   -7.159508
     15          8           0       -6.790681   -5.016139   -6.155515
     16          1           0       -6.725572   -5.172959   -7.111014
     17          7           0       -4.677591   -2.023431   -3.509767
     18          1           0       -3.969114   -2.740007   -3.649915
     19          6           0       -4.090248   -0.697246   -3.297081
     20          1           0       -4.844207    0.051263   -3.557319
     21          6           0       -2.887689   -0.645976   -4.259450
     22          6           0       -3.661505   -0.527950   -1.808413
     23          1           0       -3.129185   -1.452252   -1.537414
     24          8           0       -2.271827   -1.685126   -4.519667
     25          6           0       -4.911453   -0.402701   -0.915732
     26          1           0       -5.628430   -1.191660   -1.181532
     27          1           0       -5.409362    0.550558   -1.142804
     28          6           0       -2.695208    0.645661   -1.625595
     29          1           0       -3.122843    1.586698   -1.993804
     30          1           0       -1.758154    0.469538   -2.160255
     31          1           0       -2.435514    0.808876   -0.578230
     32          6           0       -4.605524   -0.484881    0.584441
     33          1           0       -5.531689   -0.447150    1.167827
     34          1           0       -3.970026    0.339645    0.920776
     35          1           0       -4.092988   -1.423070    0.831009
     36          7           0       -2.580489    0.571041   -4.749381
     37          1           0       -3.077104    1.383343   -4.394441
     38          6           0       -1.270209    0.908497   -5.318319
     39          1           0       -0.642322    0.017925   -5.231087
     40          6           0       -0.755587    2.066908   -4.439284
     41          6           0       -1.386191    1.346769   -6.781077
     42          1           0       -0.398497    1.593356   -7.185119
     43          1           0       -2.021338    2.234875   -6.855980
     44          1           0       -1.821189    0.543094   -7.382526
     45          8           0       -1.518590    2.990315   -4.153595
     46          7           0        0.517400    1.984881   -3.998419
     47          1           0        1.087289    1.163607   -4.172837
     48          6           0        1.015553    2.857846   -2.939598
     49          1           0        0.805105    3.899771   -3.202320
     50          6           0        2.513182    2.579806   -2.800953
     51          6           0        0.317829    2.484246   -1.599735
     52          1           0        0.670164    1.482449   -1.320694
     53          1           0       -0.747849    2.407565   -1.807997
     54          8           0        2.979329    1.483921   -3.115928
     55          6           0        0.472034    3.445726   -0.414216
     56          1           0        1.510873    3.711825   -0.216651
     57          1           0       -0.085820    4.367804   -0.618233
     58          6           0       -0.150258    2.781346    0.829166
     59          7           0        0.694226    2.628928    1.870278
     60          1           0        1.674843    2.866311    1.770262
     61          1           0        0.425381    2.167330    2.746470
     62          8           0       -1.323707    2.407184    0.810242
     63          7           0        3.257418    3.554980   -2.203560
     64          1           0        2.748954    4.358947   -1.853529
     65          6           0        4.450105    3.182471   -1.418074
     66          1           0        5.074293    2.543707   -2.047006
     67          6           0        3.916690    2.415330   -0.190341
     68          6           0        5.206765    4.443183   -0.995669
     69          1           0        4.514067    5.046441   -0.392278
     70          1           0        5.436048    5.020060   -1.899144
     71          8           0        3.511337    3.038270    0.795075
     72          6           0        6.473464    4.239909   -0.177548
     73          6           0        6.727534    3.103087    0.603903
     74          1           0        6.072259    2.242033    0.617762
     75          6           0        7.399845    5.290847   -0.118945
     76          1           0        7.238694    6.181774   -0.721497
     77          6           0        7.842688    3.033567    1.437957
     78          1           0        8.016424    2.140830    2.031764
     79          6           0        8.513538    5.242257    0.719636
     80          1           0        9.203613    6.082689    0.763888
     81          8           0        9.755196    4.027719    2.435958
     82          1           0       10.370415    4.764900    2.293800
     83          6           0        8.721396    4.111561    1.509201
     84          7           0        3.886386    1.075188   -0.315272
     85          1           0        4.113477    0.681948   -1.220144
     86          6           0        3.395112    0.177965    0.730941
     87          1           0        2.302321    0.261068    0.784726
     88          6           0        4.015766    0.608184    2.080544
     89          6           0        3.809922   -1.254090    0.395096
     90          1           0        3.405089   -1.943214    1.141909
     91          1           0        3.434052   -1.557201   -0.589669
     92          1           0        4.901606   -1.330745    0.406988
     93          8           0        5.239913    0.767361    2.178615
     94          7           0        3.123500    0.770247    3.059172
     95          1           0        2.116001    0.637863    2.927061
     96          6           0        3.360038    1.367245    4.361149
     97          1           0        3.998175    0.712508    4.967811
     98          6           0        1.950618    1.523891    5.062048
     99          6           0        4.016299    2.757736    4.234699
    100          1           0        3.244641    3.492483    3.968925
    101          1           0        4.742902    2.750540    3.413031
    102          8           0        1.984294    1.983080    6.216264
    103          6           0        4.706420    3.163523    5.537763
    104          1           0        5.555204    2.486723    5.714634
    105          1           0        3.999656    3.020445    6.360414
    106          6           0        5.211854    4.615225    5.476215
    107          1           0        4.484718    5.314697    5.895134
    108          1           0        5.391682    4.936961    4.443247
    109          7           0        6.476393    4.827444    6.212253
    110          1           0        6.411145    5.006559    7.206190
    111          7           0        7.798337    3.854612    4.557518
    112          1           0        8.669655    3.899214    4.024739
    113          1           0        6.993117    3.493525    4.061460
    114          7           0        8.795850    4.791901    6.413129
    115          1           0        9.628716    4.236597    6.277563
    116          1           0        8.743045    5.333302    7.263576
    117          6           0        7.669025    4.475303    5.730127
    118          8           0        0.958347    1.203870    4.339968
 ---------------------------------------------------------------------

 SCF Done:  E(RB3LYP) =  -2837.76689768     A.U. after    2 cycles

 Alpha  occ. eigenvalues --  -19.29566 -19.26790 -19.25353 -19.20646 -19.19682
 Alpha  occ. eigenvalues --  -19.18406 -19.17755 -19.13781 -19.12557 -19.07760
 Alpha  occ. eigenvalues --  -19.06767 -14.58757 -14.48738 -14.48509 -14.48501
 Alpha  occ. eigenvalues --  -14.47146 -14.44358 -14.43713 -14.43010 -14.42016
 Alpha  occ. eigenvalues --  -14.36803 -14.35605 -10.44494 -10.42504 -10.39750
 Alpha  occ. eigenvalues --  -10.39053 -10.37656 -10.36405 -10.35638 -10.34638
 Alpha  occ. eigenvalues --  -10.32626 -10.31934 -10.31019 -10.30951 -10.30653
 Alpha  occ. eigenvalues --  -10.30564 -10.30266 -10.30251 -10.29835 -10.27809
 Alpha  occ. eigenvalues --  -10.26915 -10.26027 -10.26011 -10.25987 -10.25757
 Alpha  occ. eigenvalues --  -10.25725 -10.25181 -10.25015 -10.24642 -10.24631
 Alpha  occ. eigenvalues --  -10.24302 -10.23191 -10.22912 -10.22893 -10.22703
 Alpha  occ. eigenvalues --  -10.22571 -10.22381 -10.21232  -1.18397  -1.16676
 Alpha  occ. eigenvalues --   -1.13997  -1.13001  -1.12700  -1.12256  -1.11709
 Alpha  occ. eigenvalues --   -1.10377  -1.09617  -1.05267  -1.05108  -1.04045
 Alpha  occ. eigenvalues --   -1.02337  -1.00908  -1.00876  -1.00656  -1.00115
 Alpha  occ. eigenvalues --   -0.99372  -0.98239  -0.94018  -0.92723  -0.92026
 Alpha  occ. eigenvalues --   -0.91868  -0.90955  -0.88910  -0.86527  -0.85173
 Alpha  occ. eigenvalues --   -0.85066  -0.84428  -0.83616  -0.82413  -0.81327
 Alpha  occ. eigenvalues --   -0.81013  -0.79673  -0.78685  -0.77620  -0.77284
 Alpha  occ. eigenvalues --   -0.76079  -0.75059  -0.73345  -0.73106  -0.72690
 Alpha  occ. eigenvalues --   -0.71607  -0.71163  -0.70845  -0.70388  -0.69705
 Alpha  occ. eigenvalues --   -0.69227  -0.68549  -0.67775  -0.67268  -0.66591
 Alpha  occ. eigenvalues --   -0.66272  -0.66119  -0.65424  -0.64584  -0.64412
 Alpha  occ. eigenvalues --   -0.64349  -0.63675  -0.63447  -0.62407  -0.61853
 Alpha  occ. eigenvalues --   -0.61346  -0.60876  -0.60703  -0.60119  -0.59066
 Alpha  occ. eigenvalues --   -0.58716  -0.58094  -0.57647  -0.56870  -0.56152
 Alpha  occ. eigenvalues --   -0.55661  -0.55608  -0.55381  -0.55232  -0.54722
 Alpha  occ. eigenvalues --   -0.54458  -0.54381  -0.54012  -0.53859  -0.53589
 Alpha  occ. eigenvalues --   -0.53037  -0.52959  -0.52521  -0.52105  -0.51675
 Alpha  occ. eigenvalues --   -0.51358  -0.51151  -0.50982  -0.50452  -0.49982
 Alpha  occ. eigenvalues --   -0.49806  -0.49406  -0.49230  -0.49080  -0.48978
 Alpha  occ. eigenvalues --   -0.48866  -0.48727  -0.48388  -0.48169  -0.48004
 Alpha  occ. eigenvalues --   -0.47470  -0.47090  -0.46854  -0.46334  -0.46227
 Alpha  occ. eigenvalues --   -0.45937  -0.45680  -0.45518  -0.45230  -0.44993
 Alpha  occ. eigenvalues --   -0.44672  -0.44550  -0.44316  -0.44046  -0.43863
 Alpha  occ. eigenvalues --   -0.43667  -0.43205  -0.42959  -0.42718  -0.42083
 Alpha  occ. eigenvalues --   -0.41955  -0.41855  -0.41803  -0.41418  -0.41178
 Alpha  occ. eigenvalues --   -0.40650  -0.40170  -0.40014  -0.39804  -0.39708
 Alpha  occ. eigenvalues --   -0.39608  -0.39460  -0.39392  -0.39201  -0.38968
 Alpha  occ. eigenvalues --   -0.38435  -0.38313  -0.38031  -0.37822  -0.37316
 Alpha  occ. eigenvalues --   -0.36588  -0.35897  -0.35050  -0.34763  -0.34682
 Alpha  occ. eigenvalues --   -0.34320  -0.33595  -0.32351  -0.32010  -0.31587
 Alpha  occ. eigenvalues --   -0.31517  -0.30693  -0.29071  -0.27882  -0.27779
 Alpha  occ. eigenvalues --   -0.27059  -0.26472  -0.22990  -0.22548  -0.20950
 Alpha virt. eigenvalues --   -0.11437  -0.09205  -0.09032  -0.07091  -0.07029
 Alpha virt. eigenvalues --   -0.06402  -0.05714  -0.05317  -0.04607  -0.04424
 Alpha virt. eigenvalues --   -0.03931  -0.03631  -0.01709  -0.01510  -0.00753

 Mulliken charges:
               1
     1  N   -0.746385
     2  H    0.417014
     3  H    0.428580
     4  H    0.424654
     5  C   -0.127545
     6  H    0.214255
     7  C    0.645757
     8  C    0.127125
     9  H    0.170592
    10  O   -0.534653
    11  C   -0.496643
    12  H    0.205804
    13  H    0.179011
    14  H    0.179617
    15  O   -0.648171
    16  H    0.432296
    17  N   -0.581214
    18  H    0.364869
    19  C   -0.096731
    20  H    0.187758
    21  C    0.623286
    22  C   -0.067636
    23  H    0.133478
    24  O   -0.552554
    25  C   -0.252214
    26  H    0.113817
    27  H    0.146657
    28  C   -0.507012
    29  H    0.154426
    30  H    0.142716
    31  H    0.233865
    32  C   -0.461105
    33  H    0.151095
    34  H    0.197490
    35  H    0.142037
    36  N   -0.583209
    37  H    0.359680
    38  C   -0.062218
    39  H    0.177961
    40  C    0.627477
    41  C   -0.442927
    42  H    0.166196
    43  H    0.175615
    44  H    0.162056
    45  O   -0.538544
    46  N   -0.615134
    47  H    0.353676
    48  C   -0.046849
    49  H    0.177200
    50  C    0.616728
    51  C   -0.292285
    52  H    0.148414
    53  H    0.217589
    54  O   -0.543628
    55  C   -0.391238
    56  H    0.143699
    57  H    0.165273
    58  C    0.593561
    59  N   -0.813712
    60  H    0.380759
    61  H    0.397081
    62  O   -0.537241
    63  N   -0.596153
    64  H    0.343733
    65  C   -0.058259
    66  H    0.178399
    67  C    0.620126
    68  C   -0.367185
    69  H    0.177251
    70  H    0.164067
    71  O   -0.551827
    72  C    0.164591
    73  C   -0.186187
    74  H    0.202451
    75  C   -0.190645
    76  H    0.137871
    77  C   -0.224522
    78  H    0.167406
    79  C   -0.182600
    80  H    0.130929
    81  O   -0.675833
    82  H    0.420158
    83  C    0.334151
    84  N   -0.587913
    85  H    0.356828
    86  C   -0.018676
    87  H    0.162189
    88  C    0.647548
    89  C   -0.486524
    90  H    0.176031
    91  H    0.148524
    92  H    0.179840
    93  O   -0.583820
    94  N   -0.623891
    95  H    0.355371
    96  C   -0.040664
    97  H    0.141633
    98  C    0.579872
    99  C   -0.292169
   100  H    0.149058
   101  H    0.156307
   102  O   -0.574093
   103  C   -0.297611
   104  H    0.128345
   105  H    0.220692
   106  C   -0.195119
   107  H    0.196423
   108  H    0.179439
   109  N   -0.580630
   110  H    0.359392
   111  N   -0.791998
   112  H    0.406210
   113  H    0.411138
   114  N   -0.766307
   115  H    0.377695
   116  H    0.370803
   117  C    0.801270
   118  O   -0.613427
 Sum of Mulliken charges =   1.00000

 Dipole moment (field-independent basis, Debye):
    X=              1.3698    Y=             -0.8612    Z=            -14.0998  Tot=             14.1924
 Quadrupole moment (field-independent basis, Debye-Ang):
   XX=             58.1357   YY=           -191.3853   ZZ=           -193.2849
   XY=            252.8604   XZ=            245.1066   YZ=            134.0841

 Normal termination of Gaussian 16 at Mon Jun 27 02:45:57 2022.
