 Gaussian 16, Revision C.01,
 Gaussian 16:  ES64L-G16RevC.01  3-Jul-2019

 ----------------------------------------------------------------------
 # B3LYP/6-31G* empiricaldispersion=gd3 guess=read geom=check nosymm in
 tegral(ultrafinegrid)
 ----------------------------------------------------------------------

 ------------------------------------------------------
 Candidate Structure: Conf:962 Charge calc in gas phase
 ------------------------------------------------------
 Structure from the checkpoint file:  "conf-962.chk"
 Charge =  1 Multiplicity = 1

                          Input orientation:
 ---------------------------------------------------------------------
 Center     Atomic      Atomic             Coordinates (Angstroms)
 Number     Number       Type             X           Y           Z
 ---------------------------------------------------------------------
      1          7           0       -0.456489   -5.745665   -1.594812
      2          1           0       -1.343936   -5.789263   -2.154951
      3          1           0       -0.028050   -6.659255   -1.442604
      4          1           0        0.200501   -5.105072   -2.078373
      5          6           0       -0.855297   -5.012240   -0.337271
      6          1           0       -1.107120   -5.742784    0.436392
      7          6           0       -2.120686   -4.241817   -0.799731
      8          6           0        0.326541   -4.106849    0.059890
      9          1           0        0.000813   -3.443610    0.863583
     10          8           0       -2.672713   -4.629336   -1.842262
     11          6           0        1.545077   -4.896535    0.518341
     12          1           0        1.287202   -5.573237    1.340014
     13          1           0        1.987516   -5.480364   -0.298873
     14          1           0        2.302017   -4.198724    0.880085
     15          8           0        0.687222   -3.351259   -1.097151
     16          1           0        0.014107   -2.642720   -1.244349
     17          7           0       -2.512020   -3.191593   -0.079951
     18          1           0       -1.909256   -2.787565    0.662038
     19          6           0       -3.416422   -2.225782   -0.702571
     20          1           0       -4.270792   -2.764065   -1.127185
     21          6           0       -2.628529   -1.557457   -1.856045
     22          6           0       -3.898983   -1.232223    0.386926
     23          1           0       -2.985215   -0.856814    0.849251
     24          8           0       -1.390974   -1.596182   -1.917028
     25          6           0       -4.707685   -1.980383    1.473602
     26          1           0       -4.342821   -3.009593    1.565240
     27          1           0       -5.754623   -2.051110    1.146212
     28          6           0       -4.687002   -0.032959   -0.156467
     29          1           0       -5.572142   -0.359580   -0.720371
     30          1           0       -4.092123    0.627117   -0.794880
     31          1           0       -5.051185    0.570296    0.680049
     32          6           0       -4.611809   -1.310622    2.849927
     33          1           0       -5.277696   -1.802985    3.566836
     34          1           0       -4.899521   -0.252879    2.809507
     35          1           0       -3.588449   -1.382472    3.237185
     36          7           0       -3.366754   -0.927711   -2.790570
     37          1           0       -4.364090   -0.841899   -2.646696
     38          6           0       -2.768972   -0.099887   -3.845828
     39          1           0       -1.943618   -0.678567   -4.271007
     40          6           0       -2.229502    1.205249   -3.206754
     41          6           0       -3.812957    0.215710   -4.910685
     42          1           0       -3.350903    0.762656   -5.737332
     43          1           0       -4.595570    0.854051   -4.489326
     44          1           0       -4.254027   -0.705014   -5.305058
     45          8           0       -2.973963    2.153987   -2.968944
     46          7           0       -0.908527    1.172584   -2.924384
     47          1           0       -0.398276    0.299727   -3.016106
     48          6           0       -0.180993    2.234512   -2.250288
     49          1           0       -0.211130    3.141437   -2.868961
     50          6           0        1.274836    1.745320   -2.160665
     51          6           0       -0.760953    2.591150   -0.865299
     52          1           0       -1.782396    2.945176   -1.024083
     53          1           0       -0.200854    3.429734   -0.438013
     54          8           0        1.600600    0.633158   -2.572912
     55          6           0       -0.749642    1.426051    0.130961
     56          1           0       -1.388474    0.604831   -0.200381
     57          1           0        0.262960    1.015643    0.230624
     58          6           0       -1.134463    1.908161    1.516021
     59          7           0       -1.879019    1.082338    2.271807
     60          1           0       -1.916793    0.093822    2.039249
     61          1           0       -2.000100    1.306938    3.251367
     62          8           0       -0.740311    3.018686    1.922063
     63          7           0        2.196310    2.592337   -1.606293
     64          1           0        1.861382    3.305671   -0.970479
     65          6           0        3.497429    2.003608   -1.295753
     66          1           0        3.862466    1.571511   -2.231376
     67          6           0        3.259603    0.880440   -0.260806
     68          6           0        4.528325    3.057395   -0.825338
     69          1           0        4.413339    3.937304   -1.468854
     70          1           0        5.519775    2.645206   -1.043838
     71          8           0        2.468105    1.068041    0.661987
     72          6           0        4.490787    3.458652    0.634555
     73          6           0        3.871099    4.636630    1.067419
     74          1           0        3.376973    5.282269    0.344612
     75          6           0        5.142589    2.665177    1.588843
     76          1           0        5.612305    1.733132    1.286160
     77          6           0        3.909060    5.026159    2.407479
     78          1           0        3.449736    5.952420    2.738020
     79          6           0        5.190756    3.038458    2.928189
     80          1           0        5.698359    2.405805    3.652861
     81          8           0        4.585288    4.635891    4.657167
     82          1           0        5.280806    4.156623    5.135806
     83          6           0        4.581164    4.227564    3.330608
     84          7           0        3.967312   -0.260231   -0.444638
     85          1           0        4.455585   -0.329500   -1.329615
     86          6           0        3.587622   -1.572139    0.115698
     87          1           0        2.752912   -1.961399   -0.482841
     88          6           0        3.142300   -1.463770    1.596799
     89          6           0        4.786317   -2.513903    0.013783
     90          1           0        4.503765   -3.523451    0.326873
     91          1           0        5.155488   -2.574253   -1.017026
     92          1           0        5.584911   -2.164148    0.672191
     93          8           0        3.965631   -1.405198    2.504261
     94          7           0        1.800432   -1.536654    1.765304
     95          1           0        1.198121   -1.426481    0.956635
     96          6           0        1.082395   -1.337922    3.017457
     97          1           0        1.469574   -2.030359    3.771293
     98          6           0       -0.433948   -1.628134    2.766978
     99          6           0        1.125522    0.106299    3.569953
    100          1           0        0.467574    0.107527    4.447596
    101          1           0        0.649153    0.735851    2.814862
    102          8           0       -1.178508   -1.664310    3.751075
    103          6           0        2.483991    0.713451    3.930332
    104          1           0        3.070945    0.889816    3.027823
    105          1           0        3.064132    0.024939    4.551886
    106          6           0        2.331540    2.026640    4.701517
    107          1           0        3.318267    2.446373    4.911719
    108          1           0        1.824804    1.861850    5.660921
    109          7           0        1.537691    3.005883    3.932144
    110          1           0        1.125369    2.712287    3.050960
    111          7           0        1.778626    4.751542    5.436874
    112          1           0        1.404288    5.599767    5.837878
    113          1           0        2.793588    4.651653    5.455026
    114          7           0        0.013417    4.743639    3.906102
    115          1           0       -0.145845    5.734983    4.008524
    116          1           0       -0.532914    4.212188    3.217305
    117          6           0        1.116589    4.176797    4.409236
    118          8           0       -0.794313   -1.675943    1.526002
 ---------------------------------------------------------------------

 SCF Done:  E(RB3LYP) =  -2837.87060921     A.U. after    1 cycles

 Alpha  occ. eigenvalues --  -19.28347 -19.24728 -19.23317 -19.21533 -19.20863
 Alpha  occ. eigenvalues --  -19.20778 -19.19839 -19.18206 -19.17120 -19.16575
 Alpha  occ. eigenvalues --  -19.14972 -14.56081 -14.46971 -14.46620 -14.46561
 Alpha  occ. eigenvalues --  -14.45251 -14.45046 -14.44515 -14.44340 -14.43196
 Alpha  occ. eigenvalues --  -14.42516 -14.40962 -10.43229 -10.39932 -10.38041
 Alpha  occ. eigenvalues --  -10.37683 -10.37468 -10.36838 -10.36702 -10.35402
 Alpha  occ. eigenvalues --  -10.34548 -10.34126 -10.33881 -10.33491 -10.31968
 Alpha  occ. eigenvalues --  -10.31927 -10.31347 -10.31143 -10.30970 -10.30407
 Alpha  occ. eigenvalues --  -10.28270 -10.28081 -10.27890 -10.27827 -10.27700
 Alpha  occ. eigenvalues --  -10.27679 -10.27581 -10.27442 -10.26932 -10.26350
 Alpha  occ. eigenvalues --  -10.26122 -10.25308 -10.25188 -10.24822 -10.24802
 Alpha  occ. eigenvalues --  -10.24738 -10.24402 -10.22330  -1.16050  -1.15625
 Alpha  occ. eigenvalues --   -1.13209  -1.12974  -1.12356  -1.12169  -1.11581
 Alpha  occ. eigenvalues --   -1.11549  -1.09978  -1.09514  -1.09213  -1.08599
 Alpha  occ. eigenvalues --   -1.02486  -1.01488  -1.00996  -1.00987  -1.00518
 Alpha  occ. eigenvalues --   -1.00241  -1.00060  -0.99411  -0.98576  -0.97444
 Alpha  occ. eigenvalues --   -0.94146  -0.89789  -0.88290  -0.87844  -0.86753
 Alpha  occ. eigenvalues --   -0.86593  -0.84818  -0.84507  -0.83501  -0.82839
 Alpha  occ. eigenvalues --   -0.81837  -0.80853  -0.79931  -0.79558  -0.77555
 Alpha  occ. eigenvalues --   -0.75090  -0.74413  -0.73665  -0.73240  -0.71879
 Alpha  occ. eigenvalues --   -0.71584  -0.71273  -0.71220  -0.70605  -0.69945
 Alpha  occ. eigenvalues --   -0.68951  -0.68635  -0.68542  -0.68308  -0.67339
 Alpha  occ. eigenvalues --   -0.67025  -0.66849  -0.66496  -0.66288  -0.64807
 Alpha  occ. eigenvalues --   -0.64721  -0.63500  -0.63423  -0.63231  -0.63013
 Alpha  occ. eigenvalues --   -0.62174  -0.61359  -0.60965  -0.60689  -0.60311
 Alpha  occ. eigenvalues --   -0.59746  -0.59033  -0.58911  -0.58259  -0.57566
 Alpha  occ. eigenvalues --   -0.57327  -0.56998  -0.56658  -0.56595  -0.55942
 Alpha  occ. eigenvalues --   -0.55751  -0.55638  -0.55056  -0.54966  -0.54610
 Alpha  occ. eigenvalues --   -0.54256  -0.54010  -0.53369  -0.53085  -0.53002
 Alpha  occ. eigenvalues --   -0.52096  -0.52022  -0.51852  -0.51711  -0.51087
 Alpha  occ. eigenvalues --   -0.50967  -0.50859  -0.50323  -0.50247  -0.49959
 Alpha  occ. eigenvalues --   -0.49706  -0.49392  -0.49286  -0.48838  -0.48703
 Alpha  occ. eigenvalues --   -0.48619  -0.48445  -0.48146  -0.48014  -0.47725
 Alpha  occ. eigenvalues --   -0.47430  -0.47292  -0.47167  -0.47024  -0.46690
 Alpha  occ. eigenvalues --   -0.46472  -0.45986  -0.45940  -0.45693  -0.45579
 Alpha  occ. eigenvalues --   -0.44973  -0.44868  -0.44689  -0.44547  -0.44112
 Alpha  occ. eigenvalues --   -0.44024  -0.43636  -0.43565  -0.43335  -0.43125
 Alpha  occ. eigenvalues --   -0.42914  -0.42802  -0.42675  -0.42406  -0.42038
 Alpha  occ. eigenvalues --   -0.41772  -0.41567  -0.41269  -0.41086  -0.39692
 Alpha  occ. eigenvalues --   -0.39661  -0.39274  -0.39164  -0.38720  -0.38494
 Alpha  occ. eigenvalues --   -0.37613  -0.36206  -0.36130  -0.36020  -0.35803
 Alpha  occ. eigenvalues --   -0.35599  -0.34735  -0.34606  -0.34413  -0.34298
 Alpha  occ. eigenvalues --   -0.33633  -0.33208  -0.32259  -0.31943  -0.31476
 Alpha  occ. eigenvalues --   -0.31058  -0.30978  -0.30665  -0.30461  -0.28458
 Alpha virt. eigenvalues --   -0.09867  -0.09363  -0.08491  -0.08144  -0.07743
 Alpha virt. eigenvalues --   -0.07218  -0.06463  -0.06134  -0.05711  -0.04626
 Alpha virt. eigenvalues --   -0.04297  -0.03693  -0.02696  -0.01825  -0.01390

 Mulliken charges:
               1
     1  N   -0.750584
     2  H    0.424723
     3  H    0.404147
     4  H    0.414204
     5  C   -0.122746
     6  H    0.216484
     7  C    0.638322
     8  C    0.065598
     9  H    0.214962
    10  O   -0.553812
    11  C   -0.470271
    12  H    0.163876
    13  H    0.132513
    14  H    0.203849
    15  O   -0.672206
    16  H    0.462077
    17  N   -0.619412
    18  H    0.416620
    19  C   -0.085492
    20  H    0.183552
    21  C    0.663387
    22  C   -0.101867
    23  H    0.152396
    24  O   -0.577500
    25  C   -0.257693
    26  H    0.148441
    27  H    0.137229
    28  C   -0.501685
    29  H    0.139267
    30  H    0.174844
    31  H    0.173808
    32  C   -0.488707
    33  H    0.151925
    34  H    0.136992
    35  H    0.192582
    36  N   -0.587244
    37  H    0.349806
    38  C   -0.044446
    39  H    0.170163
    40  C    0.633840
    41  C   -0.480142
    42  H    0.177660
    43  H    0.184553
    44  H    0.162159
    45  O   -0.538963
    46  N   -0.618008
    47  H    0.375230
    48  C   -0.035147
    49  H    0.187007
    50  C    0.616163
    51  C   -0.303556
    52  H    0.202217
    53  H    0.149260
    54  O   -0.534708
    55  C   -0.403081
    56  H    0.180059
    57  H    0.224501
    58  C    0.606088
    59  N   -0.759186
    60  H    0.434806
    61  H    0.345248
    62  O   -0.583937
    63  N   -0.599404
    64  H    0.343514
    65  C   -0.046765
    66  H    0.171640
    67  C    0.659052
    68  C   -0.397447
    69  H    0.176497
    70  H    0.173154
    71  O   -0.552913
    72  C    0.187456
    73  C   -0.203996
    74  H    0.136109
    75  C   -0.179092
    76  H    0.158725
    77  C   -0.158111
    78  H    0.139253
    79  C   -0.185931
    80  H    0.148132
    81  O   -0.676640
    82  H    0.426385
    83  C    0.346467
    84  N   -0.602129
    85  H    0.336447
    86  C   -0.052852
    87  H    0.183175
    88  C    0.633625
    89  C   -0.471386
    90  H    0.160023
    91  H    0.140919
    92  H    0.192012
    93  O   -0.540535
    94  N   -0.612613
    95  H    0.352922
    96  C   -0.034837
    97  H    0.166222
    98  C    0.581445
    99  C   -0.285848
   100  H    0.157106
   101  H    0.135876
   102  O   -0.543592
   103  C   -0.309911
   104  H    0.200602
   105  H    0.170045
   106  C   -0.126601
   107  H    0.141374
   108  H    0.171304
   109  N   -0.613436
   110  H    0.393829
   111  N   -0.766519
   112  H    0.355568
   113  H    0.404906
   114  N   -0.776969
   115  H    0.353218
   116  H    0.415181
   117  C    0.759742
   118  O   -0.654564
 Sum of Mulliken charges =   1.00000

 Dipole moment (field-independent basis, Debye):
    X=              5.5929    Y=              0.1027    Z=              3.2080  Tot=              6.4484
 Quadrupole moment (field-independent basis, Debye-Ang):
   XX=           -291.5675   YY=           -188.0927   ZZ=           -279.7094
   XY=             31.3385   XZ=             23.4777   YZ=             81.5654

 Normal termination of Gaussian 16 at Mon Jun 27 02:45:52 2022.
