 Gaussian 16, Revision C.01,
 Gaussian 16:  ES64L-G16RevC.01  3-Jul-2019

 ----------------------------------------------------------------------
 # B3LYP/6-31G* empiricaldispersion=gd3 guess=read geom=check nosymm in
 tegral(ultrafinegrid)
 ----------------------------------------------------------------------

 ------------------------------------------------------
 Candidate Structure: Conf:123 Charge calc in gas phase
 ------------------------------------------------------
 Structure from the checkpoint file:  "conf-123.chk"
 Charge =  1 Multiplicity = 1

                          Input orientation:
 ---------------------------------------------------------------------
 Center     Atomic      Atomic             Coordinates (Angstroms)
 Number     Number       Type             X           Y           Z
 ---------------------------------------------------------------------
      1          7           0       -8.840553   -4.528768   -7.016449
      2          1           0       -9.317033   -5.353117   -6.641551
      3          1           0       -8.941854   -4.496503   -8.045677
      4          1           0       -9.223079   -3.678855   -6.534341
      5          6           0       -7.371040   -4.488737   -6.696696
      6          1           0       -7.006231   -5.511773   -6.575250
      7          6           0       -7.285477   -3.641859   -5.407047
      8          6           0       -6.667544   -3.782239   -7.898218
      9          1           0       -6.906441   -2.713936   -7.835636
     10          8           0       -8.242375   -2.899930   -5.149750
     11          6           0       -5.158640   -3.987307   -7.903135
     12          1           0       -4.678887   -3.567234   -7.013938
     13          1           0       -4.909904   -5.055813   -7.950601
     14          1           0       -4.733616   -3.492570   -8.780910
     15          8           0       -7.294229   -4.234195   -9.101133
     16          1           0       -6.783431   -4.971721   -9.474445
     17          7           0       -6.155737   -3.747264   -4.719058
     18          1           0       -5.371123   -4.303368   -5.061560
     19          6           0       -5.747004   -2.837939   -3.648047
     20          1           0       -6.251534   -1.881814   -3.810425
     21          6           0       -4.223207   -2.689804   -3.853275
     22          6           0       -6.144717   -3.405251   -2.252654
     23          1           0       -7.219785   -3.616142   -2.346105
     24          8           0       -3.619982   -3.481941   -4.591791
     25          6           0       -5.978650   -2.399367   -1.094646
     26          1           0       -4.915733   -2.223429   -0.889259
     27          1           0       -6.373270   -2.890584   -0.196449
     28          6           0       -5.408709   -4.717417   -1.949475
     29          1           0       -4.331285   -4.551846   -1.834797
     30          1           0       -5.551303   -5.460580   -2.741654
     31          1           0       -5.778256   -5.151728   -1.015258
     32          6           0       -6.702647   -1.060455   -1.282034
     33          1           0       -6.656968   -0.469509   -0.362490
     34          1           0       -7.758530   -1.210860   -1.537397
     35          1           0       -6.258060   -0.443160   -2.072806
     36          7           0       -3.634308   -1.696342   -3.180431
     37          1           0       -4.149025   -1.111249   -2.526285
     38          6           0       -2.189787   -1.547150   -3.066500
     39          1           0       -1.741159   -2.546640   -3.058914
     40          6           0       -1.957216   -0.858563   -1.705975
     41          6           0       -1.598938   -0.732989   -4.228161
     42          1           0       -0.514096   -0.630338   -4.123272
     43          1           0       -2.040240    0.268582   -4.255246
     44          1           0       -1.811094   -1.242629   -5.172160
     45          8           0       -2.899642   -0.344604   -1.093167
     46          7           0       -0.686552   -0.872582   -1.273994
     47          1           0        0.066874   -1.198386   -1.876311
     48          6           0       -0.200412   -0.110252   -0.132195
     49          1           0       -0.859967    0.753518    0.010501
     50          6           0        1.218629    0.358068   -0.519643
     51          6           0       -0.153200   -0.955219    1.157117
     52          1           0        0.359332   -0.380705    1.938466
     53          1           0        0.448897   -1.851692    0.976870
     54          8           0        1.812032   -0.152348   -1.474600
     55          6           0       -1.537334   -1.381715    1.657482
     56          1           0       -2.125744   -0.508861    1.964571
     57          1           0       -2.096699   -1.857892    0.845092
     58          6           0       -1.409869   -2.418028    2.773625
     59          7           0       -2.262315   -2.258781    3.831179
     60          1           0       -2.781954   -1.406291    3.975994
     61          1           0       -2.152852   -2.886201    4.616701
     62          8           0       -0.627897   -3.355098    2.696741
     63          7           0        1.746160    1.307580    0.269972
     64          1           0        1.232957    1.727876    1.040261
     65          6           0        3.101507    1.809266    0.119508
     66          1           0        3.769334    0.964743   -0.079035
     67          6           0        3.454506    2.481888    1.456601
     68          6           0        3.200166    2.811969   -1.067482
     69          1           0        2.488156    3.623982   -0.881389
     70          1           0        2.863140    2.268799   -1.957227
     71          8           0        2.558919    2.930117    2.181002
     72          6           0        4.595234    3.357328   -1.255551
     73          6           0        4.923297    4.664075   -0.870426
     74          1           0        4.143214    5.319329   -0.489957
     75          6           0        5.623296    2.533497   -1.731555
     76          1           0        5.394916    1.517115   -2.045731
     77          6           0        6.230588    5.135812   -0.942965
     78          1           0        6.484131    6.144800   -0.634427
     79          6           0        6.939184    2.987194   -1.799094
     80          1           0        7.727837    2.328655   -2.156829
     81          8           0        8.522681    4.787757   -1.418045
     82          1           0        9.142326    4.057992   -1.572822
     83          6           0        7.246117    4.288157   -1.391827
     84          7           0        4.764348    2.556373    1.741017
     85          1           0        5.473765    2.266413    1.071245
     86          6           0        5.287754    3.341146    2.847879
     87          1           0        4.725387    4.281428    2.904864
     88          6           0        6.759761    3.638846    2.501746
     89          6           0        5.158577    2.600167    4.188139
     90          1           0        5.542643    3.213111    5.009986
     91          1           0        4.104747    2.377687    4.375264
     92          1           0        5.724127    1.663224    4.158337
     93          8           0        7.340942    3.013196    1.608077
     94          7           0        7.339469    4.591966    3.247954
     95          1           0        6.838210    5.116312    3.960434
     96          6           0        8.727184    5.012808    3.094360
     97          1           0        9.361270    4.128315    2.986707
     98          6           0        9.097896    5.787270    4.383668
     99          6           0        8.844060    5.890677    1.815120
    100          1           0        8.312988    6.834141    2.003851
    101          1           0        8.285069    5.358360    1.043641
    102          8           0       10.342772    5.803782    4.691854
    103          6           0       10.254098    6.163603    1.243526
    104          1           0       10.198274    6.092847    0.151349
    105          1           0       10.956688    5.384098    1.567375
    106          6           0       10.854463    7.541113    1.565609
    107          1           0       10.150347    8.325946    1.261660
    108          1           0       11.784151    7.685386    1.000065
    109          7           0       11.125093    7.649453    3.001004
    110          1           0       11.094143    6.746462    3.522579
    111          7           0       10.601876    9.913810    3.260930
    112          1           0       10.484838   10.695760    3.888819
    113          1           0       11.029210   10.134026    2.373122
    114          7           0       10.681021    8.457799    5.101034
    115          1           0       10.301338    9.181732    5.693807
    116          1           0       10.495422    7.460710    5.354862
    117          6           0       10.800570    8.675611    3.785412
    118          8           0        8.183300    6.390041    4.970401
 ---------------------------------------------------------------------

 SCF Done:  E(RB3LYP) =  -2837.80142320     A.U. after    1 cycles

 Alpha  occ. eigenvalues --  -19.30427 -19.26107 -19.22034 -19.21635 -19.19427
 Alpha  occ. eigenvalues --  -19.17583 -19.15786 -19.15419 -19.14442 -19.11878
 Alpha  occ. eigenvalues --  -19.11283 -14.59516 -14.48916 -14.44909 -14.44593
 Alpha  occ. eigenvalues --  -14.42872 -14.41367 -14.41333 -14.41327 -14.40345
 Alpha  occ. eigenvalues --  -14.39330 -14.37982 -10.43159 -10.40343 -10.39689
 Alpha  occ. eigenvalues --  -10.39081 -10.38549 -10.36388 -10.34612 -10.33679
 Alpha  occ. eigenvalues --  -10.33369 -10.32790 -10.31558 -10.31428 -10.31008
 Alpha  occ. eigenvalues --  -10.29671 -10.29336 -10.28754 -10.28692 -10.28249
 Alpha  occ. eigenvalues --  -10.28148 -10.26656 -10.26149 -10.25823 -10.25813
 Alpha  occ. eigenvalues --  -10.25136 -10.24681 -10.24470 -10.24367 -10.23633
 Alpha  occ. eigenvalues --  -10.23187 -10.23098 -10.23046 -10.22930 -10.22909
 Alpha  occ. eigenvalues --  -10.22402 -10.21541 -10.21191  -1.19110  -1.17489
 Alpha  occ. eigenvalues --   -1.13647  -1.13108  -1.11233  -1.09863  -1.09434
 Alpha  occ. eigenvalues --   -1.07924  -1.07627  -1.07366  -1.06189  -1.05711
 Alpha  occ. eigenvalues --   -1.04808  -1.01673  -0.99638  -0.97967  -0.97628
 Alpha  occ. eigenvalues --   -0.96194  -0.96022  -0.95606  -0.94811  -0.94341
 Alpha  occ. eigenvalues --   -0.93287  -0.90251  -0.89400  -0.86658  -0.85555
 Alpha  occ. eigenvalues --   -0.84485  -0.83499  -0.83108  -0.82219  -0.80449
 Alpha  occ. eigenvalues --   -0.79996  -0.78913  -0.78691  -0.77457  -0.77116
 Alpha  occ. eigenvalues --   -0.76073  -0.74069  -0.73943  -0.72697  -0.72117
 Alpha  occ. eigenvalues --   -0.71527  -0.70811  -0.70435  -0.69577  -0.69446
 Alpha  occ. eigenvalues --   -0.68554  -0.66912  -0.66506  -0.66156  -0.65803
 Alpha  occ. eigenvalues --   -0.65275  -0.64969  -0.64528  -0.64037  -0.63849
 Alpha  occ. eigenvalues --   -0.63097  -0.62482  -0.62424  -0.61642  -0.61187
 Alpha  occ. eigenvalues --   -0.60981  -0.60222  -0.59194  -0.58946  -0.58323
 Alpha  occ. eigenvalues --   -0.58276  -0.58230  -0.57432  -0.57094  -0.56497
 Alpha  occ. eigenvalues --   -0.56276  -0.55643  -0.55056  -0.54687  -0.54385
 Alpha  occ. eigenvalues --   -0.53944  -0.53846  -0.53140  -0.53050  -0.52604
 Alpha  occ. eigenvalues --   -0.51790  -0.51687  -0.51573  -0.51336  -0.51172
 Alpha  occ. eigenvalues --   -0.50869  -0.50774  -0.50718  -0.50555  -0.50410
 Alpha  occ. eigenvalues --   -0.50088  -0.49849  -0.49390  -0.48679  -0.48600
 Alpha  occ. eigenvalues --   -0.47985  -0.47871  -0.47731  -0.47671  -0.47553
 Alpha  occ. eigenvalues --   -0.47434  -0.47335  -0.47107  -0.46333  -0.46148
 Alpha  occ. eigenvalues --   -0.46049  -0.45849  -0.45083  -0.44994  -0.44752
 Alpha  occ. eigenvalues --   -0.44724  -0.44702  -0.44262  -0.44187  -0.43915
 Alpha  occ. eigenvalues --   -0.43775  -0.43713  -0.43408  -0.43104  -0.42801
 Alpha  occ. eigenvalues --   -0.42183  -0.42130  -0.41923  -0.41697  -0.41437
 Alpha  occ. eigenvalues --   -0.41004  -0.40950  -0.40737  -0.40344  -0.40137
 Alpha  occ. eigenvalues --   -0.39981  -0.39527  -0.39443  -0.39341  -0.39036
 Alpha  occ. eigenvalues --   -0.38067  -0.38002  -0.37682  -0.37522  -0.36638
 Alpha  occ. eigenvalues --   -0.36519  -0.35720  -0.35012  -0.34964  -0.33535
 Alpha  occ. eigenvalues --   -0.32807  -0.31781  -0.31635  -0.31310  -0.31092
 Alpha  occ. eigenvalues --   -0.29948  -0.29501  -0.29220  -0.28978  -0.28511
 Alpha  occ. eigenvalues --   -0.28419  -0.27250  -0.26049  -0.25527  -0.25382
 Alpha virt. eigenvalues --   -0.12143  -0.10190  -0.07407  -0.05417  -0.05147
 Alpha virt. eigenvalues --   -0.04576  -0.04442  -0.03978  -0.03830  -0.02738
 Alpha virt. eigenvalues --   -0.02642  -0.01808  -0.01354  -0.01289  -0.00700

 Mulliken charges:
               1
     1  N   -0.745199
     2  H    0.415174
     3  H    0.425980
     4  H    0.425956
     5  C   -0.141986
     6  H    0.202515
     7  C    0.644444
     8  C    0.128133
     9  H    0.192718
    10  O   -0.535352
    11  C   -0.515079
    12  H    0.210569
    13  H    0.163457
    14  H    0.205265
    15  O   -0.629046
    16  H    0.423593
    17  N   -0.595817
    18  H    0.371921
    19  C   -0.091452
    20  H    0.195746
    21  C    0.631388
    22  C   -0.071486
    23  H    0.147272
    24  O   -0.562080
    25  C   -0.286116
    26  H    0.162413
    27  H    0.155489
    28  C   -0.464348
    29  H    0.167646
    30  H    0.136338
    31  H    0.168703
    32  C   -0.461704
    33  H    0.173192
    34  H    0.154664
    35  H    0.141268
    36  N   -0.616816
    37  H    0.382244
    38  C   -0.056973
    39  H    0.190183
    40  C    0.623223
    41  C   -0.450200
    42  H    0.175534
    43  H    0.165484
    44  H    0.174447
    45  O   -0.553066
    46  N   -0.601282
    47  H    0.361445
    48  C   -0.072779
    49  H    0.177390
    50  C    0.629307
    51  C   -0.263571
    52  H    0.157359
    53  H    0.187353
    54  O   -0.552162
    55  C   -0.353190
    56  H    0.139893
    57  H    0.182452
    58  C    0.591031
    59  N   -0.746471
    60  H    0.336107
    61  H    0.345027
    62  O   -0.504099
    63  N   -0.618562
    64  H    0.355356
    65  C   -0.036269
    66  H    0.176988
    67  C    0.615002
    68  C   -0.352638
    69  H    0.151983
    70  H    0.176612
    71  O   -0.559981
    72  C    0.151189
    73  C   -0.187150
    74  H    0.132518
    75  C   -0.211174
    76  H    0.139312
    77  C   -0.161107
    78  H    0.139617
    79  C   -0.169435
    80  H    0.127260
    81  O   -0.652753
    82  H    0.413865
    83  C    0.378746
    84  N   -0.611660
    85  H    0.369363
    86  C   -0.037646
    87  H    0.168979
    88  C    0.626156
    89  C   -0.446922
    90  H    0.159155
    91  H    0.178260
    92  H    0.160067
    93  O   -0.562374
    94  N   -0.618040
    95  H    0.349712
    96  C   -0.019750
    97  H    0.162277
    98  C    0.583336
    99  C   -0.293093
   100  H    0.132904
   101  H    0.197301
   102  O   -0.647084
   103  C   -0.308201
   104  H    0.164890
   105  H    0.162350
   106  C   -0.149223
   107  H    0.156327
   108  H    0.160074
   109  N   -0.602102
   110  H    0.404541
   111  N   -0.753826
   112  H    0.358894
   113  H    0.365065
   114  N   -0.755587
   115  H    0.343821
   116  H    0.412290
   117  C    0.753885
   118  O   -0.565569
 Sum of Mulliken charges =   1.00000

 Dipole moment (field-independent basis, Debye):
    X=            -20.5846    Y=             -4.6468    Z=            -25.6726  Tot=             33.2326
 Quadrupole moment (field-independent basis, Debye-Ang):
   XX=             29.2093   YY=           -108.7230   ZZ=           -145.3466
   XY=            294.0008   XZ=            190.8917   YZ=            158.3906

 Normal termination of Gaussian 16 at Mon Jun 27 02:45:16 2022.
