 Gaussian 16, Revision C.01,
 Gaussian 16:  ES64L-G16RevC.01  3-Jul-2019

 ----------------------------------------------------------------------
 # B3LYP/6-31G* empiricaldispersion=gd3 guess=read geom=check nosymm in
 tegral(ultrafinegrid)
 ----------------------------------------------------------------------

 ------------------------------------------------------
 Candidate Structure: Conf:156 Charge calc in gas phase
 ------------------------------------------------------
 Structure from the checkpoint file:  "conf-156.chk"
 Charge =  1 Multiplicity = 1

                          Input orientation:
 ---------------------------------------------------------------------
 Center     Atomic      Atomic             Coordinates (Angstroms)
 Number     Number       Type             X           Y           Z
 ---------------------------------------------------------------------
      1          7           0       -4.789590    1.214288   -6.364057
      2          1           0       -5.305771    1.376411   -5.465182
      3          1           0       -5.233899    1.678526   -7.157134
      4          1           0       -3.799838    1.531145   -6.238022
      5          6           0       -4.681148   -0.278819   -6.473930
      6          1           0       -5.371357   -0.642880   -7.239130
      7          6           0       -5.119480   -0.780101   -5.074115
      8          6           0       -3.187531   -0.592878   -6.841306
      9          1           0       -2.952910   -1.607329   -6.495025
     10          8           0       -5.524658    0.043536   -4.250089
     11          6           0       -2.939978   -0.484353   -8.340421
     12          1           0       -3.549355   -1.204098   -8.896791
     13          1           0       -3.167848    0.524857   -8.703977
     14          1           0       -1.885299   -0.679819   -8.547358
     15          8           0       -2.369772    0.359923   -6.185095
     16          1           0       -2.225443    0.069983   -5.246408
     17          7           0       -5.016610   -2.098330   -4.869340
     18          1           0       -4.624396   -2.701021   -5.586064
     19          6           0       -5.052139   -2.718922   -3.536805
     20          1           0       -5.155859   -1.906105   -2.812501
     21          6           0       -3.679547   -3.408326   -3.428086
     22          6           0       -6.213178   -3.721899   -3.371735
     23          1           0       -6.090324   -4.482338   -4.156399
     24          8           0       -3.297835   -4.151973   -4.326591
     25          6           0       -7.566489   -3.013548   -3.569002
     26          1           0       -7.534266   -2.443114   -4.506104
     27          1           0       -7.702700   -2.275592   -2.765845
     28          6           0       -6.101833   -4.411382   -2.002916
     29          1           0       -6.180663   -3.680691   -1.187463
     30          1           0       -5.153043   -4.947500   -1.890667
     31          1           0       -6.901296   -5.144157   -1.869790
     32          6           0       -8.766126   -3.966368   -3.611931
     33          1           0       -9.686607   -3.416598   -3.834131
     34          1           0       -8.916492   -4.481849   -2.658148
     35          1           0       -8.636451   -4.729744   -4.388687
     36          7           0       -2.913435   -3.027094   -2.369273
     37          1           0       -3.351196   -2.625100   -1.536640
     38          6           0       -1.628428   -3.660757   -2.049894
     39          1           0       -1.751408   -4.750931   -2.087458
     40          6           0       -1.326303   -3.221328   -0.597747
     41          6           0       -0.527245   -3.233831   -3.035730
     42          1           0        0.360619   -3.863195   -2.923119
     43          1           0       -0.222428   -2.197962   -2.865356
     44          1           0       -0.890698   -3.365478   -4.057413
     45          8           0       -2.160703   -2.577729    0.040366
     46          7           0       -0.115448   -3.579356   -0.104437
     47          1           0        0.566672   -3.888831   -0.786446
     48          6           0        0.481542   -2.803262    0.983350
     49          1           0       -0.321851   -2.545762    1.678366
     50          6           0        1.077873   -1.522953    0.354248
     51          6           0        1.566223   -3.630419    1.696275
     52          1           0        2.368281   -3.864169    0.984242
     53          1           0        1.136450   -4.586304    2.008826
     54          8           0        1.439601   -1.513491   -0.819965
     55          6           0        2.156540   -2.921978    2.916909
     56          1           0        2.656870   -1.987739    2.646640
     57          1           0        1.354035   -2.645850    3.617706
     58          6           0        3.139398   -3.814538    3.674971
     59          7           0        3.975233   -3.130269    4.509020
     60          1           0        3.926980   -2.127026    4.614613
     61          1           0        4.612340   -3.654831    5.091599
     62          8           0        3.166023   -5.030277    3.550045
     63          7           0        1.181868   -0.453306    1.182217
     64          1           0        1.037581   -0.572144    2.178848
     65          6           0        1.937363    0.730744    0.824056
     66          1           0        2.565161    0.471747   -0.034783
     67          6           0        2.830770    1.089853    2.029818
     68          6           0        1.000415    1.906920    0.410477
     69          1           0        1.614164    2.751376    0.076970
     70          1           0        0.446962    2.239460    1.296578
     71          8           0        2.709885    0.502259    3.111778
     72          6           0        0.049392    1.463646   -0.675423
     73          6           0        0.426642    1.490277   -2.023472
     74          1           0        1.375584    1.938241   -2.307348
     75          6           0       -1.175889    0.876633   -0.337715
     76          1           0       -1.488591    0.844569    0.701506
     77          6           0       -0.367225    0.899692   -3.006528
     78          1           0       -0.051417    0.878061   -4.045584
     79          6           0       -1.985889    0.291849   -1.307235
     80          1           0       -2.922039   -0.180540   -1.031190
     81          8           0       -2.315270   -0.378715   -3.605333
     82          1           0       -2.533686   -1.268364   -3.256685
     83          6           0       -1.556787    0.281037   -2.631966
     84          7           0        3.718900    2.070666    1.808333
     85          1           0        3.774642    2.575365    0.926106
     86          6           0        4.623717    2.586892    2.822879
     87          1           0        4.053284    2.772164    3.741625
     88          6           0        5.156302    3.924060    2.263025
     89          6           0        5.762708    1.599929    3.128125
     90          1           0        6.419484    1.988198    3.912695
     91          1           0        5.336603    0.651211    3.464626
     92          1           0        6.363388    1.423853    2.230049
     93          8           0        4.909733    4.261460    1.099019
     94          7           0        5.906741    4.641077    3.111177
     95          1           0        6.059813    4.362183    4.076447
     96          6           0        6.581995    5.887255    2.760678
     97          1           0        6.991703    5.804796    1.751206
     98          6           0        7.709124    6.086527    3.800527
     99          6           0        5.567133    7.053331    2.836824
    100          1           0        5.225979    7.112398    3.878867
    101          1           0        4.700747    6.760901    2.232897
    102          8           0        8.758413    6.669738    3.369426
    103          6           0        6.019882    8.439737    2.343686
    104          1           0        5.136250    9.094745    2.350148
    105          1           0        6.337746    8.375272    1.295565
    106          6           0        7.158358    9.139221    3.107577
    107          1           0        7.237804   10.181445    2.774191
    108          1           0        8.097914    8.632634    2.907483
    109          7           0        6.925486    9.132064    4.562131
    110          1           0        5.976850    9.322285    4.856324
    111          7           0        9.023506    8.394162    5.272269
    112          1           0        9.619979    8.245952    6.076288
    113          1           0        9.109171    7.654473    4.481259
    114          7           0        7.445640    9.124048    6.823159
    115          1           0        7.798622    8.503669    7.539393
    116          1           0        6.528172    9.503960    7.010318
    117          6           0        7.804792    8.850096    5.534849
    118          8           0        7.450903    5.754189    4.974859
 ---------------------------------------------------------------------

 SCF Done:  E(RB3LYP) =  -2837.81149263     A.U. after    1 cycles

 Alpha  occ. eigenvalues --  -19.27127 -19.27017 -19.25981 -19.22569 -19.20862
 Alpha  occ. eigenvalues --  -19.18252 -19.18228 -19.16570 -19.15429 -19.13106
 Alpha  occ. eigenvalues --  -19.12473 -14.57689 -14.49328 -14.46515 -14.45249
 Alpha  occ. eigenvalues --  -14.45088 -14.43735 -14.42419 -14.41831 -14.41122
 Alpha  occ. eigenvalues --  -14.40046 -14.39922 -10.42957 -10.40333 -10.39486
 Alpha  occ. eigenvalues --  -10.39282 -10.38184 -10.37544 -10.35280 -10.35214
 Alpha  occ. eigenvalues --  -10.34019 -10.33580 -10.33324 -10.32696 -10.32330
 Alpha  occ. eigenvalues --  -10.30581 -10.30217 -10.30128 -10.29719 -10.29013
 Alpha  occ. eigenvalues --  -10.28635 -10.28231 -10.26483 -10.26477 -10.26365
 Alpha  occ. eigenvalues --  -10.26345 -10.26200 -10.26198 -10.26169 -10.26054
 Alpha  occ. eigenvalues --  -10.25983 -10.25796 -10.25215 -10.24798 -10.24785
 Alpha  occ. eigenvalues --  -10.24748 -10.23513 -10.23405  -1.18590  -1.15624
 Alpha  occ. eigenvalues --   -1.14701  -1.13931  -1.12647  -1.11435  -1.10483
 Alpha  occ. eigenvalues --   -1.09668  -1.08967  -1.08254  -1.07266  -1.06192
 Alpha  occ. eigenvalues --   -1.05845  -1.02667  -1.00577  -0.99239  -0.98822
 Alpha  occ. eigenvalues --   -0.98513  -0.97966  -0.96296  -0.95902  -0.94602
 Alpha  occ. eigenvalues --   -0.92705  -0.92182  -0.90049  -0.87530  -0.86147
 Alpha  occ. eigenvalues --   -0.85261  -0.84939  -0.84539  -0.82895  -0.82157
 Alpha  occ. eigenvalues --   -0.82041  -0.80067  -0.79242  -0.78604  -0.77827
 Alpha  occ. eigenvalues --   -0.75048  -0.73915  -0.73339  -0.73199  -0.73077
 Alpha  occ. eigenvalues --   -0.72438  -0.71634  -0.71011  -0.70709  -0.70300
 Alpha  occ. eigenvalues --   -0.69384  -0.68731  -0.68055  -0.66840  -0.66628
 Alpha  occ. eigenvalues --   -0.66542  -0.65768  -0.65499  -0.65248  -0.64939
 Alpha  occ. eigenvalues --   -0.64182  -0.63931  -0.62744  -0.62381  -0.62199
 Alpha  occ. eigenvalues --   -0.61845  -0.61650  -0.61534  -0.60154  -0.59087
 Alpha  occ. eigenvalues --   -0.58666  -0.58146  -0.58047  -0.57732  -0.57393
 Alpha  occ. eigenvalues --   -0.56800  -0.56193  -0.56021  -0.55636  -0.55062
 Alpha  occ. eigenvalues --   -0.55023  -0.54682  -0.53885  -0.53859  -0.53703
 Alpha  occ. eigenvalues --   -0.53352  -0.53026  -0.52656  -0.52472  -0.52109
 Alpha  occ. eigenvalues --   -0.52006  -0.51934  -0.51588  -0.51115  -0.50920
 Alpha  occ. eigenvalues --   -0.50891  -0.50685  -0.50122  -0.49902  -0.49750
 Alpha  occ. eigenvalues --   -0.49619  -0.49372  -0.49237  -0.48846  -0.48659
 Alpha  occ. eigenvalues --   -0.48523  -0.48306  -0.47758  -0.47514  -0.47385
 Alpha  occ. eigenvalues --   -0.47217  -0.47067  -0.46821  -0.46617  -0.46209
 Alpha  occ. eigenvalues --   -0.46047  -0.45823  -0.45317  -0.45223  -0.44896
 Alpha  occ. eigenvalues --   -0.44808  -0.44367  -0.44197  -0.43741  -0.43583
 Alpha  occ. eigenvalues --   -0.43066  -0.43005  -0.42786  -0.42339  -0.42321
 Alpha  occ. eigenvalues --   -0.42151  -0.41993  -0.41670  -0.41582  -0.41390
 Alpha  occ. eigenvalues --   -0.41100  -0.41050  -0.40873  -0.40796  -0.40186
 Alpha  occ. eigenvalues --   -0.40018  -0.39818  -0.39720  -0.39068  -0.38925
 Alpha  occ. eigenvalues --   -0.37736  -0.36886  -0.35644  -0.35579  -0.35051
 Alpha  occ. eigenvalues --   -0.34265  -0.33315  -0.32946  -0.32556  -0.32077
 Alpha  occ. eigenvalues --   -0.31663  -0.31519  -0.30936  -0.30720  -0.30307
 Alpha  occ. eigenvalues --   -0.30068  -0.29255  -0.28512  -0.27297  -0.26618
 Alpha virt. eigenvalues --   -0.12245  -0.08875  -0.08440  -0.07570  -0.07055
 Alpha virt. eigenvalues --   -0.06581  -0.05444  -0.04428  -0.04312  -0.03961
 Alpha virt. eigenvalues --   -0.03568  -0.02353  -0.02166  -0.01466  -0.01378

 Mulliken charges:
               1
     1  N   -0.754760
     2  H    0.428328
     3  H    0.407658
     4  H    0.423726
     5  C   -0.132092
     6  H    0.217465
     7  C    0.645982
     8  C    0.083978
     9  H    0.175507
    10  O   -0.523972
    11  C   -0.446961
    12  H    0.167241
    13  H    0.149432
    14  H    0.204802
    15  O   -0.664522
    16  H    0.476769
    17  N   -0.598990
    18  H    0.359991
    19  C   -0.063961
    20  H    0.184561
    21  C    0.595141
    22  C   -0.075952
    23  H    0.148797
    24  O   -0.519795
    25  C   -0.255588
    26  H    0.128904
    27  H    0.146003
    28  C   -0.478433
    29  H    0.153868
    30  H    0.161642
    31  H    0.179359
    32  C   -0.453085
    33  H    0.159216
    34  H    0.160954
    35  H    0.150789
    36  N   -0.668153
    37  H    0.379360
    38  C   -0.042545
    39  H    0.198840
    40  C    0.632508
    41  C   -0.495434
    42  H    0.168629
    43  H    0.203733
    44  H    0.177605
    45  O   -0.538659
    46  N   -0.580951
    47  H    0.346503
    48  C   -0.092333
    49  H    0.184053
    50  C    0.627426
    51  C   -0.264850
    52  H    0.158753
    53  H    0.190950
    54  O   -0.539331
    55  C   -0.408281
    56  H    0.182070
    57  H    0.166700
    58  C    0.606410
    59  N   -0.755969
    60  H    0.349740
    61  H    0.346272
    62  O   -0.504086
    63  N   -0.598361
    64  H    0.352121
    65  C   -0.064215
    66  H    0.195770
    67  C    0.632863
    68  C   -0.366833
    69  H    0.163870
    70  H    0.159060
    71  O   -0.560572
    72  C    0.183138
    73  C   -0.169920
    74  H    0.141607
    75  C   -0.179242
    76  H    0.141571
    77  C   -0.163302
    78  H    0.142983
    79  C   -0.159823
    80  H    0.138211
    81  O   -0.766714
    82  H    0.464402
    83  C    0.323552
    84  N   -0.616986
    85  H    0.360449
    86  C   -0.037997
    87  H    0.174217
    88  C    0.621468
    89  C   -0.448790
    90  H    0.163293
    91  H    0.171244
    92  H    0.164609
    93  O   -0.559352
    94  N   -0.616002
    95  H    0.347989
    96  C   -0.008313
    97  H    0.165705
    98  C    0.581922
    99  C   -0.264115
   100  H    0.125227
   101  H    0.163842
   102  O   -0.621388
   103  C   -0.297529
   104  H    0.135291
   105  H    0.168595
   106  C   -0.152908
   107  H    0.162852
   108  H    0.230576
   109  N   -0.592918
   110  H    0.336383
   111  N   -0.747841
   112  H    0.340562
   113  H    0.428984
   114  N   -0.758600
   115  H    0.366863
   116  H    0.349927
   117  C    0.772228
   118  O   -0.590614
 Sum of Mulliken charges =   1.00000

 Dipole moment (field-independent basis, Debye):
    X=            -12.0928    Y=             12.3209    Z=            -12.0230  Tot=             21.0379
 Quadrupole moment (field-independent basis, Debye-Ang):
   XX=           -225.5021   YY=           -207.1102   ZZ=           -113.6488
   XY=             82.6550   XZ=            171.6421   YZ=             93.6821

 Normal termination of Gaussian 16 at Mon Jun 27 02:45:24 2022.
