 Gaussian 16, Revision C.01,
 Gaussian 16:  ES64L-G16RevC.01  3-Jul-2019

 ----------------------------------------------------------------------
 # B3LYP/6-31G* empiricaldispersion=gd3 guess=read geom=check nosymm in
 tegral(ultrafinegrid)
 ----------------------------------------------------------------------

 -----------------------------------------------------
 Candidate Structure: Conf:34 Charge calc in gas phase
 -----------------------------------------------------
 Structure from the checkpoint file:  "conf-34.chk"
 Charge =  1 Multiplicity = 1

                          Input orientation:
 ---------------------------------------------------------------------
 Center     Atomic      Atomic             Coordinates (Angstroms)
 Number     Number       Type             X           Y           Z
 ---------------------------------------------------------------------
      1          7           0       -4.737225   -4.555714   -4.931482
      2          1           0       -5.170050   -3.923972   -5.646249
      3          1           0       -5.305779   -5.378682   -4.727840
      4          1           0       -3.800580   -4.823126   -5.295386
      5          6           0       -4.449608   -3.664049   -3.751209
      6          1           0       -5.217731   -3.802031   -2.986363
      7          6           0       -4.505004   -2.245130   -4.371024
      8          6           0       -3.024670   -4.037109   -3.250423
      9          1           0       -2.696324   -3.265176   -2.549882
     10          8           0       -4.856968   -2.130011   -5.550704
     11          6           0       -2.987751   -5.392957   -2.557514
     12          1           0       -3.631611   -5.395744   -1.672068
     13          1           0       -3.302607   -6.203247   -3.226538
     14          1           0       -1.962541   -5.609519   -2.247740
     15          8           0       -2.187585   -4.093032   -4.397974
     16          1           0       -1.939394   -3.170203   -4.630412
     17          7           0       -4.113793   -1.236534   -3.588184
     18          1           0       -3.749123   -1.431568   -2.650574
     19          6           0       -3.683682    0.025835   -4.179272
     20          1           0       -4.427594    0.344970   -4.917334
     21          6           0       -2.336175   -0.260925   -4.902520
     22          6           0       -3.582521    1.087214   -3.038183
     23          1           0       -2.851781    0.696776   -2.317591
     24          8           0       -1.745193   -1.341695   -4.747087
     25          6           0       -4.943626    1.213172   -2.308163
     26          1           0       -5.448999    0.243036   -2.276975
     27          1           0       -5.592770    1.880462   -2.891199
     28          6           0       -3.110182    2.474362   -3.504837
     29          1           0       -3.694710    2.820300   -4.368578
     30          1           0       -2.046058    2.521502   -3.747671
     31          1           0       -3.275908    3.205058   -2.708507
     32          6           0       -4.800831    1.729810   -0.872411
     33          1           0       -5.782876    1.852131   -0.404597
     34          1           0       -4.293195    2.699323   -0.824908
     35          1           0       -4.228746    1.017194   -0.265618
     36          7           0       -1.804107    0.728420   -5.648650
     37          1           0       -2.297397    1.611352   -5.688167
     38          6           0       -0.351699    0.797668   -5.940863
     39          1           0       -0.036064   -0.205631   -6.236700
     40          6           0        0.280359    1.201134   -4.585877
     41          6           0       -0.072759    1.811217   -7.039359
     42          1           0        0.996011    1.821376   -7.270392
     43          1           0       -0.346745    2.818010   -6.710102
     44          1           0       -0.625324    1.555135   -7.947706
     45          8           0        0.440369    2.381310   -4.275246
     46          7           0        0.463078    0.177160   -3.710008
     47          1           0        0.216888   -0.747022   -4.043879
     48          6           0        0.291449    0.392365   -2.263415
     49          1           0       -0.313666    1.304019   -2.158441
     50          6           0        1.620104    0.664065   -1.528820
     51          6           0       -0.464365   -0.800837   -1.669259
     52          1           0        0.222611   -1.647202   -1.564546
     53          1           0       -1.248854   -1.089432   -2.371369
     54          8           0        1.968836   -0.025925   -0.566356
     55          6           0       -1.112384   -0.498074   -0.313703
     56          1           0       -0.360285   -0.521295    0.479030
     57          1           0       -1.539262    0.515569   -0.317421
     58          6           0       -2.282398   -1.432851   -0.032440
     59          7           0       -2.400293   -1.879055    1.233632
     60          1           0       -1.734577   -1.639557    1.954011
     61          1           0       -3.195603   -2.452178    1.483143
     62          8           0       -3.111062   -1.747619   -0.902600
     63          7           0        2.314981    1.714427   -2.009375
     64          1           0        1.893436    2.279079   -2.744190
     65          6           0        3.571990    2.157011   -1.400560
     66          1           0        4.067325    1.250895   -1.040270
     67          6           0        3.254380    3.075531   -0.196388
     68          6           0        4.442452    2.866632   -2.436797
     69          1           0        3.958294    3.817481   -2.690581
     70          1           0        4.441348    2.248896   -3.345421
     71          8           0        3.341179    4.295545   -0.261959
     72          6           0        5.877381    3.140589   -2.014302
     73          6           0        6.465807    2.606277   -0.860105
     74          1           0        5.887829    2.014271   -0.159152
     75          6           0        6.670032    3.954535   -2.833216
     76          1           0        6.241851    4.386420   -3.735187
     77          6           0        7.795021    2.869158   -0.535138
     78          1           0        8.233375    2.474269    0.373035
     79          6           0        7.995164    4.243964   -2.510158
     80          1           0        8.581821    4.901580   -3.149277
     81          8           0        9.836082    4.009722   -0.935353
     82          1           0       10.274661    4.526417   -1.629459
     83          6           0        8.556465    3.706926   -1.348197
     84          7           0        2.823685    2.417532    0.915865
     85          1           0        2.873239    1.405538    0.913162
     86          6           0        2.753521    3.111604    2.188950
     87          1           0        2.041645    3.939820    2.094350
     88          6           0        4.142545    3.697421    2.527115
     89          6           0        2.303253    2.146648    3.289897
     90          1           0        2.219582    2.668559    4.247436
     91          1           0        1.329066    1.709920    3.043987
     92          1           0        3.034247    1.338713    3.407736
     93          8           0        5.170128    3.162599    2.103161
     94          7           0        4.137455    4.797998    3.307981
     95          1           0        3.280045    5.177286    3.690396
     96          6           0        5.374676    5.463011    3.671873
     97          1           0        6.163364    4.735937    3.526612
     98          6           0        5.382349    5.832341    5.150826
     99          6           0        5.632803    6.723253    2.806286
    100          1           0        6.545819    7.206911    3.175321
    101          1           0        4.807673    7.421351    2.996384
    102          8           0        6.605985    5.894792    5.678041
    103          6           0        5.744170    6.445572    1.295863
    104          1           0        5.525339    7.369596    0.744675
    105          1           0        4.975992    5.729222    0.987278
    106          6           0        7.129083    5.954007    0.834012
    107          1           0        7.848009    6.778486    0.852785
    108          1           0        7.056149    5.602717   -0.200654
    109          7           0        7.673252    4.887127    1.684145
    110          1           0        6.980319    4.208282    1.985552
    111          7           0        9.822449    5.638246    1.981272
    112          1           0       10.628355    5.803280    2.568817
    113          1           0       10.023274    5.249899    1.064392
    114          7           0        8.535325    4.914268    3.863198
    115          1           0        9.431979    4.947936    4.351106
    116          1           0        7.285928    5.539116    5.025399
    117          6           0        8.686312    5.134817    2.588192
    118          8           0        4.367880    6.086400    5.767580
 ---------------------------------------------------------------------

 SCF Done:  E(RB3LYP) =  -2837.82060558     A.U. after    2 cycles

 Alpha  occ. eigenvalues --  -19.27380 -19.26262 -19.25426 -19.24062 -19.23076
 Alpha  occ. eigenvalues --  -19.22794 -19.20107 -19.19292 -19.17183 -19.16515
 Alpha  occ. eigenvalues --  -19.14957 -14.58483 -14.48840 -14.48499 -14.47758
 Alpha  occ. eigenvalues --  -14.46285 -14.43676 -14.41075 -14.40723 -14.38570
 Alpha  occ. eigenvalues --  -14.36608 -14.33719 -10.42931 -10.42006 -10.41349
 Alpha  occ. eigenvalues --  -10.39424 -10.39385 -10.37616 -10.36975 -10.35801
 Alpha  occ. eigenvalues --  -10.34724 -10.34016 -10.33569 -10.33377 -10.33250
 Alpha  occ. eigenvalues --  -10.32582 -10.31099 -10.30281 -10.30192 -10.29615
 Alpha  occ. eigenvalues --  -10.29287 -10.29191 -10.29185 -10.28062 -10.28058
 Alpha  occ. eigenvalues --  -10.27816 -10.26663 -10.25971 -10.24986 -10.24902
 Alpha  occ. eigenvalues --  -10.24385 -10.23994 -10.23614 -10.23513 -10.23052
 Alpha  occ. eigenvalues --  -10.22548 -10.22421 -10.21153  -1.19014  -1.16895
 Alpha  occ. eigenvalues --   -1.15456  -1.15270  -1.14443  -1.12111  -1.11681
 Alpha  occ. eigenvalues --   -1.10622  -1.10599  -1.09359  -1.07944  -1.05970
 Alpha  occ. eigenvalues --   -1.05056  -1.02994  -1.02739  -1.02401  -1.01147
 Alpha  occ. eigenvalues --   -1.00154  -0.97791  -0.97089  -0.93041  -0.91727
 Alpha  occ. eigenvalues --   -0.90886  -0.90378  -0.89887  -0.88278  -0.88178
 Alpha  occ. eigenvalues --   -0.85771  -0.85324  -0.83549  -0.83328  -0.82474
 Alpha  occ. eigenvalues --   -0.81621  -0.80980  -0.79141  -0.78145  -0.76948
 Alpha  occ. eigenvalues --   -0.76203  -0.74290  -0.74023  -0.73762  -0.73451
 Alpha  occ. eigenvalues --   -0.72303  -0.72156  -0.71714  -0.70750  -0.70479
 Alpha  occ. eigenvalues --   -0.70021  -0.68784  -0.68149  -0.68050  -0.66803
 Alpha  occ. eigenvalues --   -0.66388  -0.66009  -0.65155  -0.64509  -0.64339
 Alpha  occ. eigenvalues --   -0.64206  -0.63486  -0.63376  -0.62492  -0.62405
 Alpha  occ. eigenvalues --   -0.62285  -0.61730  -0.61551  -0.60991  -0.60071
 Alpha  occ. eigenvalues --   -0.59660  -0.59098  -0.58909  -0.58732  -0.58456
 Alpha  occ. eigenvalues --   -0.57848  -0.56865  -0.56639  -0.56452  -0.55635
 Alpha  occ. eigenvalues --   -0.55448  -0.55255  -0.55078  -0.54831  -0.54589
 Alpha  occ. eigenvalues --   -0.54326  -0.53327  -0.52808  -0.52590  -0.52402
 Alpha  occ. eigenvalues --   -0.52245  -0.51796  -0.51677  -0.51514  -0.51433
 Alpha  occ. eigenvalues --   -0.51342  -0.51024  -0.50812  -0.50358  -0.50059
 Alpha  occ. eigenvalues --   -0.49550  -0.49427  -0.48946  -0.48589  -0.48249
 Alpha  occ. eigenvalues --   -0.48129  -0.47931  -0.47837  -0.47711  -0.47440
 Alpha  occ. eigenvalues --   -0.47277  -0.47083  -0.46862  -0.46687  -0.46573
 Alpha  occ. eigenvalues --   -0.46472  -0.46376  -0.46210  -0.46014  -0.45687
 Alpha  occ. eigenvalues --   -0.45296  -0.45159  -0.44869  -0.44644  -0.44232
 Alpha  occ. eigenvalues --   -0.44054  -0.43519  -0.43226  -0.43160  -0.43004
 Alpha  occ. eigenvalues --   -0.42870  -0.42530  -0.42295  -0.41639  -0.41416
 Alpha  occ. eigenvalues --   -0.41159  -0.40408  -0.40361  -0.40149  -0.40015
 Alpha  occ. eigenvalues --   -0.39805  -0.39375  -0.38882  -0.38515  -0.38134
 Alpha  occ. eigenvalues --   -0.37948  -0.37876  -0.37706  -0.37369  -0.37020
 Alpha  occ. eigenvalues --   -0.36045  -0.35706  -0.34757  -0.33006  -0.32408
 Alpha  occ. eigenvalues --   -0.31940  -0.31418  -0.30590  -0.30223  -0.29844
 Alpha  occ. eigenvalues --   -0.29601  -0.28815  -0.28320  -0.26515  -0.25917
 Alpha virt. eigenvalues --   -0.12420  -0.12120  -0.09673  -0.08992  -0.08631
 Alpha virt. eigenvalues --   -0.07024  -0.04849  -0.03833  -0.03700  -0.03504
 Alpha virt. eigenvalues --   -0.03074  -0.02606  -0.02509  -0.02130  -0.01218

 Mulliken charges:
               1
     1  N   -0.751743
     2  H    0.427351
     3  H    0.408672
     4  H    0.421925
     5  C   -0.124121
     6  H    0.218347
     7  C    0.634247
     8  C    0.064693
     9  H    0.204649
    10  O   -0.536599
    11  C   -0.452759
    12  H    0.166888
    13  H    0.142218
    14  H    0.201125
    15  O   -0.658909
    16  H    0.461453
    17  N   -0.631058
    18  H    0.424825
    19  C   -0.083780
    20  H    0.200246
    21  C    0.659285
    22  C   -0.104873
    23  H    0.145078
    24  O   -0.581460
    25  C   -0.261323
    26  H    0.152349
    27  H    0.152989
    28  C   -0.521439
    29  H    0.152613
    30  H    0.182850
    31  H    0.183282
    32  C   -0.463541
    33  H    0.168553
    34  H    0.158999
    35  H    0.145733
    36  N   -0.582452
    37  H    0.357218
    38  C   -0.060574
    39  H    0.187222
    40  C    0.608067
    41  C   -0.469565
    42  H    0.186226
    43  H    0.183995
    44  H    0.173835
    45  O   -0.525900
    46  N   -0.586531
    47  H    0.361237
    48  C   -0.078898
    49  H    0.178348
    50  C    0.652642
    51  C   -0.312361
    52  H    0.183649
    53  H    0.159510
    54  O   -0.551259
    55  C   -0.380504
    56  H    0.194580
    57  H    0.185942
    58  C    0.620855
    59  N   -0.725630
    60  H    0.366330
    61  H    0.357812
    62  O   -0.562384
    63  N   -0.624717
    64  H    0.374372
    65  C   -0.074295
    66  H    0.179926
    67  C    0.652342
    68  C   -0.363578
    69  H    0.176758
    70  H    0.152479
    71  O   -0.520213
    72  C    0.178021
    73  C   -0.190438
    74  H    0.148632
    75  C   -0.187481
    76  H    0.124441
    77  C   -0.148785
    78  H    0.150537
    79  C   -0.193610
    80  H    0.123889
    81  O   -0.658533
    82  H    0.411177
    83  C    0.349688
    84  N   -0.609003
    85  H    0.354469
    86  C   -0.032775
    87  H    0.164030
    88  C    0.650435
    89  C   -0.477312
    90  H    0.179265
    91  H    0.146707
    92  H    0.173511
    93  O   -0.549115
    94  N   -0.592667
    95  H    0.340514
    96  C   -0.102078
    97  H    0.187110
    98  C    0.608897
    99  C   -0.259864
   100  H    0.154351
   101  H    0.146515
   102  O   -0.609049
   103  C   -0.306274
   104  H    0.136945
   105  H    0.192796
   106  C   -0.143211
   107  H    0.154226
   108  H    0.158860
   109  N   -0.614524
   110  H    0.379757
   111  N   -0.748385
   112  H    0.324327
   113  H    0.356947
   114  N   -0.713955
   115  H    0.281654
   116  H    0.463051
   117  C    0.602791
   118  O   -0.487728
 Sum of Mulliken charges =   1.00000

 Dipole moment (field-independent basis, Debye):
    X=            -14.4995    Y=            -12.2348    Z=            -20.6398  Tot=             28.0344
 Quadrupole moment (field-independent basis, Debye-Ang):
   XX=           -192.2666   YY=           -277.9961   ZZ=           -279.7000
   XY=             85.9032   XZ=             24.5747   YZ=             -0.5698

 Normal termination of Gaussian 16 at Mon Jun 27 02:46:01 2022.
