 Gaussian 16, Revision C.01,
 Gaussian 16:  ES64L-G16RevC.01  3-Jul-2019

 ----------------------------------------------------------------------
 # B3LYP/6-31G* empiricaldispersion=gd3 guess=read geom=check nosymm in
 tegral(ultrafinegrid)
 ----------------------------------------------------------------------

 ------------------------------------------------------
 Candidate Structure: Conf:450 Charge calc in gas phase
 ------------------------------------------------------
 Structure from the checkpoint file:  "conf-450.chk"
 Charge =  1 Multiplicity = 1

                          Input orientation:
 ---------------------------------------------------------------------
 Center     Atomic      Atomic             Coordinates (Angstroms)
 Number     Number       Type             X           Y           Z
 ---------------------------------------------------------------------
      1          7           0       -9.631457    0.614713   -3.951943
      2          1           0       -9.949400    0.901182   -3.022248
      3          1           0      -10.372537    0.072754   -4.429068
      4          1           0       -9.340550    1.473560   -4.478778
      5          6           0       -8.387406   -0.230781   -3.923876
      6          1           0       -8.345198   -0.765757   -2.971619
      7          6           0       -7.235427    0.782116   -4.112809
      8          6           0       -8.491218   -1.227558   -5.120055
      9          1           0       -8.315222   -0.657224   -6.039816
     10          8           0       -7.516838    1.882608   -4.603891
     11          6           0       -7.499539   -2.378477   -5.014132
     12          1           0       -6.462844   -2.029836   -5.026288
     13          1           0       -7.656939   -2.947556   -4.088442
     14          1           0       -7.638549   -3.051515   -5.864617
     15          8           0       -9.847788   -1.668030   -5.209048
     16          1           0       -9.948758   -2.506655   -4.728484
     17          7           0       -6.026628    0.350243   -3.777709
     18          1           0       -5.867364   -0.591564   -3.421521
     19          6           0       -4.778491    1.067837   -4.029733
     20          1           0       -4.906119    1.664066   -4.936972
     21          6           0       -3.736685   -0.046073   -4.228851
     22          6           0       -4.430098    2.005390   -2.828236
     23          1           0       -5.318735    2.644743   -2.726542
     24          8           0       -3.979004   -1.188545   -3.813498
     25          6           0       -3.223747    2.933382   -3.081236
     26          1           0       -2.289982    2.356910   -3.072998
     27          1           0       -3.154981    3.595831   -2.209765
     28          6           0       -4.238250    1.210316   -1.528222
     29          1           0       -3.361803    0.556962   -1.586353
     30          1           0       -5.106225    0.585469   -1.292115
     31          1           0       -4.086401    1.895781   -0.688896
     32          6           0       -3.319620    3.803017   -4.341615
     33          1           0       -2.500827    4.528239   -4.370695
     34          1           0       -4.263869    4.359884   -4.368273
     35          1           0       -3.264092    3.225268   -5.274690
     36          7           0       -2.573102    0.303871   -4.808637
     37          1           0       -2.417163    1.281645   -5.019767
     38          6           0       -1.359123   -0.518921   -4.633604
     39          1           0       -1.657394   -1.558412   -4.788334
     40          6           0       -0.901653   -0.291252   -3.177598
     41          6           0       -0.266729   -0.117179   -5.614121
     42          1           0        0.606145   -0.757199   -5.453032
     43          1           0        0.042812    0.916467   -5.430133
     44          1           0       -0.612734   -0.223630   -6.646768
     45          8           0       -0.216099    0.674395   -2.864174
     46          7           0       -1.362611   -1.204132   -2.278832
     47          1           0       -2.076898   -1.857714   -2.575815
     48          6           0       -1.044546   -1.089759   -0.856427
     49          1           0       -1.285230   -0.079724   -0.507109
     50          6           0        0.464051   -1.251089   -0.599148
     51          6           0       -1.860835   -2.128239   -0.075645
     52          1           0       -1.619524   -3.130774   -0.454072
     53          1           0       -2.927924   -1.956978   -0.259304
     54          8           0        0.986266   -0.744187    0.385739
     55          6           0       -1.620893   -2.085176    1.435300
     56          1           0       -0.625655   -2.460341    1.686366
     57          1           0       -1.651480   -1.045046    1.786208
     58          6           0       -2.721150   -2.843215    2.177131
     59          7           0       -2.322105   -3.496124    3.304062
     60          1           0       -1.366346   -3.495766    3.639741
     61          1           0       -3.039665   -3.912189    3.881627
     62          8           0       -3.887891   -2.843820    1.794657
     63          7           0        1.105508   -2.045129   -1.494337
     64          1           0        0.645296   -2.255539   -2.372336
     65          6           0        2.545833   -2.129114   -1.559595
     66          1           0        2.953845   -1.331298   -0.930706
     67          6           0        2.936682   -1.914330   -3.033498
     68          6           0        3.064912   -3.502187   -1.042192
     69          1           0        4.156986   -3.452264   -0.950157
     70          1           0        2.841852   -4.265622   -1.797144
     71          8           0        2.108021   -2.077630   -3.938959
     72          6           0        2.417166   -3.874862    0.271816
     73          6           0        2.743364   -3.201497    1.457070
     74          1           0        3.509981   -2.431835    1.442996
     75          6           0        1.404412   -4.837313    0.319518
     76          1           0        1.123611   -5.364641   -0.588809
     77          6           0        2.088136   -3.478946    2.652659
     78          1           0        2.339364   -2.954928    3.568966
     79          6           0        0.732441   -5.127213    1.508171
     80          1           0       -0.063163   -5.869483    1.524323
     81          8           0        0.428407   -4.655791    3.874872
     82          1           0       -0.107847   -5.461247    3.797486
     83          6           0        1.079103   -4.444115    2.675089
     84          7           0        4.220855   -1.589240   -3.248643
     85          1           0        4.888427   -1.474311   -2.489812
     86          6           0        4.794009   -1.405640   -4.571443
     87          1           0        4.485636   -2.244463   -5.207337
     88          6           0        6.323661   -1.424534   -4.379287
     89          6           0        4.332738   -0.087271   -5.217170
     90          1           0        4.750199    0.020835   -6.223349
     91          1           0        3.241782   -0.078432   -5.282250
     92          1           0        4.659729    0.763949   -4.611331
     93          8           0        6.819477   -1.334399   -3.250629
     94          7           0        7.040625   -1.506302   -5.510562
     95          1           0        6.614322   -1.599981   -6.429396
     96          6           0        8.494493   -1.405548   -5.566976
     97          1           0        8.823738   -0.598698   -4.905558
     98          6           0        8.846579   -1.066829   -7.039734
     99          6           0        9.121729   -2.746180   -5.086169
    100          1           0        8.896409   -3.516451   -5.836460
    101          1           0        8.569258   -3.014114   -4.181049
    102          8           0        9.962168   -0.465213   -7.228274
    103          6           0       10.630108   -2.747893   -4.736493
    104          1           0       10.784163   -3.333129   -3.822349
    105          1           0       10.968747   -1.730625   -4.500808
    106          6           0       11.565705   -3.351508   -5.797231
    107          1           0       11.217271   -4.356628   -6.066539
    108          1           0       12.579704   -3.444827   -5.387687
    109          7           0       11.587847   -2.500074   -6.987980
    110          1           0       11.174309   -1.551301   -6.854441
    111          7           0       11.790432   -4.184331   -8.596962
    112          1           0       11.806044   -4.435429   -9.574795
    113          1           0       12.432582   -4.696356   -8.009585
    114          7           0       11.036873   -2.034188   -9.163831
    115          1           0       10.834648   -2.343548  -10.103166
    116          1           0       10.499501   -1.229329   -8.772669
    117          6           0       11.471690   -2.909704   -8.249703
    118          8           0        8.060499   -1.458658   -7.918973
 ---------------------------------------------------------------------

 SCF Done:  E(RB3LYP) =  -2837.80239927     A.U. after    3 cycles

 Alpha  occ. eigenvalues --  -19.30621 -19.26348 -19.23600 -19.22707 -19.18274
 Alpha  occ. eigenvalues --  -19.16619 -19.15378 -19.15356 -19.15208 -19.12690
 Alpha  occ. eigenvalues --  -19.12126 -14.59719 -14.49399 -14.46220 -14.45259
 Alpha  occ. eigenvalues --  -14.42793 -14.42152 -14.42029 -14.40360 -14.39576
 Alpha  occ. eigenvalues --  -14.39490 -14.38834 -10.43468 -10.40557 -10.39926
 Alpha  occ. eigenvalues --  -10.39805 -10.39431 -10.35278 -10.34315 -10.33501
 Alpha  occ. eigenvalues --  -10.33031 -10.32627 -10.32377 -10.31395 -10.31144
 Alpha  occ. eigenvalues --  -10.30196 -10.29685 -10.29053 -10.28985 -10.28596
 Alpha  occ. eigenvalues --  -10.27789 -10.27694 -10.26361 -10.25783 -10.25769
 Alpha  occ. eigenvalues --  -10.25285 -10.24670 -10.24377 -10.24199 -10.24157
 Alpha  occ. eigenvalues --  -10.23874 -10.23811 -10.23653 -10.23597 -10.23424
 Alpha  occ. eigenvalues --  -10.23105 -10.22749 -10.22181  -1.19342  -1.17730
 Alpha  occ. eigenvalues --   -1.14533  -1.13422  -1.11169  -1.10365  -1.08638
 Alpha  occ. eigenvalues --   -1.08497  -1.07292  -1.06984  -1.06943  -1.06165
 Alpha  occ. eigenvalues --   -1.05656  -1.02503  -0.99343  -0.98360  -0.97050
 Alpha  occ. eigenvalues --   -0.96858  -0.96460  -0.96379  -0.95197  -0.94214
 Alpha  occ. eigenvalues --   -0.93578  -0.90527  -0.89994  -0.86137  -0.85763
 Alpha  occ. eigenvalues --   -0.84442  -0.84264  -0.83421  -0.82544  -0.81379
 Alpha  occ. eigenvalues --   -0.80258  -0.79408  -0.78493  -0.77762  -0.77682
 Alpha  occ. eigenvalues --   -0.76311  -0.74254  -0.73323  -0.72367  -0.72328
 Alpha  occ. eigenvalues --   -0.72174  -0.71163  -0.70815  -0.70195  -0.69555
 Alpha  occ. eigenvalues --   -0.69384  -0.67683  -0.66712  -0.66556  -0.65989
 Alpha  occ. eigenvalues --   -0.65821  -0.65188  -0.64624  -0.64505  -0.63566
 Alpha  occ. eigenvalues --   -0.63008  -0.62831  -0.62197  -0.62025  -0.61723
 Alpha  occ. eigenvalues --   -0.61218  -0.60253  -0.59701  -0.59420  -0.59141
 Alpha  occ. eigenvalues --   -0.58539  -0.58204  -0.57881  -0.57435  -0.57043
 Alpha  occ. eigenvalues --   -0.56781  -0.56580  -0.55961  -0.55561  -0.54719
 Alpha  occ. eigenvalues --   -0.54071  -0.53830  -0.53483  -0.53211  -0.53007
 Alpha  occ. eigenvalues --   -0.52262  -0.52168  -0.52114  -0.51879  -0.51498
 Alpha  occ. eigenvalues --   -0.51193  -0.51138  -0.50859  -0.50658  -0.50361
 Alpha  occ. eigenvalues --   -0.50040  -0.49461  -0.49140  -0.48726  -0.48557
 Alpha  occ. eigenvalues --   -0.48389  -0.48159  -0.48120  -0.48084  -0.47871
 Alpha  occ. eigenvalues --   -0.47472  -0.47347  -0.46937  -0.46762  -0.46363
 Alpha  occ. eigenvalues --   -0.46014  -0.45499  -0.45208  -0.45161  -0.45056
 Alpha  occ. eigenvalues --   -0.45002  -0.44624  -0.44458  -0.44357  -0.44119
 Alpha  occ. eigenvalues --   -0.44006  -0.43843  -0.43629  -0.43256  -0.42758
 Alpha  occ. eigenvalues --   -0.42636  -0.42582  -0.42466  -0.41956  -0.41650
 Alpha  occ. eigenvalues --   -0.41339  -0.41222  -0.40820  -0.40751  -0.40489
 Alpha  occ. eigenvalues --   -0.40343  -0.40241  -0.39910  -0.39245  -0.38900
 Alpha  occ. eigenvalues --   -0.38665  -0.38533  -0.38438  -0.38334  -0.37526
 Alpha  occ. eigenvalues --   -0.37317  -0.36847  -0.36204  -0.35729  -0.33336
 Alpha  occ. eigenvalues --   -0.32354  -0.31444  -0.30996  -0.30869  -0.30773
 Alpha  occ. eigenvalues --   -0.30200  -0.29467  -0.29337  -0.29237  -0.28837
 Alpha  occ. eigenvalues --   -0.28513  -0.28044  -0.26858  -0.26709  -0.26309
 Alpha virt. eigenvalues --   -0.12373  -0.10358  -0.08785  -0.05641  -0.04991
 Alpha virt. eigenvalues --   -0.04893  -0.04647  -0.04629  -0.04173  -0.02972
 Alpha virt. eigenvalues --   -0.02204  -0.01832  -0.01627  -0.01359  -0.01339

 Mulliken charges:
               1
     1  N   -0.745109
     2  H    0.416755
     3  H    0.426432
     4  H    0.426464
     5  C   -0.143015
     6  H    0.205999
     7  C    0.649791
     8  C    0.128185
     9  H    0.193240
    10  O   -0.535659
    11  C   -0.510487
    12  H    0.202918
    13  H    0.167269
    14  H    0.207464
    15  O   -0.627769
    16  H    0.424022
    17  N   -0.599458
    18  H    0.374575
    19  C   -0.086209
    20  H    0.195138
    21  C    0.637477
    22  C   -0.077593
    23  H    0.150379
    24  O   -0.566353
    25  C   -0.297448
    26  H    0.175205
    27  H    0.164425
    28  C   -0.480713
    29  H    0.184847
    30  H    0.136861
    31  H    0.172562
    32  C   -0.471025
    33  H    0.179169
    34  H    0.161284
    35  H    0.130368
    36  N   -0.594525
    37  H    0.358498
    38  C   -0.064311
    39  H    0.176838
    40  C    0.631944
    41  C   -0.492704
    42  H    0.224321
    43  H    0.173568
    44  H    0.154161
    45  O   -0.518489
    46  N   -0.652935
    47  H    0.354783
    48  C   -0.011165
    49  H    0.174265
    50  C    0.634283
    51  C   -0.306097
    52  H    0.149185
    53  H    0.170174
    54  O   -0.532599
    55  C   -0.380081
    56  H    0.191571
    57  H    0.181373
    58  C    0.598086
    59  N   -0.782832
    60  H    0.370099
    61  H    0.333902
    62  O   -0.532869
    63  N   -0.598848
    64  H    0.345089
    65  C   -0.058999
    66  H    0.187219
    67  C    0.638736
    68  C   -0.364677
    69  H    0.159557
    70  H    0.151303
    71  O   -0.568383
    72  C    0.187015
    73  C   -0.156378
    74  H    0.140591
    75  C   -0.190040
    76  H    0.126516
    77  C   -0.153235
    78  H    0.150057
    79  C   -0.191111
    80  H    0.124725
    81  O   -0.656083
    82  H    0.412695
    83  C    0.327526
    84  N   -0.614086
    85  H    0.358600
    86  C   -0.034416
    87  H    0.170008
    88  C    0.619921
    89  C   -0.452639
    90  H    0.159109
    91  H    0.178002
    92  H    0.164040
    93  O   -0.557164
    94  N   -0.619434
    95  H    0.350944
    96  C   -0.021947
    97  H    0.166777
    98  C    0.582708
    99  C   -0.276633
   100  H    0.138134
   101  H    0.175984
   102  O   -0.645594
   103  C   -0.302869
   104  H    0.157368
   105  H    0.171912
   106  C   -0.149197
   107  H    0.157218
   108  H    0.163965
   109  N   -0.602993
   110  H    0.406476
   111  N   -0.753867
   112  H    0.359505
   113  H    0.366438
   114  N   -0.757111
   115  H    0.344687
   116  H    0.413048
   117  C    0.756160
   118  O   -0.564763
 Sum of Mulliken charges =   1.00000

 Dipole moment (field-independent basis, Debye):
    X=            -20.4011    Y=            -11.1679    Z=            -23.8515  Tot=             33.3140
 Quadrupole moment (field-independent basis, Debye-Ang):
   XX=            156.8099   YY=           -273.5809   ZZ=           -179.3021
   XY=            -95.7544   XZ=              2.6455   YZ=             61.7144

 Normal termination of Gaussian 16 at Mon Jun 27 02:46:10 2022.
