 Gaussian 16, Revision C.01,
 Gaussian 16:  ES64L-G16RevC.01  3-Jul-2019

 ----------------------------------------------------------------------
 # B3LYP/6-31G* empiricaldispersion=gd3 guess=read geom=check nosymm in
 tegral(ultrafinegrid)
 ----------------------------------------------------------------------

 ------------------------------------------------------
 Candidate Structure: Conf:234 Charge calc in gas phase
 ------------------------------------------------------
 Structure from the checkpoint file:  "conf-234.chk"
 Charge =  1 Multiplicity = 1

                          Input orientation:
 ---------------------------------------------------------------------
 Center     Atomic      Atomic             Coordinates (Angstroms)
 Number     Number       Type             X           Y           Z
 ---------------------------------------------------------------------
      1          7           0       -8.387423   -1.909101   -8.526432
      2          1           0       -8.576496   -2.865784   -8.836636
      3          1           0       -8.656576   -1.236186   -9.264885
      4          1           0       -8.889021   -1.751980   -7.618336
      5          6           0       -6.943078   -1.664551   -8.183904
      6          1           0       -6.319660   -2.346617   -8.767526
      7          6           0       -6.867359   -1.905968   -6.659497
      8          6           0       -6.638693   -0.177304   -8.548643
      9          1           0       -7.124922    0.451489   -7.793358
     10          8           0       -7.925823   -1.844712   -6.020785
     11          6           0       -5.146955    0.123258   -8.605820
     12          1           0       -4.654671   -0.032802   -7.641192
     13          1           0       -4.648357   -0.513098   -9.348953
     14          1           0       -5.003792    1.168905   -8.892178
     15          8           0       -7.313865    0.121704   -9.772605
     16          1           0       -6.701311    0.002906  -10.517541
     17          7           0       -5.652165   -2.100939   -6.163097
     18          1           0       -4.817398   -2.032667   -6.746445
     19          6           0       -5.323219   -2.070092   -4.737787
     20          1           0       -6.066315   -1.444174   -4.236553
     21          6           0       -3.931913   -1.401138   -4.694535
     22          6           0       -5.354830   -3.503394   -4.127494
     23          1           0       -6.344981   -3.890943   -4.407243
     24          8           0       -3.269776   -1.283892   -5.735651
     25          6           0       -5.275364   -3.533273   -2.586981
     26          1           0       -4.271079   -3.249884   -2.249212
     27          1           0       -5.399376   -4.581982   -2.289355
     28          6           0       -4.278418   -4.402766   -4.750157
     29          1           0       -3.271617   -4.060164   -4.484737
     30          1           0       -4.346576   -4.428303   -5.843268
     31          1           0       -4.385429   -5.429303   -4.385891
     32          6           0       -6.328555   -2.687413   -1.860838
     33          1           0       -6.297883   -2.880471   -0.784444
     34          1           0       -7.339513   -2.916853   -2.218573
     35          1           0       -6.171296   -1.609104   -1.989672
     36          7           0       -3.511697   -0.999399   -3.490291
     37          1           0       -4.050966   -1.179807   -2.646691
     38          6           0       -2.146212   -0.572589   -3.216078
     39          1           0       -1.472452   -1.138433   -3.868975
     40          6           0       -1.889150   -0.952634   -1.743491
     41          6           0       -1.949607    0.931187   -3.463051
     42          1           0       -0.918207    1.231628   -3.251986
     43          1           0       -2.618389    1.514068   -2.821545
     44          1           0       -2.171135    1.157886   -4.509666
     45          8           0       -2.827096   -1.272225   -1.005164
     46          7           0       -0.603642   -0.906114   -1.358181
     47          1           0        0.115072   -0.526843   -1.970146
     48          6           0       -0.160910   -1.051879    0.021508
     49          1           0       -0.983676   -0.748865    0.678939
     50          6           0        1.036596   -0.095007    0.185940
     51          6           0        0.268530   -2.497474    0.347815
     52          1           0        0.729644   -2.512305    1.343027
     53          1           0        1.039116   -2.811834   -0.363653
     54          8           0        1.622501    0.363590   -0.800555
     55          6           0       -0.885860   -3.504190    0.302299
     56          1           0       -1.619463   -3.290647    1.088636
     57          1           0       -1.420674   -3.415698   -0.649310
     58          6           0       -0.351758   -4.934524    0.376802
     59          7           0       -1.049385   -5.787366    1.186081
     60          1           0       -1.730669   -5.456382    1.852493
     61          1           0       -0.679187   -6.720204    1.310637
     62          8           0        0.610202   -5.296951   -0.285867
     63          7           0        1.400496    0.154450    1.454455
     64          1           0        0.898553   -0.216905    2.257757
     65          6           0        2.573225    0.934491    1.802915
     66          1           0        3.411175    0.617229    1.172634
     67          6           0        2.846602    0.635424    3.288375
     68          6           0        2.325633    2.456065    1.575349
     69          1           0        1.653908    2.820191    2.360760
     70          1           0        1.797382    2.542563    0.621081
     71          8           0        1.943101    0.192691    4.005592
     72          6           0        3.593128    3.276499    1.518472
     73          6           0        4.051435    4.017318    2.615289
     74          1           0        3.491670    4.002122    3.546189
     75          6           0        4.355004    3.294189    0.342337
     76          1           0        4.019863    2.717018   -0.516335
     77          6           0        5.219927    4.772677    2.542183
     78          1           0        5.565625    5.337819    3.399823
     79          6           0        5.526083    4.045399    0.251657
     80          1           0        6.100923    4.056308   -0.672451
     81          8           0        7.092984    5.579423    1.304037
     82          1           0        7.517901    5.469806    0.438346
     83          6           0        5.946499    4.789682    1.353537
     84          7           0        4.076883    0.938480    3.724151
     85          1           0        4.800799    1.305371    3.110776
     86          6           0        4.463722    0.892862    5.128113
     87          1           0        3.649524    1.320916    5.723857
     88          6           0        5.732852    1.766051    5.236171
     89          6           0        4.736055   -0.542204    5.604023
     90          1           0        5.010393   -0.546161    6.663590
     91          1           0        3.835904   -1.147461    5.467250
     92          1           0        5.557367   -0.980695    5.027642
     93          8           0        6.421394    1.952037    4.222086
     94          7           0        5.984228    2.221215    6.469621
     95          1           0        5.246360    2.181426    7.177013
     96          6           0        6.983357    3.198833    6.902307
     97          1           0        7.701282    2.696670    7.566454
     98          6           0        6.157734    4.271196    7.774942
     99          6           0        7.698408    4.001467    5.843942
    100          1           0        8.121898    4.781685    6.473083
    101          1           0        6.920719    4.460147    5.226905
    102          8           0        6.554540    5.476801    7.728287
    103          6           0        8.847291    3.596397    4.935171
    104          1           0        8.511561    2.994574    4.088316
    105          1           0        9.621001    3.030990    5.470324
    106          6           0        9.465931    4.936154    4.479132
    107          1           0       10.249275    4.797042    3.726535
    108          1           0        9.908004    5.463404    5.329828
    109          7           0        8.474306    5.845427    3.869396
    110          1           0        8.207045    5.620457    2.912872
    111          7           0        7.651105    7.062581    5.742529
    112          1           0        7.250929    7.962048    5.982554
    113          1           0        7.393335    6.324162    6.458545
    114          7           0        7.140371    7.694055    3.565319
    115          1           0        6.270945    8.110298    3.870920
    116          1           0        7.190803    7.490933    2.573580
    117          6           0        7.754576    6.827655    4.425584
    118          8           0        5.190534    3.794563    8.391959
 ---------------------------------------------------------------------

 SCF Done:  E(RB3LYP) =  -2837.76623789     A.U. after    1 cycles

 Alpha  occ. eigenvalues --  -19.30719 -19.27274 -19.26406 -19.22025 -19.19936
 Alpha  occ. eigenvalues --  -19.18400 -19.16456 -19.15826 -19.14437 -19.09443
 Alpha  occ. eigenvalues --  -19.08493 -14.59802 -14.49243 -14.45312 -14.44674
 Alpha  occ. eigenvalues --  -14.44467 -14.43514 -14.42014 -14.41935 -14.40738
 Alpha  occ. eigenvalues --  -14.40120 -14.37735 -10.43467 -10.40645 -10.40431
 Alpha  occ. eigenvalues --  -10.39998 -10.38939 -10.36932 -10.35348 -10.34017
 Alpha  occ. eigenvalues --  -10.33785 -10.33570 -10.32089 -10.32072 -10.31546
 Alpha  occ. eigenvalues --  -10.31356 -10.30260 -10.29170 -10.29007 -10.28488
 Alpha  occ. eigenvalues --  -10.27180 -10.26837 -10.26454 -10.26368 -10.26144
 Alpha  occ. eigenvalues --  -10.25912 -10.25490 -10.25438 -10.25418 -10.25373
 Alpha  occ. eigenvalues --  -10.25274 -10.25216 -10.24988 -10.24932 -10.23557
 Alpha  occ. eigenvalues --  -10.22070 -10.21332 -10.20430  -1.19408  -1.17792
 Alpha  occ. eigenvalues --   -1.14289  -1.14013  -1.13426  -1.11784  -1.10178
 Alpha  occ. eigenvalues --   -1.08602  -1.08335  -1.07773  -1.06032  -1.06007
 Alpha  occ. eigenvalues --   -1.02155  -1.02091  -1.00221  -0.98724  -0.98396
 Alpha  occ. eigenvalues --   -0.96736  -0.96166  -0.95211  -0.94668  -0.93601
 Alpha  occ. eigenvalues --   -0.93215  -0.92001  -0.90577  -0.87233  -0.85895
 Alpha  occ. eigenvalues --   -0.85281  -0.84452  -0.83867  -0.82560  -0.81447
 Alpha  occ. eigenvalues --   -0.81160  -0.80332  -0.79824  -0.77857  -0.77744
 Alpha  occ. eigenvalues --   -0.77115  -0.74494  -0.74312  -0.73054  -0.72449
 Alpha  occ. eigenvalues --   -0.72407  -0.72104  -0.70806  -0.70021  -0.69778
 Alpha  occ. eigenvalues --   -0.69131  -0.68586  -0.67377  -0.66879  -0.66292
 Alpha  occ. eigenvalues --   -0.66091  -0.65815  -0.65362  -0.64863  -0.64451
 Alpha  occ. eigenvalues --   -0.63750  -0.63471  -0.62856  -0.62419  -0.61833
 Alpha  occ. eigenvalues --   -0.61522  -0.61392  -0.59546  -0.59278  -0.58654
 Alpha  occ. eigenvalues --   -0.58596  -0.58419  -0.57647  -0.57625  -0.57447
 Alpha  occ. eigenvalues --   -0.56669  -0.56336  -0.56087  -0.55587  -0.55179
 Alpha  occ. eigenvalues --   -0.54378  -0.54287  -0.53805  -0.53442  -0.53258
 Alpha  occ. eigenvalues --   -0.52790  -0.52294  -0.52060  -0.51957  -0.51688
 Alpha  occ. eigenvalues --   -0.51557  -0.51203  -0.51085  -0.51009  -0.50733
 Alpha  occ. eigenvalues --   -0.50587  -0.50486  -0.50138  -0.49865  -0.49612
 Alpha  occ. eigenvalues --   -0.49152  -0.48812  -0.48512  -0.48362  -0.48122
 Alpha  occ. eigenvalues --   -0.48025  -0.47984  -0.47897  -0.47822  -0.47269
 Alpha  occ. eigenvalues --   -0.46640  -0.46608  -0.46220  -0.45604  -0.45290
 Alpha  occ. eigenvalues --   -0.45211  -0.45132  -0.44915  -0.44697  -0.44530
 Alpha  occ. eigenvalues --   -0.44083  -0.44058  -0.43843  -0.43654  -0.43108
 Alpha  occ. eigenvalues --   -0.42897  -0.42461  -0.41998  -0.41857  -0.41532
 Alpha  occ. eigenvalues --   -0.41365  -0.41254  -0.41177  -0.40840  -0.40524
 Alpha  occ. eigenvalues --   -0.40425  -0.40201  -0.39939  -0.39819  -0.39578
 Alpha  occ. eigenvalues --   -0.38698  -0.38374  -0.38027  -0.37860  -0.36779
 Alpha  occ. eigenvalues --   -0.36107  -0.35985  -0.35391  -0.35026  -0.34089
 Alpha  occ. eigenvalues --   -0.33387  -0.33265  -0.32573  -0.32037  -0.31704
 Alpha  occ. eigenvalues --   -0.31524  -0.30767  -0.29871  -0.29644  -0.28882
 Alpha  occ. eigenvalues --   -0.28711  -0.27876  -0.24544  -0.23476  -0.22678
 Alpha virt. eigenvalues --   -0.12440  -0.10469  -0.07796  -0.06905  -0.06377
 Alpha virt. eigenvalues --   -0.05934  -0.05719  -0.05592  -0.04884  -0.04111
 Alpha virt. eigenvalues --   -0.03036  -0.02307  -0.02120  -0.01842  -0.01594

 Mulliken charges:
               1
     1  N   -0.745122
     2  H    0.415547
     3  H    0.426212
     4  H    0.426304
     5  C   -0.142026
     6  H    0.202622
     7  C    0.645060
     8  C    0.128180
     9  H    0.192861
    10  O   -0.534958
    11  C   -0.514549
    12  H    0.209386
    13  H    0.163622
    14  H    0.205278
    15  O   -0.628506
    16  H    0.423553
    17  N   -0.596596
    18  H    0.371847
    19  C   -0.090784
    20  H    0.196140
    21  C    0.630769
    22  C   -0.071987
    23  H    0.148079
    24  O   -0.561882
    25  C   -0.286693
    26  H    0.161951
    27  H    0.155983
    28  C   -0.464151
    29  H    0.166768
    30  H    0.136402
    31  H    0.169287
    32  C   -0.461935
    33  H    0.173766
    34  H    0.155468
    35  H    0.140964
    36  N   -0.616868
    37  H    0.382766
    38  C   -0.056720
    39  H    0.189793
    40  C    0.624541
    41  C   -0.449239
    42  H    0.171497
    43  H    0.166543
    44  H    0.175280
    45  O   -0.551115
    46  N   -0.602193
    47  H    0.359404
    48  C   -0.071441
    49  H    0.179805
    50  C    0.628727
    51  C   -0.264238
    52  H    0.158372
    53  H    0.186748
    54  O   -0.556736
    55  C   -0.353155
    56  H    0.141707
    57  H    0.181503
    58  C    0.591077
    59  N   -0.746098
    60  H    0.337217
    61  H    0.345866
    62  O   -0.504774
    63  N   -0.620072
    64  H    0.359560
    65  C   -0.031327
    66  H    0.176994
    67  C    0.613907
    68  C   -0.359389
    69  H    0.163145
    70  H    0.179907
    71  O   -0.553074
    72  C    0.147444
    73  C   -0.189002
    74  H    0.155574
    75  C   -0.192817
    76  H    0.158738
    77  C   -0.139388
    78  H    0.138635
    79  C   -0.178759
    80  H    0.133385
    81  O   -0.692208
    82  H    0.425791
    83  C    0.341875
    84  N   -0.616368
    85  H    0.361219
    86  C   -0.037851
    87  H    0.176135
    88  C    0.608979
    89  C   -0.444515
    90  H    0.162995
    91  H    0.177158
    92  H    0.156915
    93  O   -0.570298
    94  N   -0.610372
    95  H    0.352595
    96  C   -0.071934
    97  H    0.149229
    98  C    0.602143
    99  C   -0.269858
   100  H    0.149622
   101  H    0.131638
   102  O   -0.609049
   103  C   -0.259602
   104  H    0.177754
   105  H    0.145449
   106  C   -0.175502
   107  H    0.159934
   108  H    0.188067
   109  N   -0.591888
   110  H    0.386766
   111  N   -0.772066
   112  H    0.348118
   113  H    0.443591
   114  N   -0.753810
   115  H    0.356660
   116  H    0.367271
   117  C    0.717813
   118  O   -0.570983
 Sum of Mulliken charges =   1.00000

 Dipole moment (field-independent basis, Debye):
    X=            -20.9092    Y=              0.2177    Z=            -38.5820  Tot=             43.8841
 Quadrupole moment (field-independent basis, Debye-Ang):
   XX=            -48.6925   YY=           -242.7038   ZZ=           -143.7379
   XY=            139.4141   XZ=            212.0132   YZ=             22.0361

 Normal termination of Gaussian 16 at Mon Jun 27 02:45:25 2022.
