 Gaussian 16, Revision C.01,
 Gaussian 16:  ES64L-G16RevC.01  3-Jul-2019

 ----------------------------------------------------------------------
 # B3LYP/6-31G* empiricaldispersion=gd3 guess=read geom=check nosymm in
 tegral(ultrafinegrid)
 ----------------------------------------------------------------------

 ------------------------------------------------------
 Candidate Structure: Conf:584 Charge calc in gas phase
 ------------------------------------------------------
 Structure from the checkpoint file:  "conf-584.chk"
 Charge =  1 Multiplicity = 1

                          Input orientation:
 ---------------------------------------------------------------------
 Center     Atomic      Atomic             Coordinates (Angstroms)
 Number     Number       Type             X           Y           Z
 ---------------------------------------------------------------------
      1          7           0       -1.118044   -7.584529   -5.518910
      2          1           0       -0.385438   -8.084659   -5.008569
      3          1           0       -1.016676   -7.743802   -6.535975
      4          1           0       -2.048758   -7.888584   -5.141737
      5          6           0       -1.106315   -6.099045   -5.280930
      6          1           0       -0.085710   -5.785492   -5.047211
      7          6           0       -2.102569   -5.893499   -4.118139
      8          6           0       -1.611028   -5.429252   -6.596970
      9          1           0       -2.689387   -5.615334   -6.666285
     10          8           0       -2.939220   -6.784665   -3.925688
     11          6           0       -1.328892   -3.933718   -6.645216
     12          1           0       -1.843460   -3.386765   -5.849003
     13          1           0       -0.252469   -3.736090   -6.553979
     14          1           0       -1.674490   -3.536311   -7.603678
     15          8           0       -1.038724   -6.140547   -7.697655
     16          1           0       -0.230267   -5.686932   -7.988796
     17          7           0       -1.996299   -4.743286   -3.463148
     18          1           0       -1.337326   -4.031944   -3.771086
     19          6           0       -2.993917   -4.214533   -2.529786
     20          1           0       -3.893039   -4.826999   -2.630134
     21          6           0       -3.248428   -2.776840   -3.025281
     22          6           0       -2.473615   -4.289128   -1.061878
     23          1           0       -2.321891   -5.364197   -0.884404
     24          8           0       -2.365789   -2.181400   -3.656624
     25          6           0       -3.500901   -3.780538   -0.035546
     26          1           0       -3.674151   -2.710379   -0.188850
     27          1           0       -3.048459   -3.848121    0.958114
     28          6           0       -1.125575   -3.572929   -0.883632
     29          1           0       -1.192159   -2.493012   -1.049168
     30          1           0       -0.356745   -3.967920   -1.557828
     31          1           0       -0.765997   -3.725697    0.138986
     32          6           0       -4.835816   -4.530011    0.008254
     33          1           0       -5.426318   -4.156780    0.849264
     34          1           0       -4.683400   -5.606991    0.148726
     35          1           0       -5.439750   -4.413137   -0.904234
     36          7           0       -4.444155   -2.236615   -2.724443
     37          1           0       -5.074705   -2.763229   -2.132522
     38          6           0       -4.787903   -0.833373   -2.986103
     39          1           0       -4.111008   -0.486992   -3.771431
     40          6           0       -4.520164    0.041128   -1.733666
     41          6           0       -6.236708   -0.720956   -3.449075
     42          1           0       -6.472193    0.316164   -3.690874
     43          1           0       -6.929424   -1.040248   -2.662968
     44          1           0       -6.395221   -1.335163   -4.340169
     45          8           0       -5.331627    0.882496   -1.349365
     46          7           0       -3.344799   -0.224645   -1.115743
     47          1           0       -2.607155   -0.691763   -1.640231
     48          6           0       -2.835019    0.534871    0.017290
     49          1           0       -3.323447    1.514250    0.019389
     50          6           0       -1.326246    0.709603   -0.241610
     51          6           0       -3.086877   -0.190415    1.354610
     52          1           0       -2.588872    0.361912    2.161656
     53          1           0       -2.623748   -1.181371    1.312126
     54          8           0       -0.735168   -0.032831   -1.030299
     55          6           0       -4.582391   -0.344410    1.672494
     56          1           0       -5.029499    0.632330    1.889582
     57          1           0       -5.104262   -0.742198    0.796987
     58          6           0       -4.795963   -1.352325    2.797013
     59          7           0       -5.373044   -0.874607    3.932743
     60          1           0       -5.630880    0.093137    4.050059
     61          1           0       -5.510026   -1.509563    4.707318
     62          8           0       -4.460033   -2.527224    2.677287
     63          7           0       -0.730483    1.713913    0.432093
     64          1           0       -1.255750    2.290308    1.079246
     65          6           0        0.558626    2.259961    0.042309
     66          1           0        1.125301    1.449127   -0.418847
     67          6           0        1.225216    2.790156    1.318376
     68          6           0        0.393615    3.448333   -0.980187
     69          1           0        1.325420    3.538580   -1.549802
     70          1           0        0.274215    4.372315   -0.403240
     71          8           0        0.526306    3.281243    2.208657
     72          6           0       -0.804537    3.258602   -1.879480
     73          6           0       -0.762259    2.437389   -3.013106
     74          1           0        0.187348    2.015259   -3.331568
     75          6           0       -2.049445    3.766866   -1.484931
     76          1           0       -2.108471    4.416241   -0.614057
     77          6           0       -1.923794    2.088297   -3.699501
     78          1           0       -1.892866    1.415627   -4.550919
     79          6           0       -3.221373    3.425610   -2.155507
     80          1           0       -4.182748    3.802018   -1.816031
     81          8           0       -4.293040    2.120543   -3.892473
     82          1           0       -5.042852    2.228317   -3.282223
     83          6           0       -3.160936    2.556119   -3.248848
     84          7           0        2.565990    2.727584    1.348524
     85          1           0        3.116169    2.353688    0.579483
     86          6           0        3.368366    3.226695    2.454717
     87          1           0        3.002281    4.221328    2.735070
     88          6           0        4.816483    3.329943    1.936819
     89          6           0        3.288275    2.297840    3.680709
     90          1           0        3.923598    2.661266    4.494608
     91          1           0        2.252439    2.246080    4.026230
     92          1           0        3.625206    1.291828    3.407920
     93          8           0        5.131385    2.843198    0.839687
     94          7           0        5.660542    3.948428    2.776270
     95          1           0        5.393724    4.103646    3.765093
     96          6           0        7.099040    3.719283    2.794176
     97          1           0        7.317064    2.724426    2.386119
     98          6           0        7.544939    3.780949    4.323430
     99          6           0        7.902020    4.757173    2.014692
    100          1           0        8.956866    4.516376    2.191505
    101          1           0        7.709959    5.728227    2.506184
    102          8           0        8.774917    3.739999    4.499501
    103          6           0        7.580167    4.840743    0.517765
    104          1           0        6.585835    5.273651    0.362987
    105          1           0        7.538641    3.836312    0.085905
    106          6           0        8.631460    5.645806   -0.254963
    107          1           0        8.317683    5.833460   -1.289105
    108          1           0        9.585755    5.101813   -0.261995
    109          7           0        8.844124    6.950681    0.409272
    110          1           0        8.532546    6.989718    1.374639
    111          7           0       10.275829    7.830770   -1.190370
    112          1           0       10.608037    8.647047   -1.682784
    113          1           0       10.324584    6.944852   -1.671298
    114          7           0        9.615341    9.133875    0.606012
    115          1           0       10.416884    9.740276    0.499715
    116          1           0        9.081558    9.251857    1.456690
    117          6           0        9.577199    7.951400   -0.048116
    118          8           0        6.586732    3.901307    5.133938
 ---------------------------------------------------------------------

 SCF Done:  E(RB3LYP) =  -2837.74002437     A.U. after    1 cycles

 Alpha  occ. eigenvalues --  -19.30141 -19.25754 -19.22565 -19.21469 -19.18380
 Alpha  occ. eigenvalues --  -19.17616 -19.16360 -19.15169 -19.14045 -19.05999
 Alpha  occ. eigenvalues --  -19.05005 -14.59250 -14.50717 -14.50289 -14.49744
 Alpha  occ. eigenvalues --  -14.48822 -14.45578 -14.41880 -14.41381 -14.41267
 Alpha  occ. eigenvalues --  -14.39355 -14.35609 -10.46568 -10.42884 -10.40052
 Alpha  occ. eigenvalues --  -10.39378 -10.38439 -10.35415 -10.34645 -10.34303
 Alpha  occ. eigenvalues --  -10.33256 -10.32518 -10.32494 -10.30661 -10.30636
 Alpha  occ. eigenvalues --  -10.30513 -10.29629 -10.29203 -10.28279 -10.27545
 Alpha  occ. eigenvalues --  -10.25949 -10.25289 -10.25001 -10.24932 -10.24583
 Alpha  occ. eigenvalues --  -10.24442 -10.24234 -10.24152 -10.24006 -10.23965
 Alpha  occ. eigenvalues --  -10.23899 -10.23889 -10.23847 -10.23682 -10.23433
 Alpha  occ. eigenvalues --  -10.22067 -10.21729 -10.20066  -1.18814  -1.17185
 Alpha  occ. eigenvalues --   -1.15103  -1.13482  -1.12867  -1.10711  -1.10077
 Alpha  occ. eigenvalues --   -1.09296  -1.08183  -1.07166  -1.05535  -1.05231
 Alpha  occ. eigenvalues --   -1.04094  -1.03464  -1.01952  -0.99066  -0.98587
 Alpha  occ. eigenvalues --   -0.98083  -0.95801  -0.95698  -0.93025  -0.92939
 Alpha  occ. eigenvalues --   -0.90324  -0.90178  -0.89405  -0.86849  -0.86149
 Alpha  occ. eigenvalues --   -0.85075  -0.84377  -0.83435  -0.81426  -0.80547
 Alpha  occ. eigenvalues --   -0.79678  -0.79327  -0.78803  -0.78605  -0.77106
 Alpha  occ. eigenvalues --   -0.77084  -0.76390  -0.73758  -0.72780  -0.72773
 Alpha  occ. eigenvalues --   -0.72152  -0.71773  -0.71129  -0.70952  -0.69667
 Alpha  occ. eigenvalues --   -0.69120  -0.68849  -0.68280  -0.67404  -0.66897
 Alpha  occ. eigenvalues --   -0.66000  -0.65048  -0.64631  -0.64163  -0.64021
 Alpha  occ. eigenvalues --   -0.63811  -0.63645  -0.63620  -0.63380  -0.63120
 Alpha  occ. eigenvalues --   -0.62433  -0.61222  -0.60643  -0.59233  -0.59036
 Alpha  occ. eigenvalues --   -0.58997  -0.58642  -0.58584  -0.57993  -0.57826
 Alpha  occ. eigenvalues --   -0.56919  -0.56429  -0.55777  -0.55492  -0.55227
 Alpha  occ. eigenvalues --   -0.54917  -0.54251  -0.53835  -0.53347  -0.53284
 Alpha  occ. eigenvalues --   -0.52750  -0.52494  -0.51945  -0.51516  -0.50999
 Alpha  occ. eigenvalues --   -0.50670  -0.50545  -0.50505  -0.50394  -0.50103
 Alpha  occ. eigenvalues --   -0.49611  -0.49552  -0.48936  -0.48780  -0.48590
 Alpha  occ. eigenvalues --   -0.48525  -0.47894  -0.47678  -0.47343  -0.47242
 Alpha  occ. eigenvalues --   -0.47045  -0.46885  -0.46827  -0.46609  -0.46236
 Alpha  occ. eigenvalues --   -0.46165  -0.45850  -0.45404  -0.45112  -0.44590
 Alpha  occ. eigenvalues --   -0.44467  -0.44166  -0.43746  -0.43610  -0.43456
 Alpha  occ. eigenvalues --   -0.43319  -0.43003  -0.42876  -0.42683  -0.42572
 Alpha  occ. eigenvalues --   -0.42075  -0.41687  -0.41191  -0.41115  -0.40873
 Alpha  occ. eigenvalues --   -0.40857  -0.40417  -0.40256  -0.40184  -0.40003
 Alpha  occ. eigenvalues --   -0.39859  -0.39410  -0.39167  -0.39097  -0.38620
 Alpha  occ. eigenvalues --   -0.38434  -0.37912  -0.37624  -0.37269  -0.36975
 Alpha  occ. eigenvalues --   -0.36627  -0.36211  -0.35417  -0.35067  -0.33567
 Alpha  occ. eigenvalues --   -0.32873  -0.32279  -0.32030  -0.31498  -0.30652
 Alpha  occ. eigenvalues --   -0.30024  -0.29678  -0.29348  -0.28780  -0.27959
 Alpha  occ. eigenvalues --   -0.27149  -0.26684  -0.21169  -0.20841  -0.19338
 Alpha virt. eigenvalues --   -0.11830  -0.10687  -0.09870  -0.07676  -0.06620
 Alpha virt. eigenvalues --   -0.05334  -0.05188  -0.05030  -0.04796  -0.04358
 Alpha virt. eigenvalues --   -0.03426  -0.02837  -0.02543  -0.02059  -0.01487

 Mulliken charges:
               1
     1  N   -0.744809
     2  H    0.415559
     3  H    0.425338
     4  H    0.426164
     5  C   -0.143067
     6  H    0.202225
     7  C    0.645027
     8  C    0.128157
     9  H    0.192587
    10  O   -0.532862
    11  C   -0.518721
    12  H    0.215805
    13  H    0.161457
    14  H    0.204256
    15  O   -0.629294
    16  H    0.422672
    17  N   -0.586556
    18  H    0.370737
    19  C   -0.098827
    20  H    0.193450
    21  C    0.629115
    22  C   -0.073217
    23  H    0.141013
    24  O   -0.554954
    25  C   -0.282860
    26  H    0.152020
    27  H    0.186349
    28  C   -0.487785
    29  H    0.197476
    30  H    0.121320
    31  H    0.168268
    32  C   -0.476602
    33  H    0.195602
    34  H    0.153064
    35  H    0.111391
    36  N   -0.590310
    37  H    0.353469
    38  C   -0.088024
    39  H    0.222256
    40  C    0.631987
    41  C   -0.446956
    42  H    0.179200
    43  H    0.158697
    44  H    0.153947
    45  O   -0.555097
    46  N   -0.626823
    47  H    0.386120
    48  C   -0.057165
    49  H    0.181484
    50  C    0.638871
    51  C   -0.272960
    52  H    0.158952
    53  H    0.178939
    54  O   -0.549849
    55  C   -0.347413
    56  H    0.146436
    57  H    0.177754
    58  C    0.589378
    59  N   -0.738137
    60  H    0.344957
    61  H    0.349490
    62  O   -0.515495
    63  N   -0.595682
    64  H    0.345514
    65  C   -0.041754
    66  H    0.177394
    67  C    0.628528
    68  C   -0.373541
    69  H    0.155224
    70  H    0.167556
    71  O   -0.555667
    72  C    0.162246
    73  C   -0.164159
    74  H    0.128412
    75  C   -0.204738
    76  H    0.135104
    77  C   -0.163172
    78  H    0.135282
    79  C   -0.182352
    80  H    0.138602
    81  O   -0.675478
    82  H    0.424210
    83  C    0.349934
    84  N   -0.615931
    85  H    0.346845
    86  C   -0.036633
    87  H    0.173869
    88  C    0.594492
    89  C   -0.463075
    90  H    0.193217
    91  H    0.173876
    92  H    0.149432
    93  O   -0.576819
    94  N   -0.609207
    95  H    0.361876
    96  C   -0.083088
    97  H    0.148372
    98  C    0.583080
    99  C   -0.286999
   100  H    0.172793
   101  H    0.115023
   102  O   -0.591170
   103  C   -0.291323
   104  H    0.166850
   105  H    0.190620
   106  C   -0.163979
   107  H    0.168418
   108  H    0.181851
   109  N   -0.589886
   110  H    0.373876
   111  N   -0.757590
   112  H    0.380680
   113  H    0.391861
   114  N   -0.758738
   115  H    0.378450
   116  H    0.386122
   117  C    0.817704
   118  O   -0.609539
 Sum of Mulliken charges =   1.00000

 Dipole moment (field-independent basis, Debye):
    X=              7.6278    Y=             -3.4138    Z=            -31.8648  Tot=             32.9424
 Quadrupole moment (field-independent basis, Debye-Ang):
   XX=           -124.4902   YY=             32.0402   ZZ=           -276.8157
   XY=            226.2347   XZ=           -122.5435   YZ=             87.0646

 Normal termination of Gaussian 16 at Mon Jun 27 02:45:25 2022.
