 Gaussian 16, Revision C.01,
 Gaussian 16:  ES64L-G16RevC.01  3-Jul-2019

 ----------------------------------------------------------------------
 # B3LYP/6-31G* empiricaldispersion=gd3 guess=read geom=check nosymm in
 tegral(ultrafinegrid)
 ----------------------------------------------------------------------

 ------------------------------------------------------
 Candidate Structure: Conf:448 Charge calc in gas phase
 ------------------------------------------------------
 Structure from the checkpoint file:  "conf-448.chk"
 Charge =  1 Multiplicity = 1

                          Input orientation:
 ---------------------------------------------------------------------
 Center     Atomic      Atomic             Coordinates (Angstroms)
 Number     Number       Type             X           Y           Z
 ---------------------------------------------------------------------
      1          7           0        0.519294   -3.900875    0.927371
      2          1           0        1.254628   -3.465592    1.574460
      3          1           0        0.876392   -4.828549    0.636400
      4          1           0       -0.435421   -3.972505    1.309907
      5          6           0        0.474047   -3.067664   -0.307511
      6          1           0        1.135920   -2.216055   -0.134727
      7          6           0       -0.979722   -2.601140   -0.494127
      8          6           0        1.016546   -3.928512   -1.511640
      9          1           0        0.160818   -4.412049   -1.995724
     10          8           0       -1.891197   -3.180437    0.099981
     11          6           0        1.769667   -3.056523   -2.512521
     12          1           0        1.137110   -2.257134   -2.914168
     13          1           0        2.646561   -2.610995   -2.028773
     14          1           0        2.112537   -3.672967   -3.347721
     15          8           0        1.814533   -4.988597   -1.016562
     16          1           0        2.627109   -4.591000   -0.606405
     17          7           0       -1.122995   -1.574713   -1.345349
     18          1           0       -0.306551   -1.076420   -1.690551
     19          6           0       -2.374640   -0.908646   -1.702310
     20          1           0       -3.032910   -1.638059   -2.186916
     21          6           0       -1.940527    0.153605   -2.740220
     22          6           0       -3.116248   -0.320295   -0.454413
     23          1           0       -3.375900   -1.200419    0.145093
     24          8           0       -0.757499    0.510574   -2.818590
     25          6           0       -4.431452    0.409486   -0.795802
     26          1           0       -4.228709    1.314634   -1.382822
     27          1           0       -4.844598    0.773063    0.152225
     28          6           0       -2.191123    0.577348    0.372337
     29          1           0       -1.781554    1.383815   -0.238042
     30          1           0       -1.354269    0.009445    0.790227
     31          1           0       -2.731718    1.050450    1.196518
     32          6           0       -5.498338   -0.459057   -1.477179
     33          1           0       -6.431439    0.099614   -1.601854
     34          1           0       -5.716816   -1.350204   -0.877279
     35          1           0       -5.204768   -0.819321   -2.473310
     36          7           0       -2.902009    0.637096   -3.553526
     37          1           0       -3.863626    0.376150   -3.384501
     38          6           0       -2.664738    1.714515   -4.526630
     39          1           0       -1.740284    1.467833   -5.057767
     40          6           0       -2.499585    3.043362   -3.748241
     41          6           0       -3.840958    1.797995   -5.492890
     42          1           0       -3.636548    2.543079   -6.266951
     43          1           0       -4.740799    2.115318   -4.956790
     44          1           0       -4.016521    0.832192   -5.977165
     45          8           0       -3.471213    3.648922   -3.308884
     46          7           0       -1.207565    3.421812   -3.572317
     47          1           0       -0.484435    2.735512   -3.773257
     48          6           0       -0.793779    4.384667   -2.558395
     49          1           0       -1.219334    5.372129   -2.767861
     50          6           0        0.740927    4.382392   -2.600084
     51          6           0       -1.240725    3.875164   -1.159434
     52          1           0       -0.649661    2.975288   -0.959121
     53          1           0       -2.284656    3.568741   -1.248307
     54          8           0        1.338889    3.428728   -3.095366
     55          6           0       -1.156501    4.841726    0.030788
     56          1           0       -0.157435    5.263315    0.159299
     57          1           0       -1.876456    5.656259   -0.098551
     58          6           0       -1.552000    4.057066    1.284361
     59          7           0       -0.508429    3.722530    2.097455
     60          1           0        0.444999    4.008144    1.897068
     61          1           0       -0.715736    3.201607    2.938095
     62          8           0       -2.704542    3.699693    1.490411
     63          7           0        1.423307    5.389073   -1.955279
     64          1           0        0.886612    6.040702   -1.396373
     65          6           0        2.747383    5.003960   -1.453743
     66          1           0        3.219058    4.471433   -2.278651
     67          6           0        2.525548    4.039836   -0.271968
     68          6           0        3.711022    6.126526   -1.009194
     69          1           0        3.293042    6.672429   -0.157650
     70          1           0        3.869728    6.825596   -1.836833
     71          8           0        2.043324    4.450133    0.791649
     72          6           0        4.973118    5.364820   -0.629209
     73          6           0        5.168931    4.913178    0.682650
     74          1           0        4.583538    5.344945    1.488618
     75          6           0        5.746679    4.793777   -1.651760
     76          1           0        5.634452    5.153126   -2.672309
     77          6           0        5.981750    3.806501    0.943339
     78          1           0        6.054063    3.391436    1.944463
     79          6           0        6.560287    3.691816   -1.403534
     80          1           0        7.088012    3.190208   -2.208688
     81          8           0        7.173887    1.888819    0.064190
     82          1           0        6.456422    1.269644   -0.217318
     83          6           0        6.604171    3.155740   -0.117322
     84          7           0        2.863433    2.757767   -0.495252
     85          1           0        3.228707    2.489945   -1.399693
     86          6           0        2.665016    1.711124    0.482976
     87          1           0        2.704643    2.186371    1.469879
     88          6           0        3.825320    0.709889    0.392661
     89          6           0        1.285750    1.047218    0.300483
     90          1           0        1.151890    0.176912    0.951890
     91          1           0        0.510073    1.771828    0.553990
     92          1           0        1.140311    0.739664   -0.740323
     93          8           0        4.717890    0.811068   -0.463646
     94          7           0        3.784554   -0.276169    1.309478
     95          1           0        2.960914   -0.385735    1.893144
     96          6           0        4.550336   -1.516410    1.183121
     97          1           0        5.066559   -1.480638    0.222678
     98          6           0        3.519837   -2.674246    1.149610
     99          6           0        5.585013   -1.659618    2.315119
    100          1           0        6.259802   -2.479681    2.036039
    101          1           0        5.082924   -1.960657    3.242394
    102          8           0        3.728126   -3.596302    0.334638
    103          6           0        6.349700   -0.341793    2.528287
    104          1           0        5.749997    0.332022    3.150331
    105          1           0        6.469418    0.176731    1.574848
    106          6           0        7.723047   -0.477132    3.185078
    107          1           0        7.658795   -1.012910    4.137263
    108          1           0        8.152535    0.507813    3.392132
    109          7           0        8.701312   -1.213459    2.361531
    110          1           0        8.707290   -2.221943    2.437895
    111          7           0        9.416245    0.585981    1.057653
    112          1           0       10.175435    1.003939    0.536365
    113          1           0        8.507717    1.062064    0.943119
    114          7           0       10.587885   -1.416784    1.043773
    115          1           0       11.103067   -1.158834    0.214519
    116          1           0       10.907993   -2.226277    1.556052
    117          6           0        9.550409   -0.672800    1.480546
    118          8           0        2.535507   -2.525862    1.945508
 ---------------------------------------------------------------------

 SCF Done:  E(RB3LYP) =  -2837.84747835     A.U. after    3 cycles

 Alpha  occ. eigenvalues --  -19.26180 -19.22236 -19.21873 -19.20713 -19.20392
 Alpha  occ. eigenvalues --  -19.20279 -19.20196 -19.19088 -19.18416 -19.17300
 Alpha  occ. eigenvalues --  -19.15755 -14.52458 -14.52441 -14.50833 -14.49539
 Alpha  occ. eigenvalues --  -14.45379 -14.44689 -14.44370 -14.44338 -14.44311
 Alpha  occ. eigenvalues --  -14.41410 -14.40219 -10.48462 -10.38989 -10.37870
 Alpha  occ. eigenvalues --  -10.37164 -10.37129 -10.37010 -10.36492 -10.35699
 Alpha  occ. eigenvalues --  -10.34353 -10.33698 -10.32936 -10.32894 -10.32753
 Alpha  occ. eigenvalues --  -10.32612 -10.31393 -10.31281 -10.31170 -10.30564
 Alpha  occ. eigenvalues --  -10.30259 -10.29726 -10.28963 -10.27745 -10.27625
 Alpha  occ. eigenvalues --  -10.27336 -10.27238 -10.27150 -10.27106 -10.26645
 Alpha  occ. eigenvalues --  -10.25772 -10.25451 -10.25317 -10.24916 -10.24467
 Alpha  occ. eigenvalues --  -10.24083 -10.23839 -10.22794  -1.16761  -1.14089
 Alpha  occ. eigenvalues --   -1.13118  -1.12974  -1.12676  -1.12067  -1.11887
 Alpha  occ. eigenvalues --   -1.11626  -1.09972  -1.09096  -1.07608  -1.06231
 Alpha  occ. eigenvalues --   -1.04818  -1.04528  -1.03279  -1.01754  -1.01433
 Alpha  occ. eigenvalues --   -1.01214  -1.00526  -1.00452  -0.98425  -0.94939
 Alpha  occ. eigenvalues --   -0.93901  -0.91116  -0.88351  -0.87981  -0.86645
 Alpha  occ. eigenvalues --   -0.85753  -0.85427  -0.84325  -0.83763  -0.83005
 Alpha  occ. eigenvalues --   -0.80856  -0.80693  -0.79973  -0.78564  -0.78398
 Alpha  occ. eigenvalues --   -0.77249  -0.76724  -0.75366  -0.74011  -0.72774
 Alpha  occ. eigenvalues --   -0.71763  -0.71466  -0.70111  -0.70011  -0.69735
 Alpha  occ. eigenvalues --   -0.69640  -0.69007  -0.68443  -0.67844  -0.67380
 Alpha  occ. eigenvalues --   -0.67084  -0.67023  -0.66635  -0.65969  -0.65701
 Alpha  occ. eigenvalues --   -0.64925  -0.64203  -0.63435  -0.63313  -0.63178
 Alpha  occ. eigenvalues --   -0.62665  -0.62444  -0.61787  -0.60991  -0.60330
 Alpha  occ. eigenvalues --   -0.59362  -0.59014  -0.58430  -0.58020  -0.57977
 Alpha  occ. eigenvalues --   -0.57068  -0.56942  -0.56470  -0.55926  -0.55739
 Alpha  occ. eigenvalues --   -0.55557  -0.55436  -0.55219  -0.54698  -0.54280
 Alpha  occ. eigenvalues --   -0.54124  -0.53920  -0.53598  -0.53316  -0.53084
 Alpha  occ. eigenvalues --   -0.52774  -0.52686  -0.52109  -0.51796  -0.51730
 Alpha  occ. eigenvalues --   -0.51283  -0.51050  -0.50708  -0.50436  -0.50344
 Alpha  occ. eigenvalues --   -0.49923  -0.49712  -0.49479  -0.49352  -0.49053
 Alpha  occ. eigenvalues --   -0.48895  -0.48612  -0.48202  -0.47837  -0.47800
 Alpha  occ. eigenvalues --   -0.47333  -0.47192  -0.46703  -0.46479  -0.46372
 Alpha  occ. eigenvalues --   -0.46229  -0.46114  -0.45867  -0.45513  -0.45390
 Alpha  occ. eigenvalues --   -0.45188  -0.45010  -0.44842  -0.44819  -0.44586
 Alpha  occ. eigenvalues --   -0.44388  -0.44169  -0.43726  -0.43527  -0.43267
 Alpha  occ. eigenvalues --   -0.43151  -0.42980  -0.42884  -0.42694  -0.42094
 Alpha  occ. eigenvalues --   -0.41827  -0.41267  -0.40972  -0.40676  -0.40362
 Alpha  occ. eigenvalues --   -0.39939  -0.39732  -0.39231  -0.38967  -0.38594
 Alpha  occ. eigenvalues --   -0.37107  -0.36422  -0.36218  -0.35981  -0.35197
 Alpha  occ. eigenvalues --   -0.34469  -0.34378  -0.34353  -0.34234  -0.34131
 Alpha  occ. eigenvalues --   -0.33664  -0.33417  -0.33226  -0.32487  -0.31669
 Alpha  occ. eigenvalues --   -0.31632  -0.31456  -0.31330  -0.30049  -0.29416
 Alpha virt. eigenvalues --   -0.13004  -0.09061  -0.08869  -0.08540  -0.08002
 Alpha virt. eigenvalues --   -0.07060  -0.06730  -0.05992  -0.05785  -0.04739
 Alpha virt. eigenvalues --   -0.04047  -0.03963  -0.03656  -0.02058  -0.01944

 Mulliken charges:
               1
     1  N   -0.779169
     2  H    0.429979
     3  H    0.399263
     4  H    0.397213
     5  C   -0.123575
     6  H    0.186941
     7  C    0.621828
     8  C    0.140001
     9  H    0.167258
    10  O   -0.531465
    11  C   -0.485914
    12  H    0.156714
    13  H    0.164319
    14  H    0.182409
    15  O   -0.657892
    16  H    0.444516
    17  N   -0.638760
    18  H    0.377336
    19  C   -0.038694
    20  H    0.180457
    21  C    0.622326
    22  C   -0.094625
    23  H    0.173651
    24  O   -0.560562
    25  C   -0.292110
    26  H    0.160035
    27  H    0.168026
    28  C   -0.480270
    29  H    0.158365
    30  H    0.128953
    31  H    0.187345
    32  C   -0.470730
    33  H    0.170543
    34  H    0.164341
    35  H    0.126648
    36  N   -0.608042
    37  H    0.359237
    38  C   -0.046252
    39  H    0.170536
    40  C    0.627580
    41  C   -0.483222
    42  H    0.178035
    43  H    0.186405
    44  H    0.159690
    45  O   -0.525994
    46  N   -0.609690
    47  H    0.376133
    48  C   -0.042525
    49  H    0.178814
    50  C    0.613702
    51  C   -0.316410
    52  H    0.163065
    53  H    0.220871
    54  O   -0.528071
    55  C   -0.376000
    56  H    0.142130
    57  H    0.179152
    58  C    0.582821
    59  N   -0.777950
    60  H    0.386271
    61  H    0.332652
    62  O   -0.510662
    63  N   -0.607235
    64  H    0.344753
    65  C   -0.035991
    66  H    0.184984
    67  C    0.627451
    68  C   -0.364188
    69  H    0.172097
    70  H    0.171883
    71  O   -0.573662
    72  C    0.131145
    73  C   -0.182631
    74  H    0.160023
    75  C   -0.191426
    76  H    0.149789
    77  C   -0.150543
    78  H    0.129866
    79  C   -0.150028
    80  H    0.144832
    81  O   -0.746619
    82  H    0.467611
    83  C    0.323216
    84  N   -0.554308
    85  H    0.364253
    86  C   -0.067570
    87  H    0.188856
    88  C    0.629385
    89  C   -0.492077
    90  H    0.150046
    91  H    0.203984
    92  H    0.184963
    93  O   -0.579692
    94  N   -0.595165
    95  H    0.357178
    96  C   -0.049251
    97  H    0.176248
    98  C    0.609052
    99  C   -0.282405
   100  H    0.137438
   101  H    0.169790
   102  O   -0.579706
   103  C   -0.271639
   104  H    0.170990
   105  H    0.146947
   106  C   -0.178630
   107  H    0.189948
   108  H    0.192605
   109  N   -0.586086
   110  H    0.364311
   111  N   -0.771505
   112  H    0.369714
   113  H    0.440444
   114  N   -0.759955
   115  H    0.381458
   116  H    0.380718
   117  C    0.794710
   118  O   -0.627354
 Sum of Mulliken charges =   1.00000

 Dipole moment (field-independent basis, Debye):
    X=             33.5036    Y=             -1.6013    Z=              2.8966  Tot=             33.6667
 Quadrupole moment (field-independent basis, Debye-Ang):
   XX=             -8.8178   YY=           -315.4672   ZZ=           -305.4638
   XY=             -5.3458   XZ=             62.1078   YZ=            -17.2512

 Normal termination of Gaussian 16 at Mon Jun 27 02:46:48 2022.
