 Gaussian 16, Revision C.01,
 Gaussian 16:  ES64L-G16RevC.01  3-Jul-2019

 ----------------------------------------------------------------------
 # B3LYP/6-31G* empiricaldispersion=gd3 guess=read geom=check nosymm in
 tegral(ultrafinegrid)
 ----------------------------------------------------------------------

 ------------------------------------------------------
 Candidate Structure: Conf:472 Charge calc in gas phase
 ------------------------------------------------------
 Structure from the checkpoint file:  "conf-472.chk"
 Charge =  1 Multiplicity = 1

                          Input orientation:
 ---------------------------------------------------------------------
 Center     Atomic      Atomic             Coordinates (Angstroms)
 Number     Number       Type             X           Y           Z
 ---------------------------------------------------------------------
      1          7           0       -0.786792   -2.156780   -7.740547
      2          1           0       -0.244211   -1.392928   -7.276626
      3          1           0       -0.308299   -2.551353   -8.551452
      4          1           0       -0.967759   -2.881938   -7.013181
      5          6           0       -2.143795   -1.567628   -8.019654
      6          1           0       -2.212425   -1.280525   -9.072169
      7          6           0       -2.191884   -0.337770   -7.078703
      8          6           0       -3.179078   -2.668120   -7.619293
      9          1           0       -4.165606   -2.199826   -7.528150
     10          8           0       -1.177924   -0.056267   -6.433494
     11          6           0       -3.238933   -3.800318   -8.637689
     12          1           0       -3.538270   -3.433277   -9.625014
     13          1           0       -2.270893   -4.307644   -8.729218
     14          1           0       -3.964418   -4.545208   -8.302557
     15          8           0       -2.762137   -3.193595   -6.373358
     16          1           0       -3.133291   -2.608796   -5.663136
     17          7           0       -3.363101    0.310842   -6.969239
     18          1           0       -4.163634   -0.099098   -7.434639
     19          6           0       -3.666651    0.988203   -5.696194
     20          1           0       -2.905982    1.749785   -5.529117
     21          6           0       -3.545286   -0.090715   -4.595509
     22          6           0       -5.067454    1.635300   -5.762520
     23          1           0       -5.771794    0.840003   -6.054792
     24          8           0       -3.864189   -1.272054   -4.835690
     25          6           0       -5.126711    2.740248   -6.842538
     26          1           0       -6.178379    3.029092   -6.963213
     27          1           0       -4.813329    2.322632   -7.808417
     28          6           0       -5.510439    2.150735   -4.383523
     29          1           0       -4.761877    2.814721   -3.939193
     30          1           0       -5.679563    1.332059   -3.678977
     31          1           0       -6.445139    2.712547   -4.478017
     32          6           0       -4.292820    3.993381   -6.544224
     33          1           0       -4.368462    4.704744   -7.372799
     34          1           0       -3.230896    3.762873   -6.403785
     35          1           0       -4.650134    4.505783   -5.643791
     36          7           0       -3.067114    0.323998   -3.426475
     37          1           0       -2.824712    1.303380   -3.280410
     38          6           0       -2.747386   -0.575942   -2.324841
     39          1           0       -3.617922   -1.211102   -2.122713
     40          6           0       -2.455436    0.323796   -1.106794
     41          6           0       -1.531111   -1.454256   -2.683575
     42          1           0       -1.339995   -2.209867   -1.917141
     43          1           0       -0.634060   -0.838005   -2.768550
     44          1           0       -1.726544   -1.968634   -3.627610
     45          8           0       -2.488540    1.546349   -1.201448
     46          7           0       -2.147233   -0.332108    0.047548
     47          1           0       -1.931971   -1.316600   -0.057875
     48          6           0       -1.285005    0.322365    1.031329
     49          1           0       -1.664268    1.337724    1.177336
     50          6           0        0.135596    0.412980    0.417905
     51          6           0       -1.367715   -0.473522    2.351240
     52          1           0       -1.252823   -1.540070    2.127396
     53          1           0       -2.375522   -0.325665    2.752064
     54          8           0        0.492108   -0.347515   -0.477438
     55          6           0       -0.315145   -0.136108    3.412447
     56          1           0       -0.128711    0.940767    3.502299
     57          1           0       -0.689999   -0.455485    4.393083
     58          6           0        0.990758   -0.912954    3.186990
     59          7           0        2.102317   -0.359891    3.756358
     60          1           0        2.161080    0.646562    3.865049
     61          1           0        2.975343   -0.826189    3.543032
     62          8           0        1.002686   -1.994496    2.613413
     63          7           0        0.925645    1.397140    0.916126
     64          1           0        0.613627    1.991587    1.672734
     65          6           0        2.290692    1.593301    0.474838
     66          1           0        2.596239    0.667265   -0.017915
     67          6           0        3.159363    1.882417    1.705707
     68          6           0        2.442051    2.792788   -0.516068
     69          1           0        3.406396    2.685337   -1.028151
     70          1           0        2.501968    3.715989    0.072189
     71          8           0        2.666137    2.376260    2.729003
     72          6           0        1.305383    2.916499   -1.504318
     73          6           0        1.115037    1.992542   -2.541937
     74          1           0        1.806694    1.162519   -2.652853
     75          6           0        0.382615    3.958563   -1.371857
     76          1           0        0.507226    4.686936   -0.574556
     77          6           0        0.035219    2.099191   -3.416087
     78          1           0       -0.122556    1.382769   -4.217274
     79          6           0       -0.704613    4.080474   -2.233967
     80          1           0       -1.426403    4.883223   -2.098891
     81          8           0       -1.975053    3.173468   -4.089655
     82          1           0       -2.511968    3.953808   -3.880283
     83          6           0       -0.877215    3.141006   -3.245173
     84          7           0        4.467659    1.620422    1.560084
     85          1           0        4.857164    1.282299    0.681966
     86          6           0        5.481749    2.001183    2.531115
     87          1           0        5.253072    3.009035    2.898524
     88          6           0        6.818251    2.018790    1.757466
     89          6           0        5.531084    1.033313    3.724994
     90          1           0        6.315067    1.320037    4.432654
     91          1           0        4.573245    1.050926    4.250893
     92          1           0        5.736783    0.014747    3.378867
     93          8           0        6.887117    1.569498    0.608164
     94          7           0        7.862135    2.524151    2.431195
     95          1           0        7.782452    2.875074    3.382177
     96          6           0        9.234357    2.507939    1.941175
     97          1           0        9.431499    1.544302    1.463760
     98          6           0       10.183045    2.644611    3.154114
     99          6           0        9.454265    3.633447    0.889680
    100          1           0        8.891031    4.517454    1.217008
    101          1           0        8.983817    3.299299   -0.040374
    102          8           0        9.717141    3.219262    4.184602
    103          6           0       10.927074    4.024183    0.633244
    104          1           0       11.029627    4.395686   -0.392332
    105          1           0       11.554573    3.133844    0.730423
    106          6           0       11.434273    5.119877    1.614421
    107          1           0       10.686614    5.282046    2.392409
    108          1           0       11.575793    6.074398    1.098668
    109          7           0       12.698156    4.784422    2.296650
    110          1           0       13.463515    4.502169    1.694339
    111          7           0       11.923049    4.738517    4.523733
    112          1           0       11.243229    4.004082    4.830604
    113          1           0       11.402763    5.573383    4.277272
    114          7           0       13.731024    3.428414    3.872281
    115          1           0       13.732947    3.165212    4.850950
    116          1           0       13.811060    2.630280    3.250648
    117          6           0       12.741138    4.290815    3.542988
    118          8           0       11.360160    2.250478    2.975323
 ---------------------------------------------------------------------

 SCF Done:  E(RB3LYP) =  -2837.80816027     A.U. after    3 cycles

 Alpha  occ. eigenvalues --  -19.26686 -19.26409 -19.26142 -19.21722 -19.19426
 Alpha  occ. eigenvalues --  -19.17937 -19.17294 -19.16596 -19.15589 -19.13627
 Alpha  occ. eigenvalues --  -19.12684 -14.58183 -14.48777 -14.45194 -14.44853
 Alpha  occ. eigenvalues --  -14.43470 -14.42482 -14.41978 -14.41879 -14.41626
 Alpha  occ. eigenvalues --  -14.40042 -14.39060 -10.42939 -10.40091 -10.39422
 Alpha  occ. eigenvalues --  -10.38407 -10.37991 -10.36186 -10.35016 -10.34490
 Alpha  occ. eigenvalues --  -10.33609 -10.33127 -10.32892 -10.31506 -10.31334
 Alpha  occ. eigenvalues --  -10.30924 -10.29850 -10.29699 -10.29581 -10.29483
 Alpha  occ. eigenvalues --  -10.29216 -10.29050 -10.26927 -10.26051 -10.26009
 Alpha  occ. eigenvalues --  -10.25656 -10.25420 -10.25296 -10.25216 -10.25184
 Alpha  occ. eigenvalues --  -10.25117 -10.25085 -10.24953 -10.24919 -10.24863
 Alpha  occ. eigenvalues --  -10.24415 -10.23734 -10.23553  -1.18924  -1.15152
 Alpha  occ. eigenvalues --   -1.13504  -1.13310  -1.11663  -1.11302  -1.10013
 Alpha  occ. eigenvalues --   -1.09077  -1.08794  -1.08250  -1.07321  -1.06280
 Alpha  occ. eigenvalues --   -1.05495  -1.01558  -0.99448  -0.98557  -0.98515
 Alpha  occ. eigenvalues --   -0.98431  -0.97911  -0.96522  -0.95815  -0.94187
 Alpha  occ. eigenvalues --   -0.91949  -0.91558  -0.90075  -0.86740  -0.85495
 Alpha  occ. eigenvalues --   -0.85076  -0.84752  -0.84078  -0.82711  -0.81778
 Alpha  occ. eigenvalues --   -0.80999  -0.79573  -0.79151  -0.78429  -0.77280
 Alpha  occ. eigenvalues --   -0.74574  -0.73809  -0.73484  -0.73360  -0.72742
 Alpha  occ. eigenvalues --   -0.72464  -0.71446  -0.70809  -0.70482  -0.69422
 Alpha  occ. eigenvalues --   -0.68882  -0.68326  -0.67282  -0.66405  -0.66184
 Alpha  occ. eigenvalues --   -0.65728  -0.65135  -0.64819  -0.64524  -0.64451
 Alpha  occ. eigenvalues --   -0.63888  -0.63362  -0.62256  -0.61613  -0.61563
 Alpha  occ. eigenvalues --   -0.61344  -0.61192  -0.60987  -0.60621  -0.59350
 Alpha  occ. eigenvalues --   -0.58506  -0.58212  -0.57701  -0.57216  -0.56531
 Alpha  occ. eigenvalues --   -0.55911  -0.55558  -0.55513  -0.54997  -0.54823
 Alpha  occ. eigenvalues --   -0.54406  -0.53782  -0.53603  -0.53424  -0.53354
 Alpha  occ. eigenvalues --   -0.53132  -0.52713  -0.52396  -0.52229  -0.51904
 Alpha  occ. eigenvalues --   -0.51859  -0.51656  -0.51355  -0.50921  -0.50730
 Alpha  occ. eigenvalues --   -0.50582  -0.50344  -0.49729  -0.49689  -0.49289
 Alpha  occ. eigenvalues --   -0.48912  -0.48690  -0.48587  -0.48433  -0.47968
 Alpha  occ. eigenvalues --   -0.47666  -0.47515  -0.47427  -0.47100  -0.46968
 Alpha  occ. eigenvalues --   -0.46650  -0.46390  -0.46298  -0.46204  -0.45971
 Alpha  occ. eigenvalues --   -0.45595  -0.45457  -0.45288  -0.45258  -0.44899
 Alpha  occ. eigenvalues --   -0.44659  -0.44463  -0.44284  -0.43541  -0.43248
 Alpha  occ. eigenvalues --   -0.43034  -0.42655  -0.42401  -0.42134  -0.41971
 Alpha  occ. eigenvalues --   -0.41830  -0.41665  -0.41429  -0.41181  -0.41101
 Alpha  occ. eigenvalues --   -0.40981  -0.40835  -0.40575  -0.40401  -0.40122
 Alpha  occ. eigenvalues --   -0.39863  -0.39511  -0.39190  -0.39060  -0.38780
 Alpha  occ. eigenvalues --   -0.38121  -0.35886  -0.35620  -0.34938  -0.34124
 Alpha  occ. eigenvalues --   -0.33834  -0.32891  -0.32739  -0.32156  -0.31501
 Alpha  occ. eigenvalues --   -0.31061  -0.30938  -0.30634  -0.30474  -0.30258
 Alpha  occ. eigenvalues --   -0.29255  -0.28742  -0.28306  -0.28100  -0.26612
 Alpha virt. eigenvalues --   -0.12678  -0.08769  -0.07849  -0.07467  -0.06343
 Alpha virt. eigenvalues --   -0.06028  -0.05317  -0.04888  -0.03748  -0.03488
 Alpha virt. eigenvalues --   -0.03343  -0.02510  -0.02218  -0.01570  -0.00971

 Mulliken charges:
               1
     1  N   -0.751142
     2  H    0.428224
     3  H    0.408957
     4  H    0.426066
     5  C   -0.127283
     6  H    0.216274
     7  C    0.639786
     8  C    0.088867
     9  H    0.171746
    10  O   -0.522016
    11  C   -0.451461
    12  H    0.165968
    13  H    0.145786
    14  H    0.208573
    15  O   -0.663362
    16  H    0.482723
    17  N   -0.580671
    18  H    0.343544
    19  C   -0.082012
    20  H    0.237479
    21  C    0.643492
    22  C   -0.109769
    23  H    0.134758
    24  O   -0.617268
    25  C   -0.258047
    26  H    0.155917
    27  H    0.132539
    28  C   -0.471881
    29  H    0.147990
    30  H    0.172313
    31  H    0.168046
    32  C   -0.470711
    33  H    0.165458
    34  H    0.162432
    35  H    0.149147
    36  N   -0.613779
    37  H    0.410457
    38  C   -0.061677
    39  H    0.188982
    40  C    0.630242
    41  C   -0.454757
    42  H    0.166803
    43  H    0.196977
    44  H    0.143658
    45  O   -0.528482
    46  N   -0.587391
    47  H    0.341792
    48  C   -0.080480
    49  H    0.181941
    50  C    0.645016
    51  C   -0.274518
    52  H    0.180279
    53  H    0.158892
    54  O   -0.546372
    55  C   -0.379122
    56  H    0.143972
    57  H    0.189970
    58  C    0.591193
    59  N   -0.766407
    60  H    0.368161
    61  H    0.337017
    62  O   -0.507220
    63  N   -0.606332
    64  H    0.344614
    65  C   -0.042765
    66  H    0.190619
    67  C    0.626521
    68  C   -0.381825
    69  H    0.164952
    70  H    0.161739
    71  O   -0.574655
    72  C    0.191646
    73  C   -0.167877
    74  H    0.139294
    75  C   -0.198272
    76  H    0.136097
    77  C   -0.183497
    78  H    0.148489
    79  C   -0.170411
    80  H    0.128666
    81  O   -0.680146
    82  H    0.420380
    83  C    0.361481
    84  N   -0.607675
    85  H    0.360391
    86  C   -0.039846
    87  H    0.178559
    88  C    0.616883
    89  C   -0.457160
    90  H    0.169263
    91  H    0.171132
    92  H    0.162622
    93  O   -0.553727
    94  N   -0.619393
    95  H    0.351600
    96  C   -0.012616
    97  H    0.171828
    98  C    0.578867
    99  C   -0.286015
   100  H    0.137363
   101  H    0.172145
   102  O   -0.621010
   103  C   -0.283772
   104  H    0.145300
   105  H    0.179968
   106  C   -0.166276
   107  H    0.171688
   108  H    0.172817
   109  N   -0.543805
   110  H    0.346496
   111  N   -0.724122
   112  H    0.394063
   113  H    0.341503
   114  N   -0.700290
   115  H    0.364969
   116  H    0.370593
   117  C    0.693489
   118  O   -0.610154
 Sum of Mulliken charges =   1.00000

 Dipole moment (field-independent basis, Debye):
    X=              4.5389    Y=              5.2118    Z=            -26.0936  Tot=             26.9934
 Quadrupole moment (field-independent basis, Debye-Ang):
   XX=            -94.1856   YY=           -279.7871   ZZ=            -90.2890
   XY=             78.0091   XZ=             94.9211   YZ=             59.5789

 Normal termination of Gaussian 16 at Mon Jun 27 02:46:16 2022.
