 Gaussian 16, Revision C.01,
 Gaussian 16:  ES64L-G16RevC.01  3-Jul-2019

 ----------------------------------------------------------------------
 # B3LYP/6-31G* empiricaldispersion=gd3 guess=read geom=check nosymm in
 tegral(ultrafinegrid)
 ----------------------------------------------------------------------

 ------------------------------------------------------
 Candidate Structure: Conf:966 Charge calc in gas phase
 ------------------------------------------------------
 Structure from the checkpoint file:  "conf-966.chk"
 Charge =  1 Multiplicity = 1

                          Input orientation:
 ---------------------------------------------------------------------
 Center     Atomic      Atomic             Coordinates (Angstroms)
 Number     Number       Type             X           Y           Z
 ---------------------------------------------------------------------
      1          7           0       -8.550066   -2.985641   -3.062536
      2          1           0       -8.732948   -1.948437   -3.138541
      3          1           0       -9.129975   -3.434832   -2.351903
      4          1           0       -8.717257   -3.405679   -3.993732
      5          6           0       -7.066521   -3.057475   -2.816174
      6          1           0       -6.891138   -3.239359   -1.752404
      7          6           0       -6.582799   -1.627354   -3.190522
      8          6           0       -6.492925   -4.198006   -3.696738
      9          1           0       -5.403870   -4.085422   -3.750178
     10          8           0       -7.444521   -0.762878   -3.408231
     11          6           0       -6.837300   -5.581107   -3.159211
     12          1           0       -6.425814   -5.724682   -2.155079
     13          1           0       -7.922357   -5.734447   -3.121179
     14          1           0       -6.421236   -6.342700   -3.822553
     15          8           0       -7.085050   -4.077481   -4.991304
     16          1           0       -6.569477   -3.460381   -5.536151
     17          7           0       -5.270875   -1.451460   -3.249150
     18          1           0       -4.591936   -2.191765   -3.061039
     19          6           0       -4.609671   -0.181094   -3.555998
     20          1           0       -5.121581    0.272084   -4.409114
     21          6           0       -3.173126   -0.599837   -3.926217
     22          6           0       -4.668131    0.788971   -2.334246
     23          1           0       -5.730741    0.804397   -2.055782
     24          8           0       -2.761351   -1.714460   -3.588435
     25          6           0       -4.267593    2.241165   -2.667247
     26          1           0       -3.187114    2.315253   -2.837314
     27          1           0       -4.458648    2.828865   -1.760536
     28          6           0       -3.850413    0.254093   -1.150100
     29          1           0       -2.777151    0.259676   -1.370163
     30          1           0       -4.131266   -0.770686   -0.882930
     31          1           0       -4.008882    0.884516   -0.269453
     32          6           0       -5.035130    2.878379   -3.832626
     33          1           0       -4.817562    3.948936   -3.893281
     34          1           0       -6.118643    2.759040   -3.711071
     35          1           0       -4.767343    2.447687   -4.806827
     36          7           0       -2.441753    0.309528   -4.600540
     37          1           0       -2.808697    1.250934   -4.689460
     38          6           0       -0.976471    0.237474   -4.670972
     39          1           0       -0.700820   -0.792773   -4.437789
     40          6           0       -0.461198    1.225038   -3.606268
     41          6           0       -0.478870    0.639804   -6.060026
     42          1           0        0.612709    0.568848   -6.104260
     43          1           0       -0.760824    1.675719   -6.274674
     44          1           0       -0.904725   -0.015690   -6.825288
     45          8           0       -0.906829    2.375048   -3.584426
     46          7           0        0.444675    0.747355   -2.735617
     47          1           0        0.774579   -0.212669   -2.767686
     48          6           0        0.970673    1.531534   -1.624919
     49          1           0        1.174688    2.544962   -1.986996
     50          6           0        2.290344    0.840436   -1.218799
     51          6           0       -0.093111    1.623113   -0.500028
     52          1           0       -0.427574    0.605532   -0.267058
     53          1           0       -0.936166    2.169755   -0.933512
     54          8           0        2.465235   -0.359373   -1.418498
     55          6           0        0.353288    2.296673    0.807226
     56          1           0       -0.511420    2.411737    1.469189
     57          1           0        1.074854    1.676642    1.339608
     58          6           0        0.930744    3.685817    0.588350
     59          7           0        2.194438    3.850526    1.072167
     60          1           0        2.417983    3.299634    1.901791
     61          1           0        2.586407    4.783621    1.037031
     62          8           0        0.336137    4.567529   -0.048789
     63          7           0        3.223112    1.685046   -0.717357
     64          1           0        2.909886    2.600207   -0.404526
     65          6           0        4.483677    1.267929   -0.138936
     66          1           0        4.673608    0.245302   -0.483064
     67          6           0        4.328700    1.206839    1.402222
     68          6           0        5.611367    2.204500   -0.660895
     69          1           0        5.700814    2.017180   -1.735975
     70          1           0        6.574903    1.914973   -0.225780
     71          8           0        3.218600    1.075175    1.916990
     72          6           0        5.336274    3.676907   -0.422308
     73          6           0        4.557978    4.403508   -1.338260
     74          1           0        4.206803    3.913735   -2.242209
     75          6           0        5.788409    4.341004    0.725145
     76          1           0        6.372725    3.821009    1.478051
     77          6           0        4.208408    5.732872   -1.110363
     78          1           0        3.599019    6.285673   -1.818012
     79          6           0        5.472485    5.680702    0.951565
     80          1           0        5.838337    6.176244    1.845306
     81          8           0        4.259676    7.674953    0.259330
     82          1           0        4.881832    8.109716    0.864243
     83          6           0        4.668165    6.369942    0.043195
     84          7           0        5.454080    1.270808    2.151737
     85          1           0        6.353959    1.421134    1.721257
     86          6           0        5.396755    1.220438    3.617109
     87          1           0        4.639044    0.475077    3.873375
     88          6           0        4.984866    2.606136    4.198252
     89          6           0        6.757244    0.810361    4.172170
     90          1           0        6.700330    0.694655    5.258180
     91          1           0        7.080679   -0.140873    3.737078
     92          1           0        7.498563    1.588153    3.964771
     93          8           0        5.840726    3.476973    4.366578
     94          7           0        3.666151    2.705938    4.482468
     95          1           0        3.050833    2.015807    4.057901
     96          6           0        2.925871    3.755566    5.192460
     97          1           0        2.760934    3.411616    6.224086
     98          6           0        1.508112    3.877094    4.548241
     99          6           0        3.636641    5.116635    5.294710
    100          1           0        4.561718    4.983584    5.856768
    101          1           0        2.976290    5.747285    5.899952
    102          8           0        0.766488    4.793339    5.021945
    103          6           0        3.961688    5.788465    3.941143
    104          1           0        3.775377    5.088517    3.119662
    105          1           0        5.034125    6.000596    3.905173
    106          6           0        3.203045    7.096214    3.662144
    107          1           0        3.551438    7.546663    2.728936
    108          1           0        3.399470    7.825346    4.455635
    109          7           0        1.749877    6.912727    3.598202
    110          1           0        1.367588    6.436212    4.427477
    111          7           0        1.454515    6.923291    1.253407
    112          1           0        1.046316    6.401230    0.476851
    113          1           0        2.307940    7.441271    1.078538
    114          7           0       -0.095195    5.915649    2.658703
    115          1           0       -0.554550    5.570413    1.825445
    116          1           0       -0.147012    5.339432    3.519450
    117          6           0        1.060879    6.576016    2.493693
    118          8           0        1.220677    3.091839    3.617790
 ---------------------------------------------------------------------

 SCF Done:  E(RB3LYP) =  -2837.84175889     A.U. after    1 cycles

 Alpha  occ. eigenvalues --  -19.30662 -19.26852 -19.26328 -19.22272 -19.18677
 Alpha  occ. eigenvalues --  -19.18609 -19.18228 -19.18152 -19.15531 -19.13141
 Alpha  occ. eigenvalues --  -19.13136 -14.59501 -14.49596 -14.45778 -14.43279
 Alpha  occ. eigenvalues --  -14.42912 -14.42860 -14.42183 -14.41825 -14.41041
 Alpha  occ. eigenvalues --  -14.40790 -14.39458 -10.43756 -10.40754 -10.40165
 Alpha  occ. eigenvalues --  -10.39205 -10.38922 -10.35917 -10.35352 -10.35340
 Alpha  occ. eigenvalues --  -10.35289 -10.34269 -10.32887 -10.32396 -10.31580
 Alpha  occ. eigenvalues --  -10.31369 -10.31024 -10.30390 -10.29906 -10.29053
 Alpha  occ. eigenvalues --  -10.28931 -10.28609 -10.26983 -10.26611 -10.26276
 Alpha  occ. eigenvalues --  -10.26236 -10.26231 -10.26219 -10.26035 -10.26027
 Alpha  occ. eigenvalues --  -10.26010 -10.25904 -10.25435 -10.25305 -10.23942
 Alpha  occ. eigenvalues --  -10.23844 -10.23346 -10.22734  -1.19734  -1.17780
 Alpha  occ. eigenvalues --   -1.14292  -1.13735  -1.13323  -1.10924  -1.10471
 Alpha  occ. eigenvalues --   -1.09819  -1.09639  -1.07712  -1.07124  -1.06255
 Alpha  occ. eigenvalues --   -1.06244  -1.02246  -0.99620  -0.99300  -0.98877
 Alpha  occ. eigenvalues --   -0.98064  -0.97119  -0.96285  -0.95505  -0.95155
 Alpha  occ. eigenvalues --   -0.93550  -0.92715  -0.90638  -0.86976  -0.86519
 Alpha  occ. eigenvalues --   -0.85815  -0.84581  -0.84362  -0.82457  -0.82369
 Alpha  occ. eigenvalues --   -0.82060  -0.80250  -0.80166  -0.78681  -0.78013
 Alpha  occ. eigenvalues --   -0.75977  -0.74602  -0.73800  -0.73406  -0.73036
 Alpha  occ. eigenvalues --   -0.72805  -0.72273  -0.70934  -0.70351  -0.69775
 Alpha  occ. eigenvalues --   -0.69629  -0.68881  -0.68310  -0.68057  -0.66877
 Alpha  occ. eigenvalues --   -0.66750  -0.65652  -0.65471  -0.65339  -0.65192
 Alpha  occ. eigenvalues --   -0.64487  -0.64145  -0.62614  -0.62444  -0.61863
 Alpha  occ. eigenvalues --   -0.61851  -0.61118  -0.60493  -0.60315  -0.59181
 Alpha  occ. eigenvalues --   -0.58718  -0.58517  -0.58049  -0.57372  -0.56683
 Alpha  occ. eigenvalues --   -0.56305  -0.56202  -0.55947  -0.55475  -0.55341
 Alpha  occ. eigenvalues --   -0.54792  -0.54400  -0.54236  -0.53824  -0.53466
 Alpha  occ. eigenvalues --   -0.53381  -0.53129  -0.52921  -0.52798  -0.52564
 Alpha  occ. eigenvalues --   -0.52059  -0.51608  -0.51489  -0.51182  -0.51076
 Alpha  occ. eigenvalues --   -0.50894  -0.50778  -0.50460  -0.50290  -0.50133
 Alpha  occ. eigenvalues --   -0.49878  -0.49350  -0.49262  -0.49131  -0.48922
 Alpha  occ. eigenvalues --   -0.48666  -0.48542  -0.48031  -0.47928  -0.47802
 Alpha  occ. eigenvalues --   -0.47659  -0.46707  -0.46538  -0.46377  -0.46240
 Alpha  occ. eigenvalues --   -0.46113  -0.45660  -0.45331  -0.45087  -0.44754
 Alpha  occ. eigenvalues --   -0.44593  -0.44469  -0.44325  -0.43968  -0.43879
 Alpha  occ. eigenvalues --   -0.43763  -0.43677  -0.43516  -0.42769  -0.42431
 Alpha  occ. eigenvalues --   -0.42073  -0.42002  -0.41831  -0.41555  -0.41447
 Alpha  occ. eigenvalues --   -0.41274  -0.40978  -0.40811  -0.40659  -0.40562
 Alpha  occ. eigenvalues --   -0.40207  -0.40083  -0.39849  -0.38819  -0.38506
 Alpha  occ. eigenvalues --   -0.37997  -0.36234  -0.35960  -0.34956  -0.33954
 Alpha  occ. eigenvalues --   -0.33352  -0.33201  -0.32763  -0.32450  -0.32107
 Alpha  occ. eigenvalues --   -0.32016  -0.31823  -0.31666  -0.31291  -0.30065
 Alpha  occ. eigenvalues --   -0.29797  -0.28870  -0.28394  -0.27312  -0.27075
 Alpha virt. eigenvalues --   -0.12976  -0.09938  -0.08199  -0.07856  -0.06885
 Alpha virt. eigenvalues --   -0.06683  -0.05671  -0.05050  -0.04895  -0.04641
 Alpha virt. eigenvalues --   -0.04174  -0.03590  -0.02619  -0.02187  -0.02065

 Mulliken charges:
               1
     1  N   -0.755088
     2  H    0.432314
     3  H    0.413519
     4  H    0.423593
     5  C   -0.117739
     6  H    0.225967
     7  C    0.638792
     8  C    0.072164
     9  H    0.191401
    10  O   -0.539468
    11  C   -0.451336
    12  H    0.177852
    13  H    0.151837
    14  H    0.211275
    15  O   -0.617110
    16  H    0.431218
    17  N   -0.617989
    18  H    0.375923
    19  C   -0.073219
    20  H    0.190010
    21  C    0.627537
    22  C   -0.084477
    23  H    0.155167
    24  O   -0.549671
    25  C   -0.304283
    26  H    0.190013
    27  H    0.156899
    28  C   -0.469917
    29  H    0.174112
    30  H    0.131768
    31  H    0.168412
    32  C   -0.466050
    33  H    0.175930
    34  H    0.157130
    35  H    0.131021
    36  N   -0.594232
    37  H    0.362534
    38  C   -0.078382
    39  H    0.184699
    40  C    0.637290
    41  C   -0.452572
    42  H    0.171956
    43  H    0.175218
    44  H    0.166211
    45  O   -0.543110
    46  N   -0.618563
    47  H    0.358121
    48  C   -0.062313
    49  H    0.188636
    50  C    0.614917
    51  C   -0.273012
    52  H    0.152928
    53  H    0.182094
    54  O   -0.535200
    55  C   -0.374899
    56  H    0.182931
    57  H    0.225272
    58  C    0.576065
    59  N   -0.795802
    60  H    0.406260
    61  H    0.349552
    62  O   -0.559865
    63  N   -0.617792
    64  H    0.397310
    65  C   -0.083397
    66  H    0.209142
    67  C    0.629871
    68  C   -0.377484
    69  H    0.175476
    70  H    0.149993
    71  O   -0.523711
    72  C    0.162972
    73  C   -0.191805
    74  H    0.147346
    75  C   -0.196009
    76  H    0.154164
    77  C   -0.159533
    78  H    0.157961
    79  C   -0.183871
    80  H    0.147862
    81  O   -0.661530
    82  H    0.424489
    83  C    0.316204
    84  N   -0.603154
    85  H    0.336488
    86  C   -0.039751
    87  H    0.173763
    88  C    0.623548
    89  C   -0.477585
    90  H    0.175277
    91  H    0.153897
    92  H    0.174715
    93  O   -0.553962
    94  N   -0.625013
    95  H    0.371672
    96  C   -0.042912
    97  H    0.168090
    98  C    0.595172
    99  C   -0.284461
   100  H    0.176510
   101  H    0.153342
   102  O   -0.626217
   103  C   -0.260633
   104  H    0.141804
   105  H    0.162422
   106  C   -0.185253
   107  H    0.118156
   108  H    0.176208
   109  N   -0.593120
   110  H    0.394313
   111  N   -0.808402
   112  H    0.382546
   113  H    0.393196
   114  N   -0.762390
   115  H    0.357058
   116  H    0.398899
   117  C    0.740034
   118  O   -0.586156
 Sum of Mulliken charges =   1.00000

 Dipole moment (field-independent basis, Debye):
    X=            -19.9923    Y=             -5.1805    Z=            -14.0394  Tot=             24.9727
 Quadrupole moment (field-independent basis, Debye-Ang):
   XX=            -65.9027   YY=           -244.1739   ZZ=           -299.9252
   XY=            136.6214   XZ=             93.0021   YZ=             34.9486

 Normal termination of Gaussian 16 at Mon Jun 27 02:45:36 2022.
