 Gaussian 16, Revision C.01,
 Gaussian 16:  ES64L-G16RevC.01  3-Jul-2019

 ----------------------------------------------------------------------
 # B3LYP/6-31G* empiricaldispersion=gd3 guess=read geom=check nosymm in
 tegral(ultrafinegrid)
 ----------------------------------------------------------------------

 ------------------------------------------------------
 Candidate Structure: Conf:876 Charge calc in gas phase
 ------------------------------------------------------
 Structure from the checkpoint file:  "conf-876.chk"
 Charge =  1 Multiplicity = 1

                          Input orientation:
 ---------------------------------------------------------------------
 Center     Atomic      Atomic             Coordinates (Angstroms)
 Number     Number       Type             X           Y           Z
 ---------------------------------------------------------------------
      1          7           0       -7.371460   -6.159350   -4.128962
      2          1           0       -7.900986   -5.298314   -4.449489
      3          1           0       -7.973897   -6.824537   -3.641486
      4          1           0       -6.938045   -6.593617   -4.959775
      5          6           0       -6.264128   -5.569531   -3.294141
      6          1           0       -6.491050   -5.732312   -2.237592
      7          6           0       -6.358954   -4.048475   -3.618264
      8          6           0       -4.934252   -6.244736   -3.685174
      9          1           0       -4.113055   -5.611021   -3.322886
     10          8           0       -7.316691   -3.667371   -4.302379
     11          6           0       -4.787821   -7.652186   -3.109855
     12          1           0       -4.781975   -7.632923   -2.014940
     13          1           0       -5.598836   -8.308451   -3.446397
     14          1           0       -3.842539   -8.097205   -3.437860
     15          8           0       -4.972477   -6.242571   -5.111498
     16          1           0       -4.189447   -6.693911   -5.464706
     17          7           0       -5.418277   -3.273842   -3.091754
     18          1           0       -4.631584   -3.660222   -2.579562
     19          6           0       -5.310708   -1.827565   -3.309985
     20          1           0       -5.888940   -1.586087   -4.206875
     21          6           0       -3.805672   -1.588158   -3.522241
     22          6           0       -5.853784   -1.010858   -2.097067
     23          1           0       -5.216484   -1.262221   -1.238240
     24          8           0       -2.982649   -2.279746   -2.905456
     25          6           0       -7.297563   -1.434316   -1.756810
     26          1           0       -7.328560   -2.522275   -1.619627
     27          1           0       -7.952528   -1.211679   -2.610216
     28          6           0       -5.748494    0.496272   -2.377850
     29          1           0       -6.346587    0.768722   -3.258917
     30          1           0       -4.720549    0.834050   -2.531706
     31          1           0       -6.141115    1.066337   -1.532568
     32          6           0       -7.845315   -0.779681   -0.482849
     33          1           0       -8.819630   -1.206216   -0.222105
     34          1           0       -7.984058    0.299128   -0.599463
     35          1           0       -7.169408   -0.942401    0.365296
     36          7           0       -3.451584   -0.619734   -4.387563
     37          1           0       -4.174147    0.005997   -4.722080
     38          6           0       -2.069512   -0.122597   -4.461011
     39          1           0       -1.420985   -0.996589   -4.568640
     40          6           0       -1.774371    0.626976   -3.144216
     41          6           0       -1.923060    0.819401   -5.654344
     42          1           0       -0.884390    1.150333   -5.744232
     43          1           0       -2.547382    1.707045   -5.507158
     44          1           0       -2.209662    0.319433   -6.584737
     45          8           0       -2.514699    1.539425   -2.778860
     46          7           0       -0.711916    0.186410   -2.442384
     47          1           0       -0.109325   -0.549284   -2.794134
     48          6           0       -0.350996    0.693454   -1.128139
     49          1           0       -0.720080    1.720274   -1.048407
     50          6           0        1.179703    0.626658   -1.027825
     51          6           0       -0.958124   -0.189367   -0.011840
     52          1           0       -0.584418    0.140338    0.964366
     53          1           0       -0.580048   -1.208168   -0.167919
     54          8           0        1.810485   -0.222892   -1.660354
     55          6           0       -2.499248   -0.196874    0.003925
     56          1           0       -2.880753    0.735642    0.427337
     57          1           0       -2.883241   -0.287356   -1.013157
     58          6           0       -2.988627   -1.358003    0.859532
     59          7           0       -3.255767   -2.510594    0.145850
     60          1           0       -2.938103   -2.591026   -0.814401
     61          1           0       -3.324379   -3.357177    0.696278
     62          8           0       -3.110321   -1.293353    2.070800
     63          7           0        1.752700    1.502308   -0.176864
     64          1           0        1.202942    2.147341    0.379558
     65          6           0        3.171698    1.444271    0.125313
     66          1           0        3.448223    0.394066    0.269639
     67          6           0        3.404916    2.226238    1.419122
     68          6           0        4.051569    2.018263   -1.035066
     69          1           0        4.063209    3.110762   -0.969982
     70          1           0        3.547905    1.736333   -1.964237
     71          8           0        2.496694    2.943535    1.893953
     72          6           0        5.458745    1.462695   -1.028409
     73          6           0        6.563984    2.238908   -0.642833
     74          1           0        6.410485    3.271033   -0.341943
     75          6           0        5.675944    0.123835   -1.385262
     76          1           0        4.829338   -0.488144   -1.690592
     77          6           0        7.846382    1.695095   -0.610550
     78          1           0        8.703108    2.292161   -0.314791
     79          6           0        6.954128   -0.429491   -1.358623
     80          1           0        7.106615   -1.469151   -1.642509
     81          8           0        9.323083   -0.118893   -0.919005
     82          1           0        9.335458   -1.047827   -1.197320
     83          6           0        8.046781    0.357337   -0.970059
     84          7           0        4.617843    2.098085    1.962632
     85          1           0        5.306429    1.594077    1.412487
     86          6           0        5.159897    3.022122    2.953499
     87          1           0        4.466884    3.066915    3.800213
     88          6           0        5.315683    4.447462    2.356292
     89          6           0        6.529107    2.509505    3.429229
     90          1           0        6.976738    3.212560    4.139238
     91          1           0        6.425349    1.529733    3.906190
     92          1           0        7.209754    2.413250    2.574471
     93          8           0        5.233565    4.650974    1.135286
     94          7           0        5.568617    5.383932    3.288842
     95          1           0        5.833426    5.039220    4.244249
     96          6           0        6.548265    6.469730    3.085708
     97          1           0        7.095376    6.277923    2.156185
     98          6           0        7.550221    6.344654    4.319969
     99          6           0        5.970345    7.885223    3.031860
    100          1           0        6.836902    8.548249    2.970592
    101          1           0        5.497483    8.117558    3.998260
    102          8           0        8.467643    7.170521    4.331862
    103          6           0        4.988038    8.137978    1.865582
    104          1           0        5.052846    7.301830    1.157920
    105          1           0        5.267852    9.036420    1.301392
    106          6           0        3.535136    8.347368    2.320015
    107          1           0        2.848048    8.432647    1.471759
    108          1           0        3.452607    9.274067    2.895071
    109          7           0        3.019027    7.286452    3.202492
    110          1           0        3.322524    7.334123    4.166428
    111          7           0        2.587554    5.798183    1.458057
    112          1           0        2.396407    4.817864    1.258145
    113          1           0        3.373988    6.138828    0.915462
    114          7           0        2.183289    5.158252    3.643407
    115          1           0        2.218760    4.184344    3.338236
    116          1           0        2.183453    5.353279    4.633995
    117          6           0        2.636090    6.079523    2.777422
    118          8           0        7.243079    5.421556    5.139605
 ---------------------------------------------------------------------

 SCF Done:  E(RB3LYP) =  -2837.77091389     A.U. after    1 cycles

 Alpha  occ. eigenvalues --  -19.31881 -19.27904 -19.24237 -19.22705 -19.21504
 Alpha  occ. eigenvalues --  -19.20042 -19.19906 -19.18099 -19.16828 -19.07807
 Alpha  occ. eigenvalues --  -19.06409 -14.60491 -14.50970 -14.47942 -14.45737
 Alpha  occ. eigenvalues --  -14.45041 -14.44837 -14.44102 -14.43954 -14.43781
 Alpha  occ. eigenvalues --  -14.42600 -14.37463 -10.44918 -10.42258 -10.41661
 Alpha  occ. eigenvalues --  -10.41415 -10.41012 -10.37685 -10.37484 -10.36961
 Alpha  occ. eigenvalues --  -10.35731 -10.35545 -10.33560 -10.33345 -10.33039
 Alpha  occ. eigenvalues --  -10.31848 -10.31149 -10.30091 -10.29714 -10.29527
 Alpha  occ. eigenvalues --  -10.29416 -10.27742 -10.27721 -10.27457 -10.26431
 Alpha  occ. eigenvalues --  -10.26010 -10.25582 -10.25514 -10.25371 -10.24495
 Alpha  occ. eigenvalues --  -10.24439 -10.24266 -10.23729 -10.23691 -10.23375
 Alpha  occ. eigenvalues --  -10.22872 -10.22732 -10.21331  -1.20942  -1.19089
 Alpha  occ. eigenvalues --   -1.16008  -1.14366  -1.12809  -1.12321  -1.11456
 Alpha  occ. eigenvalues --   -1.10825  -1.10199  -1.09950  -1.07723  -1.07597
 Alpha  occ. eigenvalues --   -1.04119  -1.01306  -1.00710  -1.00641  -1.00615
 Alpha  occ. eigenvalues --   -0.99763  -0.97918  -0.97224  -0.95058  -0.94927
 Alpha  occ. eigenvalues --   -0.91758  -0.91701  -0.90702  -0.88604  -0.87687
 Alpha  occ. eigenvalues --   -0.86859  -0.85701  -0.84327  -0.83764  -0.82493
 Alpha  occ. eigenvalues --   -0.81142  -0.80177  -0.79833  -0.78490  -0.78455
 Alpha  occ. eigenvalues --   -0.77633  -0.75676  -0.75106  -0.74526  -0.73291
 Alpha  occ. eigenvalues --   -0.73048  -0.72871  -0.72681  -0.71059  -0.70654
 Alpha  occ. eigenvalues --   -0.70144  -0.69095  -0.68268  -0.67784  -0.67486
 Alpha  occ. eigenvalues --   -0.67340  -0.67190  -0.66896  -0.66119  -0.65507
 Alpha  occ. eigenvalues --   -0.64822  -0.64588  -0.63761  -0.63557  -0.63378
 Alpha  occ. eigenvalues --   -0.62426  -0.61077  -0.60883  -0.60733  -0.60196
 Alpha  occ. eigenvalues --   -0.59763  -0.59513  -0.59246  -0.58574  -0.58520
 Alpha  occ. eigenvalues --   -0.58274  -0.57798  -0.57300  -0.57064  -0.56634
 Alpha  occ. eigenvalues --   -0.56254  -0.56029  -0.55350  -0.54615  -0.54431
 Alpha  occ. eigenvalues --   -0.54120  -0.53980  -0.53455  -0.53410  -0.53123
 Alpha  occ. eigenvalues --   -0.52477  -0.52467  -0.52331  -0.52079  -0.51559
 Alpha  occ. eigenvalues --   -0.51096  -0.50949  -0.50614  -0.50370  -0.50225
 Alpha  occ. eigenvalues --   -0.50008  -0.49654  -0.49607  -0.49385  -0.49287
 Alpha  occ. eigenvalues --   -0.48743  -0.48402  -0.48144  -0.47840  -0.47660
 Alpha  occ. eigenvalues --   -0.47484  -0.47381  -0.46937  -0.46529  -0.46406
 Alpha  occ. eigenvalues --   -0.46356  -0.46093  -0.45668  -0.45598  -0.45440
 Alpha  occ. eigenvalues --   -0.44879  -0.44827  -0.44763  -0.44487  -0.43670
 Alpha  occ. eigenvalues --   -0.43398  -0.43263  -0.43172  -0.42703  -0.42652
 Alpha  occ. eigenvalues --   -0.42554  -0.42463  -0.41924  -0.41716  -0.41652
 Alpha  occ. eigenvalues --   -0.41551  -0.40737  -0.40479  -0.40068  -0.39530
 Alpha  occ. eigenvalues --   -0.38541  -0.38269  -0.38259  -0.37969  -0.37656
 Alpha  occ. eigenvalues --   -0.37373  -0.36844  -0.36503  -0.35758  -0.34980
 Alpha  occ. eigenvalues --   -0.34925  -0.34602  -0.34138  -0.34074  -0.33735
 Alpha  occ. eigenvalues --   -0.33355  -0.33188  -0.31386  -0.30720  -0.30218
 Alpha  occ. eigenvalues --   -0.29471  -0.26928  -0.22768  -0.22692  -0.20397
 Alpha virt. eigenvalues --   -0.13862  -0.11268  -0.10276  -0.07402  -0.07031
 Alpha virt. eigenvalues --   -0.06846  -0.06836  -0.06611  -0.05940  -0.05352
 Alpha virt. eigenvalues --   -0.04407  -0.04266  -0.03784  -0.03562  -0.03352

 Mulliken charges:
               1
     1  N   -0.758533
     2  H    0.437238
     3  H    0.413701
     4  H    0.427913
     5  C   -0.123599
     6  H    0.228564
     7  C    0.670100
     8  C    0.103420
     9  H    0.181377
    10  O   -0.534077
    11  C   -0.475505
    12  H    0.184243
    13  H    0.158330
    14  H    0.193415
    15  O   -0.633869
    16  H    0.436261
    17  N   -0.596570
    18  H    0.359934
    19  C   -0.077020
    20  H    0.187404
    21  C    0.646181
    22  C   -0.089295
    23  H    0.163073
    24  O   -0.571367
    25  C   -0.249885
    26  H    0.110781
    27  H    0.149006
    28  C   -0.515314
    29  H    0.139465
    30  H    0.205018
    31  H    0.178993
    32  C   -0.456818
    33  H    0.155260
    34  H    0.164503
    35  H    0.161370
    36  N   -0.579815
    37  H    0.353992
    38  C   -0.049426
    39  H    0.170729
    40  C    0.636809
    41  C   -0.482346
    42  H    0.184595
    43  H    0.184195
    44  H    0.170191
    45  O   -0.537850
    46  N   -0.588817
    47  H    0.353395
    48  C   -0.072457
    49  H    0.184416
    50  C    0.633620
    51  C   -0.266382
    52  H    0.172798
    53  H    0.155235
    54  O   -0.545385
    55  C   -0.357963
    56  H    0.178980
    57  H    0.161965
    58  C    0.559981
    59  N   -0.783785
    60  H    0.367076
    61  H    0.327616
    62  O   -0.484499
    63  N   -0.624524
    64  H    0.350709
    65  C   -0.053280
    66  H    0.191934
    67  C    0.639103
    68  C   -0.350802
    69  H    0.171181
    70  H    0.181081
    71  O   -0.604929
    72  C    0.100114
    73  C   -0.226289
    74  H    0.189426
    75  C   -0.192730
    76  H    0.151740
    77  C   -0.164593
    78  H    0.161594
    79  C   -0.193135
    80  H    0.125551
    81  O   -0.630970
    82  H    0.411397
    83  C    0.354743
    84  N   -0.570699
    85  H    0.366050
    86  C   -0.064826
    87  H    0.161827
    88  C    0.596782
    89  C   -0.506416
    90  H    0.235965
    91  H    0.161240
    92  H    0.164210
    93  O   -0.574366
    94  N   -0.617989
    95  H    0.355767
    96  C   -0.093971
    97  H    0.154096
    98  C    0.591889
    99  C   -0.269934
   100  H    0.193504
   101  H    0.113631
   102  O   -0.557841
   103  C   -0.286349
   104  H    0.163653
   105  H    0.158761
   106  C   -0.185176
   107  H    0.177510
   108  H    0.182010
   109  N   -0.566383
   110  H    0.358271
   111  N   -0.748335
   112  H    0.380378
   113  H    0.383623
   114  N   -0.770818
   115  H    0.405307
   116  H    0.358730
   117  C    0.758192
   118  O   -0.616182
 Sum of Mulliken charges =   1.00000

 Dipole moment (field-independent basis, Debye):
    X=            -33.9881    Y=            -26.8869    Z=            -22.9868  Tot=             49.0560
 Quadrupole moment (field-independent basis, Debye-Ang):
   XX=           -288.0308   YY=           -155.7140   ZZ=           -296.9551
   XY=             71.2674   XZ=             31.3091   YZ=             74.7765

 Normal termination of Gaussian 16 at Mon Jun 27 02:45:22 2022.
