 Gaussian 16, Revision C.01,
 Gaussian 16:  ES64L-G16RevC.01  3-Jul-2019

 ----------------------------------------------------------------------
 # B3LYP/6-31G* empiricaldispersion=gd3 guess=read geom=check nosymm in
 tegral(ultrafinegrid)
 ----------------------------------------------------------------------

 ------------------------------------------------------
 Candidate Structure: Conf:549 Charge calc in gas phase
 ------------------------------------------------------
 Structure from the checkpoint file:  "conf-549.chk"
 Charge =  1 Multiplicity = 1

                          Input orientation:
 ---------------------------------------------------------------------
 Center     Atomic      Atomic             Coordinates (Angstroms)
 Number     Number       Type             X           Y           Z
 ---------------------------------------------------------------------
      1          7           0       -7.546382   -2.688133   -7.619507
      2          1           0       -7.820056   -1.731727   -7.244796
      3          1           0       -8.353483   -3.297790   -7.757771
      4          1           0       -7.031770   -2.548257   -8.503737
      5          6           0       -6.556439   -3.159870   -6.585957
      6          1           0       -7.024302   -3.931177   -5.969642
      7          6           0       -6.311605   -1.878046   -5.733671
      8          6           0       -5.306487   -3.707722   -7.305076
      9          1           0       -4.478498   -3.724477   -6.583923
     10          8           0       -7.011281   -0.885590   -5.977690
     11          6           0       -5.515944   -5.105269   -7.884193
     12          1           0       -5.720182   -5.833424   -7.092136
     13          1           0       -6.345227   -5.120977   -8.601170
     14          1           0       -4.613969   -5.433953   -8.411014
     15          8           0       -5.059354   -2.733924   -8.320544
     16          1           0       -4.280573   -2.989206   -8.839530
     17          7           0       -5.390290   -1.982617   -4.787641
     18          1           0       -4.773206   -2.793971   -4.727991
     19          6           0       -4.848965   -0.869521   -4.001714
     20          1           0       -5.093505    0.065003   -4.516610
     21          6           0       -3.326595   -1.143931   -4.023307
     22          6           0       -5.431902   -0.837529   -2.557199
     23          1           0       -5.127965   -1.777298   -2.072378
     24          8           0       -2.923695   -2.305330   -4.176387
     25          6           0       -6.974195   -0.794322   -2.604398
     26          1           0       -7.334896   -1.626973   -3.219950
     27          1           0       -7.290871    0.124503   -3.116370
     28          6           0       -4.856066    0.339917   -1.754337
     29          1           0       -5.106216    1.297729   -2.229229
     30          1           0       -3.770358    0.291458   -1.646329
     31          1           0       -5.275837    0.354947   -0.745849
     32          6           0       -7.645516   -0.887498   -1.229102
     33          1           0       -8.731653   -0.974707   -1.339193
     34          1           0       -7.451532   -0.004792   -0.612612
     35          1           0       -7.293900   -1.766957   -0.675712
     36          7           0       -2.525027   -0.084101   -3.871213
     37          1           0       -2.893570    0.837576   -3.640715
     38          6           0       -1.089995   -0.196839   -3.642451
     39          1           0       -0.905855   -1.100199   -3.049196
     40          6           0       -0.710922    1.049776   -2.814741
     41          6           0       -0.305162   -0.289872   -4.959242
     42          1           0        0.768278   -0.388684   -4.769782
     43          1           0       -0.468962    0.606117   -5.566534
     44          1           0       -0.641094   -1.167900   -5.517983
     45          8           0       -1.532596    1.953251   -2.629478
     46          7           0        0.544928    1.072313   -2.343191
     47          1           0        1.190034    0.297482   -2.470251
     48          6           0        1.063596    2.150873   -1.513153
     49          1           0        0.761901    3.108666   -1.951965
     50          6           0        2.594043    1.979972   -1.522586
     51          6           0        0.506187    2.040006   -0.064145
     52          1           0        0.954561    1.147078    0.378622
     53          1           0       -0.570178    1.862002   -0.150352
     54          8           0        3.102251    0.879297   -1.718805
     55          6           0        0.750288    3.286191    0.799920
     56          1           0        1.788290    3.607199    0.703915
     57          1           0        0.116288    4.114682    0.473912
     58          6           0        0.557099    3.138942    2.309989
     59          7           0        0.940270    1.960654    2.843820
     60          1           0        1.578523    1.376767    2.321114
     61          1           0        0.975028    1.825375    3.850840
     62          8           0        0.111935    4.072375    2.996660
     63          7           0        3.308140    3.109815   -1.272082
     64          1           0        2.772549    3.936884   -1.033099
     65          6           0        4.622323    3.052514   -0.655428
     66          1           0        5.310209    2.529044   -1.328421
     67          6           0        4.538326    2.230593    0.659461
     68          6           0        5.147310    4.508935   -0.410855
     69          1           0        5.427331    4.928410   -1.383269
     70          1           0        6.058842    4.452877    0.194433
     71          8           0        3.468383    1.891469    1.161001
     72          6           0        4.093105    5.363302    0.257388
     73          6           0        3.193121    6.113636   -0.519356
     74          1           0        3.398795    6.261493   -1.578135
     75          6           0        3.837307    5.243506    1.631611
     76          1           0        4.541385    4.712480    2.269769
     77          6           0        1.998292    6.598684    0.014185
     78          1           0        1.268751    7.108672   -0.607045
     79          6           0        2.657211    5.744111    2.173363
     80          1           0        2.419110    5.604493    3.219603
     81          8           0        0.434115    6.593919    1.812717
     82          1           0        0.177406    5.828967    2.386179
     83          6           0        1.684854    6.332736    1.351897
     84          7           0        5.723437    1.888148    1.217297
     85          1           0        6.582760    2.288413    0.866941
     86          6           0        5.764765    1.175330    2.493130
     87          1           0        5.109843    0.303406    2.396418
     88          6           0        5.263069    2.094356    3.626943
     89          6           0        7.198238    0.737227    2.792481
     90          1           0        7.226328    0.149018    3.714526
     91          1           0        7.596881    0.123648    1.977864
     92          1           0        7.832812    1.618573    2.934178
     93          8           0        5.825729    3.172350    3.845513
     94          7           0        4.237129    1.618894    4.355061
     95          1           0        3.681394    0.825578    4.048562
     96          6           0        3.649199    2.348548    5.469072
     97          1           0        4.425424    2.478395    6.230521
     98          6           0        2.492082    1.487615    6.053986
     99          6           0        3.107579    3.748468    5.031649
    100          1           0        2.023622    3.813258    5.195223
    101          1           0        3.239459    3.807398    3.953672
    102          8           0        2.158882    1.754375    7.259431
    103          6           0        3.813212    4.943670    5.695232
    104          1           0        3.716484    5.834113    5.061168
    105          1           0        4.885004    4.727211    5.765101
    106          6           0        3.236796    5.311088    7.071923
    107          1           0        2.213614    5.684933    6.964091
    108          1           0        3.813368    6.117167    7.538904
    109          7           0        3.156500    4.153123    7.968993
    110          1           0        2.536475    3.369725    7.650550
    111          7           0        5.014375    4.532435    9.361348
    112          1           0        5.895516    4.148620    9.669804
    113          1           0        5.005735    5.516981    9.143410
    114          7           0        4.142258    2.395638    9.062109
    115          1           0        4.530306    2.069692    9.935448
    116          1           0        3.454267    1.817117    8.549119
    117          6           0        4.104823    3.709672    8.784863
    118          8           0        1.956026    0.665186    5.290840
 ---------------------------------------------------------------------

 SCF Done:  E(RB3LYP) =  -2837.81606920     A.U. after    1 cycles

 Alpha  occ. eigenvalues --  -19.30148 -19.26030 -19.21018 -19.18787 -19.18467
 Alpha  occ. eigenvalues --  -19.17607 -19.17535 -19.15253 -19.15195 -19.13362
 Alpha  occ. eigenvalues --  -19.12808 -14.58723 -14.48475 -14.45650 -14.44371
 Alpha  occ. eigenvalues --  -14.43285 -14.43017 -14.42493 -14.41867 -14.41135
 Alpha  occ. eigenvalues --  -14.39265 -14.37558 -10.42866 -10.40608 -10.40375
 Alpha  occ. eigenvalues --  -10.39747 -10.37963 -10.35810 -10.34468 -10.34397
 Alpha  occ. eigenvalues --  -10.33295 -10.32493 -10.32310 -10.31627 -10.31166
 Alpha  occ. eigenvalues --  -10.31127 -10.29542 -10.29291 -10.29274 -10.28408
 Alpha  occ. eigenvalues --  -10.28167 -10.27970 -10.25950 -10.25848 -10.25620
 Alpha  occ. eigenvalues --  -10.25560 -10.24832 -10.24347 -10.24016 -10.23661
 Alpha  occ. eigenvalues --  -10.23647 -10.23581 -10.23540 -10.22932 -10.22691
 Alpha  occ. eigenvalues --  -10.22551 -10.22526 -10.22159  -1.19065  -1.17223
 Alpha  occ. eigenvalues --   -1.13075  -1.12448  -1.10750  -1.10056  -1.09315
 Alpha  occ. eigenvalues --   -1.08861  -1.07251  -1.07048  -1.06114  -1.05954
 Alpha  occ. eigenvalues --   -1.05333  -1.01097  -0.99131  -0.98994  -0.98434
 Alpha  occ. eigenvalues --   -0.98069  -0.97694  -0.97104  -0.95508  -0.93189
 Alpha  occ. eigenvalues --   -0.93085  -0.89874  -0.89534  -0.86176  -0.85864
 Alpha  occ. eigenvalues --   -0.84704  -0.84340  -0.83169  -0.81828  -0.81682
 Alpha  occ. eigenvalues --   -0.78784  -0.78702  -0.78510  -0.78025  -0.76696
 Alpha  occ. eigenvalues --   -0.76269  -0.73941  -0.73678  -0.73367  -0.72584
 Alpha  occ. eigenvalues --   -0.71665  -0.71139  -0.70665  -0.70002  -0.69191
 Alpha  occ. eigenvalues --   -0.68343  -0.67009  -0.66471  -0.66152  -0.65985
 Alpha  occ. eigenvalues --   -0.65646  -0.65364  -0.65147  -0.64240  -0.64049
 Alpha  occ. eigenvalues --   -0.63526  -0.62454  -0.62233  -0.61687  -0.61557
 Alpha  occ. eigenvalues --   -0.61397  -0.60851  -0.59164  -0.58956  -0.58223
 Alpha  occ. eigenvalues --   -0.58020  -0.57596  -0.57205  -0.57134  -0.56785
 Alpha  occ. eigenvalues --   -0.56380  -0.56026  -0.55993  -0.54991  -0.54899
 Alpha  occ. eigenvalues --   -0.54490  -0.54235  -0.53758  -0.53509  -0.52722
 Alpha  occ. eigenvalues --   -0.52526  -0.52242  -0.51872  -0.51698  -0.51429
 Alpha  occ. eigenvalues --   -0.51231  -0.50856  -0.50713  -0.50389  -0.50097
 Alpha  occ. eigenvalues --   -0.50051  -0.49890  -0.49390  -0.49119  -0.48770
 Alpha  occ. eigenvalues --   -0.48553  -0.48441  -0.48124  -0.47939  -0.47844
 Alpha  occ. eigenvalues --   -0.47716  -0.47083  -0.46535  -0.46377  -0.46292
 Alpha  occ. eigenvalues --   -0.46039  -0.45930  -0.45698  -0.45589  -0.44921
 Alpha  occ. eigenvalues --   -0.44844  -0.44547  -0.44494  -0.44043  -0.43971
 Alpha  occ. eigenvalues --   -0.43880  -0.43625  -0.43480  -0.43195  -0.43099
 Alpha  occ. eigenvalues --   -0.42870  -0.42730  -0.42427  -0.42238  -0.41821
 Alpha  occ. eigenvalues --   -0.41358  -0.40848  -0.40825  -0.40310  -0.40209
 Alpha  occ. eigenvalues --   -0.40181  -0.40005  -0.39640  -0.39453  -0.39016
 Alpha  occ. eigenvalues --   -0.38807  -0.38329  -0.37955  -0.37917  -0.36646
 Alpha  occ. eigenvalues --   -0.36112  -0.35047  -0.34437  -0.34101  -0.33241
 Alpha  occ. eigenvalues --   -0.33090  -0.32654  -0.32328  -0.32185  -0.31184
 Alpha  occ. eigenvalues --   -0.30705  -0.30163  -0.29420  -0.29221  -0.29088
 Alpha  occ. eigenvalues --   -0.28794  -0.28574  -0.27299  -0.26771  -0.25571
 Alpha virt. eigenvalues --   -0.12024  -0.09565  -0.06895  -0.05783  -0.05214
 Alpha virt. eigenvalues --   -0.05023  -0.04762  -0.04394  -0.04187  -0.03230
 Alpha virt. eigenvalues --   -0.03057  -0.02148  -0.02072  -0.01733  -0.01699

 Mulliken charges:
               1
     1  N   -0.760156
     2  H    0.434902
     3  H    0.410045
     4  H    0.426825
     5  C   -0.121288
     6  H    0.225157
     7  C    0.663320
     8  C    0.097734
     9  H    0.194056
    10  O   -0.537816
    11  C   -0.472649
    12  H    0.183518
    13  H    0.153804
    14  H    0.190030
    15  O   -0.636920
    16  H    0.434938
    17  N   -0.597933
    18  H    0.369672
    19  C   -0.080263
    20  H    0.187178
    21  C    0.627064
    22  C   -0.072052
    23  H    0.140405
    24  O   -0.562443
    25  C   -0.250202
    26  H    0.118756
    27  H    0.150459
    28  C   -0.482463
    29  H    0.155223
    30  H    0.169692
    31  H    0.175985
    32  C   -0.454304
    33  H    0.154557
    34  H    0.164705
    35  H    0.149824
    36  N   -0.604511
    37  H    0.370287
    38  C   -0.055294
    39  H    0.188190
    40  C    0.631428
    41  C   -0.445461
    42  H    0.167408
    43  H    0.164767
    44  H    0.171281
    45  O   -0.548626
    46  N   -0.625232
    47  H    0.357247
    48  C   -0.052737
    49  H    0.174813
    50  C    0.635964
    51  C   -0.263691
    52  H    0.157520
    53  H    0.172900
    54  O   -0.541515
    55  C   -0.387289
    56  H    0.186038
    57  H    0.173270
    58  C    0.613105
    59  N   -0.757731
    60  H    0.365485
    61  H    0.379034
    62  O   -0.569479
    63  N   -0.613910
    64  H    0.357471
    65  C   -0.064671
    66  H    0.181411
    67  C    0.666940
    68  C   -0.376553
    69  H    0.166951
    70  H    0.161342
    71  O   -0.552496
    72  C    0.121354
    73  C   -0.226529
    74  H    0.133406
    75  C   -0.209646
    76  H    0.175082
    77  C   -0.158585
    78  H    0.143794
    79  C   -0.191108
    80  H    0.151395
    81  O   -0.687875
    82  H    0.445851
    83  C    0.353724
    84  N   -0.596647
    85  H    0.336622
    86  C   -0.029673
    87  H    0.163505
    88  C    0.640714
    89  C   -0.486008
    90  H    0.171361
    91  H    0.162083
    92  H    0.174670
    93  O   -0.564153
    94  N   -0.613511
    95  H    0.350099
    96  C   -0.021000
    97  H    0.137998
    98  C    0.586243
    99  C   -0.316222
   100  H    0.168791
   101  H    0.188704
   102  O   -0.628386
   103  C   -0.276003
   104  H    0.157668
   105  H    0.170330
   106  C   -0.174970
   107  H    0.187813
   108  H    0.141574
   109  N   -0.594032
   110  H    0.409308
   111  N   -0.757351
   112  H    0.365056
   113  H    0.369443
   114  N   -0.778717
   115  H    0.350941
   116  H    0.413849
   117  C    0.758933
   118  O   -0.552913
 Sum of Mulliken charges =   1.00000

 Dipole moment (field-independent basis, Debye):
    X=            -12.4208    Y=             -7.8434    Z=            -18.5598  Tot=             23.6699
 Quadrupole moment (field-independent basis, Debye-Ang):
   XX=            -81.5962   YY=           -276.5675   ZZ=              7.7724
   XY=            139.4711   XZ=            272.7938   YZ=            156.9861

 Normal termination of Gaussian 16 at Mon Jun 27 02:45:25 2022.
