 Gaussian 16, Revision C.01,
 Gaussian 16:  ES64L-G16RevC.01  3-Jul-2019

 ----------------------------------------------------------------------
 # B3LYP/6-31G* empiricaldispersion=gd3 guess=read geom=check nosymm in
 tegral(ultrafinegrid)
 ----------------------------------------------------------------------

 ------------------------------------------------------
 Candidate Structure: Conf:364 Charge calc in gas phase
 ------------------------------------------------------
 Structure from the checkpoint file:  "conf-364.chk"
 Charge =  1 Multiplicity = 1

                          Input orientation:
 ---------------------------------------------------------------------
 Center     Atomic      Atomic             Coordinates (Angstroms)
 Number     Number       Type             X           Y           Z
 ---------------------------------------------------------------------
      1          7           0       -0.569870    5.565123   -4.841470
      2          1           0       -1.244737    5.987808   -4.205794
      3          1           0       -0.637562    6.024564   -5.747089
      4          1           0        0.858248    5.914654   -4.181562
      5          6           0       -0.806190    4.123697   -5.020098
      6          1           0       -1.710916    3.941187   -5.619043
      7          6           0       -0.965318    3.439883   -3.651597
      8          6           0        0.385770    3.529372   -5.798829
      9          1           0        1.284681    3.675644   -5.178538
     10          8           0       -0.357467    3.830342   -2.648751
     11          6           0        0.215393    2.052327   -6.149341
     12          1           0        0.139280    1.412279   -5.265759
     13          1           0       -0.684146    1.906756   -6.757719
     14          1           0        1.074625    1.708640   -6.737924
     15          8           0        0.460203    4.331111   -6.980804
     16          1           0        1.196116    4.009416   -7.523216
     17          7           0       -1.818361    2.396069   -3.660518
     18          1           0       -2.168009    2.060658   -4.550202
     19          6           0       -2.052986    1.490022   -2.541840
     20          1           0       -1.418222    1.821304   -1.718272
     21          6           0       -1.651857    0.074924   -2.996820
     22          6           0       -3.551714    1.543393   -2.100596
     23          1           0       -3.725501    2.597048   -1.836685
     24          8           0       -1.864105   -0.311823   -4.149480
     25          6           0       -3.850368    0.687439   -0.851699
     26          1           0       -3.561275   -0.355695   -1.027043
     27          1           0       -4.939563    0.682953   -0.717158
     28          6           0       -4.507902    1.174642   -3.246747
     29          1           0       -4.366162    0.138709   -3.569378
     30          1           0       -4.373488    1.819182   -4.122678
     31          1           0       -5.545129    1.292661   -2.916475
     32          6           0       -3.200000    1.179809    0.444938
     33          1           0       -3.533472    0.570890    1.291599
     34          1           0       -3.473729    2.222994    0.649782
     35          1           0       -2.110024    1.112167    0.413946
     36          7           0       -1.111275   -0.681884   -2.023748
     37          1           0       -0.922381   -0.255387   -1.123151
     38          6           0       -0.918556   -2.125179   -2.111652
     39          1           0       -1.816517   -2.557649   -2.572613
     40          6           0       -0.889070   -2.595619   -0.639771
     41          6           0        0.296837   -2.482959   -2.973574
     42          1           0        0.398640   -3.567762   -3.097926
     43          1           0        1.218780   -2.077757   -2.539740
     44          1           0        0.156666   -2.042941   -3.963880
     45          8           0       -1.682303   -2.110102    0.166946
     46          7           0        0.064243   -3.489110   -0.264721
     47          1           0        0.786718   -3.740711   -0.925895
     48          6           0        0.338134   -3.764785    1.156584
     49          1           0       -0.602842   -3.617656    1.690682
     50          6           0        1.378222   -2.737590    1.677886
     51          6           0        0.822412   -5.199406    1.361667
     52          1           0        1.110516   -5.302998    2.410023
     53          1           0        1.731479   -5.367925    0.771355
     54          8           0        2.474107   -3.075762    2.112805
     55          6           0       -0.237622   -6.245259    1.010538
     56          1           0       -0.620083   -6.091116   -0.007288
     57          1           0        0.211881   -7.247112    1.024064
     58          6           0       -1.415186   -6.230604    1.991649
     59          7           0       -2.420601   -7.105385    1.695509
     60          1           0       -2.332374   -7.803949    0.972710
     61          1           0       -3.183167   -7.190523    2.353294
     62          8           0       -1.462751   -5.482600    2.959454
     63          7           0        0.970228   -1.441701    1.550199
     64          1           0        0.032657   -1.272299    1.196846
     65          6           0        1.833319   -0.274761    1.604946
     66          1           0        2.077483   -0.016419    2.643877
     67          6           0        1.057246    0.875394    0.940920
     68          6           0        3.166284   -0.497422    0.820370
     69          1           0        2.907749   -0.700747   -0.225454
     70          1           0        3.622644   -1.401082    1.230498
     71          8           0        0.138424    0.626570    0.150015
     72          6           0        4.112545    0.670961    0.920893
     73          6           0        4.412014    1.467593   -0.190653
     74          1           0        3.979747    1.220440   -1.156592
     75          6           0        4.672993    1.024741    2.156690
     76          1           0        4.474315    0.411776    3.032031
     77          6           0        5.232900    2.587399   -0.081078
     78          1           0        5.441167    3.206951   -0.947166
     79          6           0        5.481313    2.153193    2.288606
     80          1           0        5.900749    2.418230    3.256633
     81          8           0        6.542332    4.072988    1.242169
     82          1           0        6.690306    4.309448    2.171617
     83          6           0        5.747472    2.933927    1.166142
     84          7           0        1.448833    2.139197    1.181541
     85          1           0        2.216791    2.357842    1.804914
     86          6           0        0.886216    3.231370    0.392500
     87          1           0        0.594435    2.816518   -0.573633
     88          6           0        1.931776    4.330622    0.206955
     89          6           0       -0.356927    3.850815    1.052850
     90          1           0       -0.785301    4.613543    0.394428
     91          1           0       -1.108009    3.075700    1.221071
     92          1           0       -0.091129    4.311215    2.009336
     93          8           0        2.654362    4.701599    1.131784
     94          7           0        1.909761    4.882523   -1.034201
     95          1           0        1.254704    4.476205   -1.701153
     96          6           0        2.293293    6.272065   -1.321946
     97          1           0        2.038275    6.895437   -0.459431
     98          6           0        1.377347    6.665709   -2.488945
     99          6           0        3.773471    6.469766   -1.686126
    100          1           0        3.882263    7.493460   -2.076553
    101          1           0        4.001552    5.782917   -2.510194
    102          8           0        0.437962    7.426638   -2.382840
    103          6           0        4.735607    6.266379   -0.511939
    104          1           0        4.698817    5.235786   -0.160965
    105          1           0        4.415249    6.876331    0.340779
    106          6           0        6.171425    6.676338   -0.845685
    107          1           0        6.844565    6.476766   -0.010619
    108          1           0        6.225739    7.749869   -1.060855
    109          7           0        6.710912    5.990825   -2.040951
    110          1           0        6.259689    6.218196   -2.918118
    111          7           0        8.174327    4.501679   -1.002291
    112          1           0        9.037742    3.979858   -1.049005
    113          1           0        7.617164    4.417142   -0.143391
    114          7           0        8.250986    4.814162   -3.298336
    115          1           0        8.836292    4.001258   -3.423617
    116          1           0        8.155825    5.442544   -4.083032
    117          6           0        7.704411    5.103770   -2.097559
    118          8           0        1.704818    5.986104   -3.588678
 ---------------------------------------------------------------------

 SCF Done:  E(RB3LYP) =  -2837.84057254     A.U. after    3 cycles

 Alpha  occ. eigenvalues --  -19.30407 -19.22474 -19.22330 -19.20169 -19.20014
 Alpha  occ. eigenvalues --  -19.18974 -19.18922 -19.18319 -19.17586 -19.17469
 Alpha  occ. eigenvalues --  -19.15950 -14.52528 -14.52288 -14.51170 -14.43992
 Alpha  occ. eigenvalues --  -14.43692 -14.43348 -14.42607 -14.41888 -14.41520
 Alpha  occ. eigenvalues --  -14.41262 -14.40340 -10.48585 -10.37096 -10.37087
 Alpha  occ. eigenvalues --  -10.37057 -10.35744 -10.35730 -10.35147 -10.34959
 Alpha  occ. eigenvalues --  -10.34573 -10.34398 -10.33698 -10.32055 -10.31495
 Alpha  occ. eigenvalues --  -10.30910 -10.30680 -10.30262 -10.29845 -10.29145
 Alpha  occ. eigenvalues --  -10.28876 -10.28770 -10.28614 -10.28459 -10.28399
 Alpha  occ. eigenvalues --  -10.28339 -10.28001 -10.27903 -10.26859 -10.25185
 Alpha  occ. eigenvalues --  -10.25165 -10.24954 -10.24912 -10.24193 -10.24093
 Alpha  occ. eigenvalues --  -10.22448 -10.22326 -10.21249  -1.17541  -1.16796
 Alpha  occ. eigenvalues --   -1.14415  -1.12329  -1.11569  -1.10719  -1.10446
 Alpha  occ. eigenvalues --   -1.09917  -1.09253  -1.08995  -1.07757  -1.06133
 Alpha  occ. eigenvalues --   -1.05795  -1.04825  -1.00274  -1.00195  -0.99536
 Alpha  occ. eigenvalues --   -0.99481  -0.98455  -0.98180  -0.97898  -0.95054
 Alpha  occ. eigenvalues --   -0.94995  -0.90277  -0.87646  -0.86978  -0.85613
 Alpha  occ. eigenvalues --   -0.85502  -0.84545  -0.84317  -0.83380  -0.83120
 Alpha  occ. eigenvalues --   -0.81317  -0.79672  -0.79341  -0.77567  -0.77001
 Alpha  occ. eigenvalues --   -0.76883  -0.75393  -0.74776  -0.74321  -0.72546
 Alpha  occ. eigenvalues --   -0.72445  -0.71833  -0.71399  -0.69292  -0.69125
 Alpha  occ. eigenvalues --   -0.69064  -0.68092  -0.67444  -0.66823  -0.66313
 Alpha  occ. eigenvalues --   -0.66077  -0.65860  -0.65471  -0.65290  -0.64674
 Alpha  occ. eigenvalues --   -0.64539  -0.64171  -0.63469  -0.62901  -0.62127
 Alpha  occ. eigenvalues --   -0.61906  -0.61419  -0.60389  -0.59688  -0.59255
 Alpha  occ. eigenvalues --   -0.58604  -0.58202  -0.58023  -0.57300  -0.56610
 Alpha  occ. eigenvalues --   -0.56282  -0.56027  -0.55679  -0.55394  -0.55102
 Alpha  occ. eigenvalues --   -0.55038  -0.54310  -0.53806  -0.53711  -0.53469
 Alpha  occ. eigenvalues --   -0.53303  -0.52888  -0.52632  -0.52408  -0.52165
 Alpha  occ. eigenvalues --   -0.52120  -0.52035  -0.51785  -0.51493  -0.51335
 Alpha  occ. eigenvalues --   -0.51084  -0.50594  -0.50125  -0.49673  -0.49455
 Alpha  occ. eigenvalues --   -0.49254  -0.49174  -0.48838  -0.48592  -0.48098
 Alpha  occ. eigenvalues --   -0.47875  -0.47623  -0.47380  -0.47136  -0.46866
 Alpha  occ. eigenvalues --   -0.46677  -0.46460  -0.46313  -0.46064  -0.45823
 Alpha  occ. eigenvalues --   -0.45349  -0.45258  -0.45187  -0.45001  -0.44651
 Alpha  occ. eigenvalues --   -0.44549  -0.44394  -0.44255  -0.44130  -0.43899
 Alpha  occ. eigenvalues --   -0.43770  -0.43592  -0.43359  -0.43211  -0.42950
 Alpha  occ. eigenvalues --   -0.42645  -0.42324  -0.42058  -0.41945  -0.41762
 Alpha  occ. eigenvalues --   -0.41154  -0.41042  -0.41006  -0.40658  -0.40457
 Alpha  occ. eigenvalues --   -0.40126  -0.39531  -0.37926  -0.37802  -0.37072
 Alpha  occ. eigenvalues --   -0.36405  -0.35106  -0.35063  -0.34656  -0.34385
 Alpha  occ. eigenvalues --   -0.34269  -0.34064  -0.33795  -0.33469  -0.33299
 Alpha  occ. eigenvalues --   -0.32505  -0.32102  -0.31922  -0.31482  -0.31368
 Alpha  occ. eigenvalues --   -0.31133  -0.30883  -0.30698  -0.29977  -0.29635
 Alpha virt. eigenvalues --   -0.12682  -0.10184  -0.08797  -0.08634  -0.06704
 Alpha virt. eigenvalues --   -0.06349  -0.06010  -0.05832  -0.05062  -0.04299
 Alpha virt. eigenvalues --   -0.03706  -0.03675  -0.03158  -0.02767  -0.01957

 Mulliken charges:
               1
     1  N   -0.790747
     2  H    0.351563
     3  H    0.356066
     4  H    0.482056
     5  C   -0.060314
     6  H    0.154806
     7  C    0.604083
     8  C    0.153682
     9  H    0.136852
    10  O   -0.546350
    11  C   -0.489605
    12  H    0.176625
    13  H    0.168965
    14  H    0.144637
    15  O   -0.638156
    16  H    0.401241
    17  N   -0.585345
    18  H    0.357572
    19  C   -0.105162
    20  H    0.198642
    21  C    0.627894
    22  C   -0.068995
    23  H    0.135391
    24  O   -0.562476
    25  C   -0.271956
    26  H    0.161900
    27  H    0.140371
    28  C   -0.465817
    29  H    0.171533
    30  H    0.129420
    31  H    0.154974
    32  C   -0.480879
    33  H    0.159577
    34  H    0.135719
    35  H    0.173330
    36  N   -0.640413
    37  H    0.424193
    38  C   -0.004235
    39  H    0.193113
    40  C    0.567153
    41  C   -0.482311
    42  H    0.150533
    43  H    0.144173
    44  H    0.197667
    45  O   -0.514874
    46  N   -0.600797
    47  H    0.336688
    48  C   -0.094780
    49  H    0.235805
    50  C    0.625976
    51  C   -0.261471
    52  H    0.191729
    53  H    0.136350
    54  O   -0.525457
    55  C   -0.380971
    56  H    0.160963
    57  H    0.168331
    58  C    0.604639
    59  N   -0.745949
    60  H    0.337906
    61  H    0.348636
    62  O   -0.501950
    63  N   -0.656921
    64  H    0.387263
    65  C    0.005705
    66  H    0.170183
    67  C    0.602334
    68  C   -0.387331
    69  H    0.148709
    70  H    0.223535
    71  O   -0.551293
    72  C    0.160110
    73  C   -0.186853
    74  H    0.142134
    75  C   -0.208962
    76  H    0.165552
    77  C   -0.163348
    78  H    0.123392
    79  C   -0.175071
    80  H    0.146975
    81  O   -0.701591
    82  H    0.434346
    83  C    0.370212
    84  N   -0.601341
    85  H    0.353310
    86  C   -0.057619
    87  H    0.194569
    88  C    0.600957
    89  C   -0.457642
    90  H    0.171345
    91  H    0.184021
    92  H    0.165758
    93  O   -0.552885
    94  N   -0.657380
    95  H    0.410920
    96  C    0.013902
    97  H    0.179437
    98  C    0.535059
    99  C   -0.289332
   100  H    0.144237
   101  H    0.143683
   102  O   -0.472056
   103  C   -0.272195
   104  H    0.200369
   105  H    0.173846
   106  C   -0.175162
   107  H    0.176889
   108  H    0.187714
   109  N   -0.592110
   110  H    0.364375
   111  N   -0.788062
   112  H    0.369857
   113  H    0.445634
   114  N   -0.764205
   115  H    0.379406
   116  H    0.380488
   117  C    0.803060
   118  O   -0.629672
 Sum of Mulliken charges =   1.00000

 Dipole moment (field-independent basis, Debye):
    X=             29.2175    Y=             14.3126    Z=            -13.0795  Tot=             35.0654
 Quadrupole moment (field-independent basis, Debye-Ang):
   XX=            -89.0425   YY=           -207.3009   ZZ=           -281.7631
   XY=            152.9995   XZ=            -54.6463   YZ=            -36.9985

 Normal termination of Gaussian 16 at Mon Jun 27 02:46:40 2022.
