 Gaussian 16, Revision C.01,
 Gaussian 16:  ES64L-G16RevC.01  3-Jul-2019

 ----------------------------------------------------------------------
 # B3LYP/6-31G* empiricaldispersion=gd3 guess=read geom=check nosymm in
 tegral(ultrafinegrid)
 ----------------------------------------------------------------------

 ------------------------------------------------------
 Candidate Structure: Conf:242 Charge calc in gas phase
 ------------------------------------------------------
 Structure from the checkpoint file:  "conf-242.chk"
 Charge =  1 Multiplicity = 1

                          Input orientation:
 ---------------------------------------------------------------------
 Center     Atomic      Atomic             Coordinates (Angstroms)
 Number     Number       Type             X           Y           Z
 ---------------------------------------------------------------------
      1          7           0       -6.614095   -3.403620   -6.717515
      2          1           0       -7.124771   -3.521119   -5.802091
      3          1           0       -6.603123   -4.262033   -7.271023
      4          1           0       -7.072653   -2.635441   -7.238628
      5          6           0       -5.259539   -2.895034   -6.301073
      6          1           0       -4.542079   -3.719305   -6.341873
      7          6           0       -5.484146   -2.471674   -4.822400
      8          6           0       -4.868087   -1.743723   -7.264377
      9          1           0       -4.041298   -1.180327   -6.816484
     10          8           0       -6.563143   -2.766833   -4.291253
     11          6           0       -4.456530   -2.248533   -8.641456
     12          1           0       -3.586133   -2.908789   -8.572806
     13          1           0       -5.275172   -2.793338   -9.126418
     14          1           0       -4.204824   -1.398552   -9.279681
     15          8           0       -6.020109   -0.917021   -7.433856
     16          1           0       -6.061177   -0.252744   -6.726296
     17          7           0       -4.490597   -1.807603   -4.242917
     18          1           0       -3.588838   -1.667685   -4.695292
     19          6           0       -4.469857   -1.437746   -2.823022
     20          1           0       -5.455843   -1.042257   -2.566538
     21          6           0       -3.387436   -0.351278   -2.732743
     22          6           0       -4.146578   -2.676090   -1.922649
     23          1           0       -5.010947   -3.343254   -2.045465
     24          8           0       -2.397084   -0.418762   -3.473966
     25          6           0       -4.058777   -2.301346   -0.428906
     26          1           0       -3.267579   -1.557042   -0.278895
     27          1           0       -3.723004   -3.193355    0.111514
     28          6           0       -2.889781   -3.417953   -2.405838
     29          1           0       -2.030087   -2.746916   -2.484093
     30          1           0       -3.046916   -3.869872   -3.392694
     31          1           0       -2.624122   -4.211656   -1.703474
     32          6           0       -5.372748   -1.801508    0.183508
     33          1           0       -5.255348   -1.620373    1.256388
     34          1           0       -6.174023   -2.538224    0.053314
     35          1           0       -5.729273   -0.861891   -0.261317
     36          7           0       -3.575987    0.625057   -1.825949
     37          1           0       -4.362772    0.558627   -1.191423
     38          6           0       -2.544121    1.625076   -1.500869
     39          1           0       -1.938896    1.736762   -2.405057
     40          6           0       -1.662199    1.064771   -0.360213
     41          6           0       -3.182919    2.950240   -1.106016
     42          1           0       -2.403684    3.682585   -0.881321
     43          1           0       -3.783585    2.835209   -0.198765
     44          1           0       -3.809550    3.330007   -1.918298
     45          8           0       -1.717865    1.515649    0.778781
     46          7           0       -0.878664    0.009679   -0.707292
     47          1           0       -0.843179   -0.284840   -1.676786
     48          6           0       -0.158857   -0.779446    0.298785
     49          1           0       -0.684197   -0.597667    1.243445
     50          6           0        1.293138   -0.275828    0.466310
     51          6           0       -0.227520   -2.261950   -0.058854
     52          1           0        0.400644   -2.457587   -0.935937
     53          1           0       -1.257930   -2.500305   -0.321959
     54          8           0        2.263800   -1.010941    0.268720
     55          6           0        0.185153   -3.193719    1.082598
     56          1           0        1.271509   -3.189196    1.206117
     57          1           0       -0.248307   -2.837370    2.028562
     58          6           0       -0.370248   -4.601630    0.862987
     59          7           0        0.419872   -5.616351    1.304418
     60          1           0        1.307683   -5.454319    1.755157
     61          1           0        0.065577   -6.561685    1.256375
     62          8           0       -1.467278   -4.807854    0.347521
     63          7           0        1.396026    1.016388    0.840646
     64          1           0        0.574665    1.598804    0.997183
     65          6           0        2.681491    1.666976    1.003390
     66          1           0        3.320918    1.039319    1.634361
     67          6           0        2.412264    3.031646    1.654497
     68          6           0        3.395309    1.874372   -0.369552
     69          1           0        2.918800    2.716424   -0.883952
     70          1           0        3.209620    0.973190   -0.960136
     71          8           0        1.323278    3.590037    1.502649
     72          6           0        4.885550    2.082327   -0.241213
     73          6           0        5.470686    3.353868   -0.282434
     74          1           0        4.842650    4.231468   -0.407466
     75          6           0        5.721330    0.973921   -0.046982
     76          1           0        5.279704   -0.018757    0.001000
     77          6           0        6.848636    3.521707   -0.158103
     78          1           0        7.287675    4.511939   -0.188042
     79          6           0        7.101734    1.123932    0.078983
     80          1           0        7.738293    0.252318    0.219951
     81          8           0        9.034704    2.601082    0.108389
     82          1           0        9.468940    1.748628    0.271701
     83          6           0        7.658159    2.401095    0.013859
     84          7           0        3.452944    3.572249    2.310371
     85          1           0        4.347981    3.098810    2.400999
     86          6           0        3.456740    4.943571    2.799657
     87          1           0        2.969428    5.576700    2.049345
     88          6           0        4.943333    5.330100    2.952117
     89          6           0        2.707043    5.080582    4.133598
     90          1           0        2.711333    6.122554    4.469229
     91          1           0        1.672227    4.752842    4.002130
     92          1           0        3.186589    4.463180    4.900390
     93          8           0        5.786324    4.434000    3.102264
     94          7           0        5.174058    6.649093    2.934793
     95          1           0        4.439711    7.284647    2.614408
     96          6           0        6.452311    7.358126    2.892624
     97          1           0        6.590865    7.896405    3.841413
     98          6           0        6.280009    8.447138    1.718701
     99          6           0        7.689551    6.571405    2.535209
    100          1           0        8.361666    7.397465    2.313213
    101          1           0        7.469666    6.062184    1.592498
    102          8           0        7.319114    8.738911    1.048820
    103          6           0        8.526204    5.638872    3.396086
    104          1           0        8.074385    4.649974    3.493952
    105          1           0        8.688775    6.039850    4.404786
    106          6           0        9.893893    5.579168    2.680926
    107          1           0       10.571034    4.850819    3.139595
    108          1           0       10.384236    6.556896    2.708343
    109          7           0        9.779089    5.188478    1.260862
    110          1           0        9.624240    4.196205    1.092395
    111          7           0        9.498742    7.281222    0.161841
    112          1           0        9.670901    7.731044   -0.729654
    113          1           0        8.722262    7.769022    0.693884
    114          7           0        9.886459    5.325770   -1.032923
    115          1           0        9.390322    5.697493   -1.831892
    116          1           0        9.982181    4.316411   -1.025215
    117          6           0        9.690841    5.953022    0.165756
    118          8           0        5.121789    8.874693    1.579310
 ---------------------------------------------------------------------

 SCF Done:  E(RB3LYP) =  -2837.76438117     A.U. after    2 cycles

 Alpha  occ. eigenvalues --  -19.31195 -19.27498 -19.27100 -19.23131 -19.19312
 Alpha  occ. eigenvalues --  -19.17646 -19.17080 -19.15504 -19.14123 -19.09395
 Alpha  occ. eigenvalues --  -19.08461 -14.60058 -14.50511 -14.47300 -14.44560
 Alpha  occ. eigenvalues --  -14.44420 -14.43642 -14.42170 -14.41874 -14.40580
 Alpha  occ. eigenvalues --  -14.39457 -14.37486 -10.44420 -10.41354 -10.40746
 Alpha  occ. eigenvalues --  -10.40355 -10.40093 -10.36349 -10.35371 -10.34973
 Alpha  occ. eigenvalues --  -10.33992 -10.32732 -10.32230 -10.31870 -10.31832
 Alpha  occ. eigenvalues --  -10.31241 -10.29731 -10.29130 -10.28403 -10.28273
 Alpha  occ. eigenvalues --  -10.27139 -10.26404 -10.26371 -10.25950 -10.25646
 Alpha  occ. eigenvalues --  -10.25620 -10.25584 -10.25375 -10.25159 -10.25123
 Alpha  occ. eigenvalues --  -10.25113 -10.25063 -10.24979 -10.24378 -10.23449
 Alpha  occ. eigenvalues --  -10.21953 -10.20980 -10.20334  -1.20364  -1.18375
 Alpha  occ. eigenvalues --   -1.15054  -1.14084  -1.13925  -1.11307  -1.09287
 Alpha  occ. eigenvalues --   -1.08773  -1.08533  -1.07453  -1.07048  -1.05666
 Alpha  occ. eigenvalues --   -1.03403  -1.02106  -0.99890  -0.98329  -0.97187
 Alpha  occ. eigenvalues --   -0.96683  -0.96098  -0.96048  -0.94483  -0.94112
 Alpha  occ. eigenvalues --   -0.93099  -0.91677  -0.90997  -0.87045  -0.86922
 Alpha  occ. eigenvalues --   -0.85470  -0.84494  -0.83749  -0.82816  -0.81134
 Alpha  occ. eigenvalues --   -0.80783  -0.80295  -0.79586  -0.77735  -0.76909
 Alpha  occ. eigenvalues --   -0.76514  -0.75128  -0.74313  -0.73350  -0.72776
 Alpha  occ. eigenvalues --   -0.72254  -0.71971  -0.70999  -0.70470  -0.69774
 Alpha  occ. eigenvalues --   -0.69253  -0.68743  -0.68689  -0.67552  -0.66897
 Alpha  occ. eigenvalues --   -0.66071  -0.65732  -0.65498  -0.65317  -0.64148
 Alpha  occ. eigenvalues --   -0.63809  -0.63033  -0.62892  -0.62131  -0.61714
 Alpha  occ. eigenvalues --   -0.61410  -0.61224  -0.60817  -0.60127  -0.59567
 Alpha  occ. eigenvalues --   -0.59199  -0.58442  -0.58065  -0.57510  -0.57445
 Alpha  occ. eigenvalues --   -0.56831  -0.56319  -0.56123  -0.55921  -0.55759
 Alpha  occ. eigenvalues --   -0.54986  -0.54143  -0.53766  -0.53707  -0.53322
 Alpha  occ. eigenvalues --   -0.53298  -0.52643  -0.52169  -0.51939  -0.51727
 Alpha  occ. eigenvalues --   -0.51411  -0.51253  -0.50896  -0.50852  -0.50593
 Alpha  occ. eigenvalues --   -0.50468  -0.50107  -0.49808  -0.49555  -0.49235
 Alpha  occ. eigenvalues --   -0.49109  -0.48949  -0.48727  -0.48506  -0.48357
 Alpha  occ. eigenvalues --   -0.48120  -0.47835  -0.47592  -0.47137  -0.46933
 Alpha  occ. eigenvalues --   -0.46698  -0.46553  -0.46229  -0.45554  -0.45352
 Alpha  occ. eigenvalues --   -0.45197  -0.44955  -0.44574  -0.44564  -0.44417
 Alpha  occ. eigenvalues --   -0.44201  -0.43773  -0.43537  -0.43159  -0.43105
 Alpha  occ. eigenvalues --   -0.42847  -0.42843  -0.42471  -0.41960  -0.41710
 Alpha  occ. eigenvalues --   -0.41504  -0.41310  -0.40933  -0.40783  -0.40468
 Alpha  occ. eigenvalues --   -0.40358  -0.40237  -0.39786  -0.39641  -0.39254
 Alpha  occ. eigenvalues --   -0.39043  -0.38205  -0.37927  -0.37756  -0.37501
 Alpha  occ. eigenvalues --   -0.36661  -0.36636  -0.35890  -0.34946  -0.34390
 Alpha  occ. eigenvalues --   -0.33197  -0.33140  -0.32424  -0.31679  -0.31536
 Alpha  occ. eigenvalues --   -0.30871  -0.30245  -0.29767  -0.29197  -0.28524
 Alpha  occ. eigenvalues --   -0.28217  -0.27521  -0.24511  -0.23432  -0.22645
 Alpha virt. eigenvalues --   -0.13628  -0.10520  -0.09532  -0.07197  -0.06622
 Alpha virt. eigenvalues --   -0.06315  -0.06101  -0.05701  -0.05430  -0.03678
 Alpha virt. eigenvalues --   -0.03371  -0.03164  -0.02762  -0.02690  -0.01982

 Mulliken charges:
               1
     1  N   -0.754629
     2  H    0.433507
     3  H    0.414792
     4  H    0.424629
     5  C   -0.120742
     6  H    0.227527
     7  C    0.639861
     8  C    0.075369
     9  H    0.187082
    10  O   -0.533822
    11  C   -0.451403
    12  H    0.177641
    13  H    0.153386
    14  H    0.212114
    15  O   -0.615979
    16  H    0.431547
    17  N   -0.613227
    18  H    0.370906
    19  C   -0.054683
    20  H    0.183774
    21  C    0.624477
    22  C   -0.089323
    23  H    0.156623
    24  O   -0.563581
    25  C   -0.297529
    26  H    0.150254
    27  H    0.194724
    28  C   -0.486848
    29  H    0.162564
    30  H    0.106650
    31  H    0.220288
    32  C   -0.463612
    33  H    0.176578
    34  H    0.163154
    35  H    0.119463
    36  N   -0.592557
    37  H    0.355089
    38  C   -0.082435
    39  H    0.193641
    40  C    0.623125
    41  C   -0.454384
    42  H    0.198412
    43  H    0.174796
    44  H    0.152968
    45  O   -0.508897
    46  N   -0.619508
    47  H    0.352432
    48  C   -0.068433
    49  H    0.188319
    50  C    0.635046
    51  C   -0.294991
    52  H    0.156429
    53  H    0.185012
    54  O   -0.551238
    55  C   -0.376998
    56  H    0.183145
    57  H    0.173754
    58  C    0.602263
    59  N   -0.741224
    60  H    0.347200
    61  H    0.346893
    62  O   -0.524718
    63  N   -0.634505
    64  H    0.382812
    65  C   -0.012131
    66  H    0.167647
    67  C    0.602948
    68  C   -0.363585
    69  H    0.158148
    70  H    0.178097
    71  O   -0.547548
    72  C    0.148050
    73  C   -0.189622
    74  H    0.154259
    75  C   -0.193058
    76  H    0.162491
    77  C   -0.142186
    78  H    0.137888
    79  C   -0.179867
    80  H    0.131592
    81  O   -0.693343
    82  H    0.425358
    83  C    0.339758
    84  N   -0.614192
    85  H    0.357070
    86  C   -0.037512
    87  H    0.172622
    88  C    0.608565
    89  C   -0.443808
    90  H    0.160208
    91  H    0.178670
    92  H    0.155361
    93  O   -0.570013
    94  N   -0.612301
    95  H    0.352295
    96  C   -0.068695
    97  H    0.148587
    98  C    0.600247
    99  C   -0.270747
   100  H    0.148850
   101  H    0.130922
   102  O   -0.609797
   103  C   -0.258868
   104  H    0.178868
   105  H    0.145249
   106  C   -0.175951
   107  H    0.159931
   108  H    0.187783
   109  N   -0.590669
   110  H    0.386077
   111  N   -0.772412
   112  H    0.347435
   113  H    0.443698
   114  N   -0.753838
   115  H    0.355572
   116  H    0.368040
   117  C    0.716559
   118  O   -0.571685
 Sum of Mulliken charges =   1.00000

 Dipole moment (field-independent basis, Debye):
    X=            -10.3925    Y=            -19.2252    Z=            -27.4093  Tot=             35.0554
 Quadrupole moment (field-independent basis, Debye-Ang):
   XX=            -44.5665   YY=           -380.6790   ZZ=           -153.1634
   XY=             57.8913   XZ=            139.7080   YZ=             43.5660

 Normal termination of Gaussian 16 at Mon Jun 27 02:45:48 2022.
