 Gaussian 16, Revision C.01,
 Gaussian 16:  ES64L-G16RevC.01  3-Jul-2019

 ----------------------------------------------------------------------
 # B3LYP/6-31G* empiricaldispersion=gd3 guess=read geom=check nosymm in
 tegral(ultrafinegrid)
 ----------------------------------------------------------------------

 ------------------------------------------------------
 Candidate Structure: Conf:662 Charge calc in gas phase
 ------------------------------------------------------
 Structure from the checkpoint file:  "conf-662.chk"
 Charge =  1 Multiplicity = 1

                          Input orientation:
 ---------------------------------------------------------------------
 Center     Atomic      Atomic             Coordinates (Angstroms)
 Number     Number       Type             X           Y           Z
 ---------------------------------------------------------------------
      1          7           0       -5.315425   -6.998683    0.105439
      2          1           0       -5.355111   -6.898379    1.123054
      3          1           0       -4.975177   -7.941541   -0.144053
      4          1           0       -6.261542   -6.779746   -0.288918
      5          6           0       -4.411419   -5.986816   -0.552352
      6          1           0       -3.632176   -5.701003    0.157502
      7          6           0       -5.362152   -4.830164   -0.937855
      8          6           0       -3.785135   -6.665640   -1.793456
      9          1           0       -4.572755   -6.766578   -2.557062
     10          8           0       -6.565174   -5.098491   -1.046590
     11          6           0       -2.600498   -5.889458   -2.354480
     12          1           0       -2.891772   -4.903275   -2.729514
     13          1           0       -1.823042   -5.771281   -1.592236
     14          1           0       -2.169071   -6.443052   -3.195408
     15          8           0       -3.411154   -7.962221   -1.306885
     16          1           0       -3.029539   -8.480698   -2.032907
     17          7           0       -4.785543   -3.651029   -1.141712
     18          1           0       -3.770349   -3.587272   -1.163822
     19          6           0       -5.437448   -2.502923   -1.774720
     20          1           0       -6.324026   -2.875020   -2.299713
     21          6           0       -4.403434   -1.986187   -2.803340
     22          6           0       -5.860439   -1.431900   -0.733664
     23          1           0       -6.307529   -0.604395   -1.305208
     24          8           0       -3.302939   -2.542753   -2.907508
     25          6           0       -4.640789   -0.880856    0.028877
     26          1           0       -3.857121   -0.613360   -0.689316
     27          1           0       -4.221916   -1.681325    0.655270
     28          6           0       -6.946098   -1.991997    0.194997
     29          1           0       -6.538832   -2.784648    0.833761
     30          1           0       -7.784394   -2.414633   -0.369141
     31          1           0       -7.335359   -1.207412    0.848769
     32          6           0       -4.936276    0.342861    0.900404
     33          1           0       -4.014422    0.687236    1.378266
     34          1           0       -5.662347    0.117708    1.689563
     35          1           0       -5.341706    1.163363    0.294431
     36          7           0       -4.768315   -0.925990   -3.543792
     37          1           0       -5.636504   -0.450647   -3.333086
     38          6           0       -3.841228   -0.239297   -4.463737
     39          1           0       -3.191122   -1.015696   -4.876137
     40          6           0       -2.978162    0.760217   -3.643712
     41          6           0       -4.621043    0.450392   -5.573967
     42          1           0       -3.922070    0.872594   -6.299011
     43          1           0       -5.219081    1.273381   -5.169136
     44          1           0       -5.275540   -0.265017   -6.081670
     45          8           0       -3.199363    1.975060   -3.671204
     46          7           0       -2.041021    0.160672   -2.887614
     47          1           0       -1.836124   -0.824076   -3.038970
     48          6           0       -1.049351    0.856077   -2.076461
     49          1           0       -1.012877    1.895120   -2.413502
     50          6           0        0.298964    0.172052   -2.388615
     51          6           0       -1.431377    0.812109   -0.584157
     52          1           0       -1.500620   -0.230272   -0.253407
     53          1           0       -2.435810    1.239985   -0.497079
     54          8           0        0.329321   -0.954788   -2.890473
     55          6           0       -0.471861    1.587117    0.315288
     56          1           0        0.512953    1.103574    0.341002
     57          1           0       -0.296938    2.599095   -0.068104
     58          6           0       -0.975767    1.684621    1.752033
     59          7           0       -0.327118    2.615093    2.497129
     60          1           0        0.288279    3.300629    2.050786
     61          1           0       -0.661185    2.768167    3.438080
     62          8           0       -1.865082    0.958329    2.202617
     63          7           0        1.391397    0.904772   -2.095276
     64          1           0        1.311221    1.846954   -1.704286
     65          6           0        2.691687    0.602397   -2.651378
     66          1           0        2.619905   -0.404788   -3.074723
     67          6           0        3.709313    0.552194   -1.494230
     68          6           0        3.030995    1.620101   -3.796022
     69          1           0        3.828471    1.200772   -4.424127
     70          1           0        3.398456    2.545981   -3.341011
     71          8           0        3.404832    0.145033   -0.381758
     72          6           0        1.798818    1.935639   -4.612779
     73          6           0        1.349704    1.086937   -5.629988
     74          1           0        1.971231    0.252356   -5.947212
     75          6           0        0.971931    2.998316   -4.218344
     76          1           0        1.292711    3.651410   -3.410356
     77          6           0        0.086210    1.249044   -6.200057
     78          1           0       -0.280778    0.566250   -6.960285
     79          6           0       -0.291044    3.168088   -4.776598
     80          1           0       -0.943224    3.966839   -4.434585
     81          8           0       -2.027905    2.351800   -6.247102
     82          1           0       -2.606795    2.642474   -5.515521
     83          6           0       -0.753260    2.267766   -5.743483
     84          7           0        4.978282    1.003772   -1.759295
     85          1           0        5.190153    1.417716   -2.655358
     86          6           0        5.926295    1.184849   -0.666403
     87          1           0        6.035154    0.234548   -0.136224
     88          6           0        5.417618    2.167386    0.416048
     89          6           0        7.284003    1.641240   -1.204625
     90          1           0        7.978186    1.771591   -0.370017
     91          1           0        7.701561    0.901084   -1.895504
     92          1           0        7.195129    2.600624   -1.729930
     93          8           0        5.861376    2.094236    1.562483
     94          7           0        4.531738    3.106764   -0.003254
     95          1           0        4.111051    2.975103   -0.921936
     96          6           0        3.527856    3.682290    0.884814
     97          1           0        3.356605    2.984633    1.715297
     98          6           0        2.177368    3.799959    0.102564
     99          6           0        3.930249    5.041946    1.468383
    100          1           0        3.073612    5.414047    2.041605
    101          1           0        4.107893    5.748200    0.645627
    102          8           0        1.221847    4.276912    0.753378
    103          6           0        5.178948    4.936461    2.345122
    104          1           0        6.024247    4.587697    1.743226
    105          1           0        5.019336    4.171596    3.115504
    106          6           0        5.538883    6.261029    3.009634
    107          1           0        4.721558    6.603869    3.657763
    108          1           0        5.742182    7.034361    2.258552
    109          7           0        6.759405    6.070113    3.826591
    110          1           0        7.064386    5.110367    3.943966
    111          7           0        6.987393    8.286564    4.462722
    112          1           0        7.601587    9.062623    4.663080
    113          1           0        6.066523    8.504666    4.110665
    114          7           0        8.658286    6.767995    4.973973
    115          1           0        9.041677    7.379281    5.681007
    116          1           0        9.074355    5.850872    4.893170
    117          6           0        7.457254    7.028702    4.418140
    118          8           0        2.187118    3.395666   -1.096715
 ---------------------------------------------------------------------

 SCF Done:  E(RB3LYP) =  -2837.78708571     A.U. after    3 cycles

 Alpha  occ. eigenvalues --  -19.28549 -19.24664 -19.20329 -19.18520 -19.15784
 Alpha  occ. eigenvalues --  -19.14181 -19.14179 -19.13567 -19.11820 -19.11619
 Alpha  occ. eigenvalues --  -19.10687 -14.57981 -14.51972 -14.51869 -14.51481
 Alpha  occ. eigenvalues --  -14.47579 -14.44238 -14.39489 -14.39211 -14.37035
 Alpha  occ. eigenvalues --  -14.36746 -14.34953 -10.48095 -10.41701 -10.38812
 Alpha  occ. eigenvalues --  -10.37930 -10.37277 -10.33733 -10.32950 -10.32335
 Alpha  occ. eigenvalues --  -10.31476 -10.31094 -10.30547 -10.29298 -10.29249
 Alpha  occ. eigenvalues --  -10.29003 -10.28262 -10.26960 -10.26695 -10.26244
 Alpha  occ. eigenvalues --  -10.25882 -10.25785 -10.25405 -10.24550 -10.24148
 Alpha  occ. eigenvalues --  -10.23451 -10.23296 -10.23108 -10.22702 -10.22326
 Alpha  occ. eigenvalues --  -10.21030 -10.20973 -10.20942 -10.20687 -10.20450
 Alpha  occ. eigenvalues --  -10.20332 -10.20270 -10.19563  -1.17566  -1.16567
 Alpha  occ. eigenvalues --   -1.15742  -1.12313  -1.11572  -1.07552  -1.06738
 Alpha  occ. eigenvalues --   -1.06399  -1.05612  -1.05536  -1.05178  -1.04877
 Alpha  occ. eigenvalues --   -1.04338  -1.04293  -1.03181  -1.00357  -0.96329
 Alpha  occ. eigenvalues --   -0.95861  -0.95771  -0.94442  -0.93510  -0.91793
 Alpha  occ. eigenvalues --   -0.90077  -0.88475  -0.88266  -0.87009  -0.83665
 Alpha  occ. eigenvalues --   -0.83241  -0.82285  -0.81469  -0.80772  -0.79881
 Alpha  occ. eigenvalues --   -0.79407  -0.78112  -0.77439  -0.76420  -0.75472
 Alpha  occ. eigenvalues --   -0.75419  -0.74677  -0.73890  -0.72730  -0.72516
 Alpha  occ. eigenvalues --   -0.70832  -0.70072  -0.69919  -0.69688  -0.69122
 Alpha  occ. eigenvalues --   -0.68803  -0.67924  -0.67095  -0.65757  -0.65280
 Alpha  occ. eigenvalues --   -0.65043  -0.64861  -0.63817  -0.63694  -0.63475
 Alpha  occ. eigenvalues --   -0.62870  -0.62162  -0.61526  -0.60855  -0.60581
 Alpha  occ. eigenvalues --   -0.60266  -0.60240  -0.59797  -0.58770  -0.57807
 Alpha  occ. eigenvalues --   -0.57555  -0.57395  -0.57117  -0.56681  -0.55979
 Alpha  occ. eigenvalues --   -0.55641  -0.55193  -0.54644  -0.54324  -0.53910
 Alpha  occ. eigenvalues --   -0.53716  -0.53073  -0.52225  -0.51882  -0.51358
 Alpha  occ. eigenvalues --   -0.50905  -0.50817  -0.50464  -0.50364  -0.50044
 Alpha  occ. eigenvalues --   -0.50034  -0.49746  -0.49412  -0.49009  -0.48673
 Alpha  occ. eigenvalues --   -0.48231  -0.47980  -0.47781  -0.47273  -0.46712
 Alpha  occ. eigenvalues --   -0.46425  -0.46394  -0.46219  -0.46000  -0.45838
 Alpha  occ. eigenvalues --   -0.45739  -0.45475  -0.45060  -0.44551  -0.44162
 Alpha  occ. eigenvalues --   -0.44134  -0.43842  -0.43760  -0.43582  -0.43308
 Alpha  occ. eigenvalues --   -0.43107  -0.43071  -0.42942  -0.42697  -0.42411
 Alpha  occ. eigenvalues --   -0.42265  -0.42015  -0.41909  -0.41561  -0.41345
 Alpha  occ. eigenvalues --   -0.40917  -0.40813  -0.40527  -0.40325  -0.40116
 Alpha  occ. eigenvalues --   -0.40073  -0.39824  -0.39282  -0.39252  -0.38891
 Alpha  occ. eigenvalues --   -0.38783  -0.38508  -0.38479  -0.38163  -0.38057
 Alpha  occ. eigenvalues --   -0.37570  -0.37056  -0.36454  -0.36388  -0.36326
 Alpha  occ. eigenvalues --   -0.35421  -0.35023  -0.34763  -0.33901  -0.33182
 Alpha  occ. eigenvalues --   -0.30705  -0.29592  -0.29249  -0.28905  -0.28070
 Alpha  occ. eigenvalues --   -0.27672  -0.27252  -0.27039  -0.26944  -0.26688
 Alpha  occ. eigenvalues --   -0.26170  -0.26102  -0.25578  -0.24549  -0.23681
 Alpha virt. eigenvalues --   -0.11923  -0.10755  -0.08422  -0.08035  -0.06404
 Alpha virt. eigenvalues --   -0.04311  -0.04081  -0.03087  -0.02784  -0.02541
 Alpha virt. eigenvalues --   -0.02490  -0.01794  -0.01638  -0.00962  -0.00846

 Mulliken charges:
               1
     1  N   -0.746672
     2  H    0.415637
     3  H    0.428853
     4  H    0.422425
     5  C   -0.128723
     6  H    0.218074
     7  C    0.641941
     8  C    0.127564
     9  H    0.168118
    10  O   -0.538120
    11  C   -0.503675
    12  H    0.219474
    13  H    0.181670
    14  H    0.177327
    15  O   -0.651366
    16  H    0.431885
    17  N   -0.573568
    18  H    0.373473
    19  C   -0.093121
    20  H    0.194031
    21  C    0.640814
    22  C   -0.078590
    23  H    0.130839
    24  O   -0.550346
    25  C   -0.283761
    26  H    0.167468
    27  H    0.128005
    28  C   -0.450116
    29  H    0.132496
    30  H    0.154935
    31  H    0.173633
    32  C   -0.483160
    33  H    0.227683
    34  H    0.136839
    35  H    0.137810
    36  N   -0.594802
    37  H    0.345962
    38  C   -0.064651
    39  H    0.191069
    40  C    0.637853
    41  C   -0.489517
    42  H    0.207800
    43  H    0.165568
    44  H    0.148270
    45  O   -0.564075
    46  N   -0.603164
    47  H    0.371784
    48  C   -0.083311
    49  H    0.194576
    50  C    0.630245
    51  C   -0.244968
    52  H    0.142623
    53  H    0.159902
    54  O   -0.560061
    55  C   -0.420473
    56  H    0.199917
    57  H    0.197637
    58  C    0.584928
    59  N   -0.779250
    60  H    0.392179
    61  H    0.315147
    62  O   -0.544147
    63  N   -0.615025
    64  H    0.408761
    65  C   -0.049888
    66  H    0.196143
    67  C    0.608072
    68  C   -0.400849
    69  H    0.135246
    70  H    0.164564
    71  O   -0.511161
    72  C    0.153529
    73  C   -0.172261
    74  H    0.119019
    75  C   -0.210210
    76  H    0.172346
    77  C   -0.164333
    78  H    0.125983
    79  C   -0.187844
    80  H    0.137571
    81  O   -0.688752
    82  H    0.433356
    83  C    0.350976
    84  N   -0.642123
    85  H    0.335279
    86  C   -0.001411
    87  H    0.187426
    88  C    0.607366
    89  C   -0.483602
    90  H    0.171169
    91  H    0.163226
    92  H    0.147412
    93  O   -0.565216
    94  N   -0.612459
    95  H    0.357672
    96  C   -0.064010
    97  H    0.167076
    98  C    0.626030
    99  C   -0.260228
   100  H    0.160668
   101  H    0.137419
   102  O   -0.591019
   103  C   -0.310489
   104  H    0.179447
   105  H    0.170182
   106  C   -0.146760
   107  H    0.180000
   108  H    0.180851
   109  N   -0.604382
   110  H    0.377054
   111  N   -0.757251
   112  H    0.383603
   113  H    0.396682
   114  N   -0.762787
   115  H    0.382140
   116  H    0.385255
   117  C    0.831111
   118  O   -0.617397
 Sum of Mulliken charges =   1.00000

 Dipole moment (field-independent basis, Debye):
    X=              9.2095    Y=             -1.0500    Z=             13.6276  Tot=             16.4812
 Quadrupole moment (field-independent basis, Debye-Ang):
   XX=            -25.4430   YY=             18.3527   ZZ=           -264.9202
   XY=            315.3676   XZ=            133.0711   YZ=            147.7565

 Normal termination of Gaussian 16 at Mon Jun 27 02:46:26 2022.
