 Gaussian 16, Revision C.01,
 Gaussian 16:  ES64L-G16RevC.01  3-Jul-2019

 ----------------------------------------------------------------------
 # B3LYP/6-31G* empiricaldispersion=gd3 guess=read geom=check nosymm in
 tegral(ultrafinegrid)
 ----------------------------------------------------------------------

 ------------------------------------------------------
 Candidate Structure: Conf:772 Charge calc in gas phase
 ------------------------------------------------------
 Structure from the checkpoint file:  "conf-772.chk"
 Charge =  1 Multiplicity = 1

                          Input orientation:
 ---------------------------------------------------------------------
 Center     Atomic      Atomic             Coordinates (Angstroms)
 Number     Number       Type             X           Y           Z
 ---------------------------------------------------------------------
      1          7           0       -7.043478   -5.706085   -6.655461
      2          1           0       -7.722367   -6.250062   -6.116460
      3          1           0       -6.851162   -6.178042   -7.554034
      4          1           0       -7.411705   -4.730278   -6.766409
      5          6           0       -5.733167   -5.515939   -5.935484
      6          1           0       -5.591734   -6.347076   -5.241222
      7          6           0       -5.879821   -4.141005   -5.242247
      8          6           0       -4.610878   -5.511321   -7.001808
      9          1           0       -4.668582   -4.558227   -7.550994
     10          8           0       -6.747573   -3.373341   -5.678375
     11          6           0       -3.223303   -5.690373   -6.395354
     12          1           0       -2.951693   -4.865673   -5.729294
     13          1           0       -3.167459   -6.634010   -5.842677
     14          1           0       -2.477339   -5.721514   -7.196419
     15          8           0       -4.968026   -6.595884   -7.866772
     16          1           0       -4.352947   -6.630182   -8.616776
     17          7           0       -5.022805   -3.889313   -4.261538
     18          1           0       -4.275554   -4.539991   -4.016064
     19          6           0       -4.830063   -2.575406   -3.647325
     20          1           0       -5.075010   -1.816893   -4.395658
     21          6           0       -3.322455   -2.540276   -3.315541
     22          6           0       -5.756803   -2.396883   -2.407962
     23          1           0       -6.761810   -2.627089   -2.789496
     24          8           0       -2.661015   -3.587831   -3.332045
     25          6           0       -5.799135   -0.955349   -1.860004
     26          1           0       -4.846013   -0.700820   -1.380430
     27          1           0       -6.543621   -0.949468   -1.054142
     28          6           0       -5.408416   -3.397794   -1.298147
     29          1           0       -4.415891   -3.196167   -0.878786
     30          1           0       -5.414547   -4.431399   -1.661009
     31          1           0       -6.134715   -3.326713   -0.482374
     32          6           0       -6.174068    0.123217   -2.883907
     33          1           0       -6.327206    1.085416   -2.386467
     34          1           0       -7.098109   -0.136150   -3.414422
     35          1           0       -5.394710    0.282336   -3.639797
     36          7           0       -2.817909   -1.341348   -3.004955
     37          1           0       -3.401979   -0.511334   -2.935413
     38          6           0       -1.471823   -1.145667   -2.485445
     39          1           0       -1.238444   -1.974166   -1.806774
     40          6           0       -1.529087    0.175865   -1.690407
     41          6           0       -0.424297   -1.103077   -3.609691
     42          1           0        0.585643   -0.972861   -3.207766
     43          1           0       -0.633265   -0.275767   -4.295505
     44          1           0       -0.455690   -2.044858   -4.164034
     45          8           0       -2.525921    0.902043   -1.749263
     46          7           0       -0.436054    0.451028   -0.955591
     47          1           0        0.424689   -0.073953   -1.092570
     48          6           0       -0.222926    1.742676   -0.306722
     49          1           0       -0.473778    2.535766   -1.024755
     50          6           0        1.302113    1.814701   -0.053762
     51          6           0       -1.144233    1.930061    0.919940
     52          1           0       -2.154481    1.711464    0.566806
     53          1           0       -1.140763    2.981558    1.223052
     54          8           0        2.048799    0.983634   -0.593610
     55          6           0       -0.802776    1.069117    2.144206
     56          1           0       -1.719926    0.850521    2.705864
     57          1           0       -0.389488    0.097720    1.842199
     58          6           0        0.147559    1.786015    3.114079
     59          7           0        0.823642    0.998771    3.986271
     60          1           0        0.856010   -0.002798    3.858867
     61          1           0        1.617940    1.428984    4.450204
     62          8           0        0.263680    3.012401    3.116484
     63          7           0        1.751530    2.818626    0.722337
     64          1           0        1.096559    3.286530    1.347940
     65          6           0        3.169427    2.911411    1.104034
     66          1           0        3.753070    2.645813    0.218239
     67          6           0        3.463807    1.885304    2.228050
     68          6           0        3.525595    4.337761    1.549799
     69          1           0        3.026540    4.534498    2.504156
     70          1           0        3.124418    5.034536    0.804955
     71          8           0        3.484460    2.197745    3.421413
     72          6           0        5.026770    4.501204    1.675440
     73          6           0        5.694840    4.167254    2.862177
     74          1           0        5.128368    3.836831    3.724124
     75          6           0        5.793717    4.902856    0.575231
     76          1           0        5.300801    5.173778   -0.356069
     77          6           0        7.081064    4.210534    2.946091
     78          1           0        7.571329    3.899351    3.859483
     79          6           0        7.187224    4.958757    0.644600
     80          1           0        7.769060    5.270061   -0.221010
     81          8           0        9.199878    4.588942    1.968387
     82          1           0        9.614507    4.941478    1.166259
     83          6           0        7.823952    4.599376    1.832970
     84          7           0        3.647189    0.620214    1.793434
     85          1           0        3.548863    0.434043    0.800885
     86          6           0        3.887884   -0.499779    2.701346
     87          1           0        3.534108   -0.177077    3.684583
     88          6           0        5.408937   -0.777756    2.793581
     89          6           0        3.128418   -1.736264    2.232393
     90          1           0        3.260286   -2.555969    2.943554
     91          1           0        2.059484   -1.510918    2.133489
     92          1           0        3.515524   -2.079212    1.268675
     93          8           0        5.908890   -1.757412    2.242341
     94          7           0        6.110948    0.131667    3.505802
     95          1           0        5.668753    0.955169    3.903695
     96          6           0        7.544868   -0.013615    3.727591
     97          1           0        7.756272   -1.073984    3.883895
     98          6           0        7.987679    0.782299    4.971721
     99          6           0        8.353011    0.485836    2.501711
    100          1           0        8.109220    1.545657    2.355754
    101          1           0        7.981150   -0.055054    1.625874
    102          8           0        8.923548    0.291362    5.643539
    103          6           0        9.882866    0.281583    2.646254
    104          1           0       10.262831   -0.351704    1.835237
    105          1           0       10.092714   -0.244426    3.583512
    106          6           0       10.705010    1.581074    2.611604
    107          1           0       10.516605    2.128511    1.684049
    108          1           0       11.780505    1.361026    2.628236
    109          7           0       10.374180    2.530647    3.682976
    110          1           0        9.818919    3.335032    3.405574
    111          7           0       11.509597    1.502866    5.465375
    112          1           0       11.138109    0.880379    6.178699
    113          1           0       12.060283    1.010065    4.774419
    114          7           0        9.791984    3.053376    5.845948
    115          1           0       10.043778    2.906184    6.817452
    116          1           0        8.764729    2.861463    5.683263
    117          6           0       10.549991    2.339972    4.989434
    118          8           0        7.446844    1.927555    5.120187
 ---------------------------------------------------------------------

 SCF Done:  E(RB3LYP) =  -2837.81654018     A.U. after    2 cycles

 Alpha  occ. eigenvalues --  -19.30522 -19.26500 -19.23831 -19.22115 -19.20410
 Alpha  occ. eigenvalues --  -19.19749 -19.17444 -19.16935 -19.13799 -19.11353
 Alpha  occ. eigenvalues --  -19.10520 -14.59730 -14.49346 -14.45463 -14.43705
 Alpha  occ. eigenvalues --  -14.42795 -14.42555 -14.41827 -14.41110 -14.41098
 Alpha  occ. eigenvalues --  -14.39021 -14.37674 -10.43572 -10.40766 -10.40063
 Alpha  occ. eigenvalues --  -10.39047 -10.37702 -10.37241 -10.36521 -10.35073
 Alpha  occ. eigenvalues --  -10.34138 -10.33932 -10.32338 -10.31091 -10.31009
 Alpha  occ. eigenvalues --  -10.30885 -10.29315 -10.29150 -10.29055 -10.28741
 Alpha  occ. eigenvalues --  -10.28331 -10.27574 -10.26625 -10.26549 -10.26368
 Alpha  occ. eigenvalues --  -10.26258 -10.25588 -10.25504 -10.23818 -10.23553
 Alpha  occ. eigenvalues --  -10.23522 -10.23454 -10.23268 -10.23062 -10.22574
 Alpha  occ. eigenvalues --  -10.22161 -10.21961 -10.21234  -1.19429  -1.17703
 Alpha  occ. eigenvalues --   -1.14102  -1.13374  -1.12279  -1.11289  -1.11216
 Alpha  occ. eigenvalues --   -1.09248  -1.08680  -1.06697  -1.06119  -1.05601
 Alpha  occ. eigenvalues --   -1.03928  -1.02244  -1.00528  -0.99416  -0.97508
 Alpha  occ. eigenvalues --   -0.96483  -0.96127  -0.95467  -0.94049  -0.93807
 Alpha  occ. eigenvalues --   -0.93481  -0.90729  -0.89634  -0.87508  -0.85775
 Alpha  occ. eigenvalues --   -0.85208  -0.83979  -0.82942  -0.82684  -0.81561
 Alpha  occ. eigenvalues --   -0.80505  -0.79592  -0.78789  -0.77426  -0.77247
 Alpha  occ. eigenvalues --   -0.77014  -0.74627  -0.74354  -0.73149  -0.71979
 Alpha  occ. eigenvalues --   -0.71858  -0.71698  -0.70853  -0.70560  -0.68935
 Alpha  occ. eigenvalues --   -0.68047  -0.67391  -0.67209  -0.66449  -0.66183
 Alpha  occ. eigenvalues --   -0.66114  -0.65478  -0.65003  -0.63721  -0.63477
 Alpha  occ. eigenvalues --   -0.63316  -0.63103  -0.62655  -0.62258  -0.61465
 Alpha  occ. eigenvalues --   -0.60253  -0.59645  -0.59239  -0.58971  -0.58834
 Alpha  occ. eigenvalues --   -0.58804  -0.58338  -0.57753  -0.57112  -0.56890
 Alpha  occ. eigenvalues --   -0.56610  -0.56536  -0.55915  -0.55143  -0.54516
 Alpha  occ. eigenvalues --   -0.54283  -0.54140  -0.54007  -0.53298  -0.53206
 Alpha  occ. eigenvalues --   -0.52937  -0.52494  -0.52413  -0.52212  -0.52114
 Alpha  occ. eigenvalues --   -0.51847  -0.51364  -0.51050  -0.51022  -0.50660
 Alpha  occ. eigenvalues --   -0.50446  -0.50152  -0.50065  -0.49538  -0.49128
 Alpha  occ. eigenvalues --   -0.48516  -0.48429  -0.48186  -0.48171  -0.47976
 Alpha  occ. eigenvalues --   -0.47723  -0.47553  -0.46870  -0.46699  -0.46426
 Alpha  occ. eigenvalues --   -0.46322  -0.45734  -0.45679  -0.45517  -0.45397
 Alpha  occ. eigenvalues --   -0.45244  -0.44938  -0.44799  -0.44560  -0.44145
 Alpha  occ. eigenvalues --   -0.43988  -0.43717  -0.43552  -0.43043  -0.42950
 Alpha  occ. eigenvalues --   -0.42601  -0.42470  -0.42385  -0.42191  -0.42046
 Alpha  occ. eigenvalues --   -0.41961  -0.41752  -0.41489  -0.41107  -0.41004
 Alpha  occ. eigenvalues --   -0.40690  -0.40641  -0.39976  -0.39355  -0.39196
 Alpha  occ. eigenvalues --   -0.38472  -0.38121  -0.37784  -0.37224  -0.37166
 Alpha  occ. eigenvalues --   -0.36333  -0.36176  -0.35576  -0.34855  -0.34145
 Alpha  occ. eigenvalues --   -0.34079  -0.33940  -0.33036  -0.32904  -0.31840
 Alpha  occ. eigenvalues --   -0.31776  -0.31170  -0.29840  -0.29115  -0.27942
 Alpha  occ. eigenvalues --   -0.27214  -0.26739  -0.26445  -0.25558  -0.24071
 Alpha virt. eigenvalues --   -0.12508  -0.10247  -0.07921  -0.06510  -0.06210
 Alpha virt. eigenvalues --   -0.05784  -0.05032  -0.04789  -0.04556  -0.04122
 Alpha virt. eigenvalues --   -0.03374  -0.02847  -0.02620  -0.01462  -0.00718

 Mulliken charges:
               1
     1  N   -0.746816
     2  H    0.416987
     3  H    0.430115
     4  H    0.424630
     5  C   -0.125055
     6  H    0.215557
     7  C    0.641691
     8  C    0.126443
     9  H    0.170644
    10  O   -0.536751
    11  C   -0.491282
    12  H    0.197936
    13  H    0.182370
    14  H    0.182206
    15  O   -0.647443
    16  H    0.433933
    17  N   -0.598420
    18  H    0.374806
    19  C   -0.087231
    20  H    0.195180
    21  C    0.631932
    22  C   -0.073234
    23  H    0.149587
    24  O   -0.561443
    25  C   -0.284083
    26  H    0.158510
    27  H    0.156632
    28  C   -0.463551
    29  H    0.163457
    30  H    0.137873
    31  H    0.168056
    32  C   -0.462629
    33  H    0.176247
    34  H    0.155845
    35  H    0.140920
    36  N   -0.621156
    37  H    0.383904
    38  C   -0.051676
    39  H    0.187773
    40  C    0.620722
    41  C   -0.454040
    42  H    0.172184
    43  H    0.166231
    44  H    0.179652
    45  O   -0.542702
    46  N   -0.622592
    47  H    0.364992
    48  C   -0.041277
    49  H    0.195132
    50  C    0.602249
    51  C   -0.298046
    52  H    0.183772
    53  H    0.183625
    54  O   -0.565644
    55  C   -0.375501
    56  H    0.188504
    57  H    0.151991
    58  C    0.596447
    59  N   -0.736856
    60  H    0.339991
    61  H    0.380396
    62  O   -0.527014
    63  N   -0.620285
    64  H    0.385431
    65  C   -0.049652
    66  H    0.177625
    67  C    0.642130
    68  C   -0.374467
    69  H    0.190579
    70  H    0.150470
    71  O   -0.559667
    72  C    0.141041
    73  C   -0.200219
    74  H    0.183457
    75  C   -0.189973
    76  H    0.126013
    77  C   -0.161214
    78  H    0.173765
    79  C   -0.183577
    80  H    0.122289
    81  O   -0.679434
    82  H    0.416885
    83  C    0.342931
    84  N   -0.596702
    85  H    0.366021
    86  C   -0.061898
    87  H    0.162244
    88  C    0.629389
    89  C   -0.457037
    90  H    0.173179
    91  H    0.117773
    92  H    0.175425
    93  O   -0.539722
    94  N   -0.622009
    95  H    0.358478
    96  C   -0.004509
    97  H    0.165733
    98  C    0.581528
    99  C   -0.289389
   100  H    0.149594
   101  H    0.161531
   102  O   -0.608885
   103  C   -0.278544
   104  H    0.144606
   105  H    0.176458
   106  C   -0.174431
   107  H    0.164665
   108  H    0.150807
   109  N   -0.582297
   110  H    0.414401
   111  N   -0.725318
   112  H    0.380394
   113  H    0.346745
   114  N   -0.738664
   115  H    0.337697
   116  H    0.410709
   117  C    0.688078
   118  O   -0.624861
 Sum of Mulliken charges =   1.00000

 Dipole moment (field-independent basis, Debye):
    X=            -15.6184    Y=            -18.2686    Z=            -26.4227  Tot=             35.7189
 Quadrupole moment (field-independent basis, Debye-Ang):
   XX=            -64.3741   YY=           -215.2453   ZZ=           -173.7821
   XY=            177.1367   XZ=            146.6627   YZ=            135.4768

 Normal termination of Gaussian 16 at Mon Jun 27 02:45:48 2022.
