 Gaussian 16, Revision C.01,
 Gaussian 16:  ES64L-G16RevC.01  3-Jul-2019

 ----------------------------------------------------------------------
 # B3LYP/6-31G* empiricaldispersion=gd3 guess=read geom=check nosymm in
 tegral(ultrafinegrid)
 ----------------------------------------------------------------------

 ------------------------------------------------------
 Candidate Structure: Conf:578 Charge calc in gas phase
 ------------------------------------------------------
 Structure from the checkpoint file:  "conf-578.chk"
 Charge =  1 Multiplicity = 1

                          Input orientation:
 ---------------------------------------------------------------------
 Center     Atomic      Atomic             Coordinates (Angstroms)
 Number     Number       Type             X           Y           Z
 ---------------------------------------------------------------------
      1          7           0       -0.102359   -2.000073    1.783013
      2          1           0        0.402259   -1.211157    2.325347
      3          1           0        0.333106   -2.881221    2.073237
      4          1           0       -1.124174   -2.006351    1.949681
      5          6           0        0.089940   -1.811222    0.311046
      6          1           0        0.889512   -1.079386    0.178581
      7          6           0       -1.255059   -1.260003   -0.219248
      8          6           0        0.529882   -3.136991   -0.331583
      9          1           0       -0.308308   -3.849478   -0.273061
     10          8           0       -2.279606   -1.442728    0.439508
     11          6           0        0.979018   -2.966423   -1.779337
     12          1           0        0.136708   -2.708246   -2.428151
     13          1           0        1.741424   -2.183926   -1.861285
     14          1           0        1.401724   -3.906517   -2.149571
     15          8           0        1.601318   -3.576419    0.517210
     16          1           0        1.906823   -4.444383    0.209836
     17          7           0       -1.168858   -0.577350   -1.366030
     18          1           0       -0.278923   -0.509413   -1.852076
     19          6           0       -2.232012    0.253973   -1.917545
     20          1           0       -3.144423   -0.347287   -1.980925
     21          6           0       -1.737283    0.641096   -3.323167
     22          6           0       -2.543266    1.591297   -1.112057
     23          1           0       -2.180642    2.424829   -1.721595
     24          8           0       -0.596663    0.343667   -3.697634
     25          6           0       -1.811699    1.709684    0.237243
     26          1           0       -0.749774    1.489152    0.081176
     27          1           0       -2.206933    0.972203    0.944052
     28          6           0       -4.064736    1.733081   -0.959102
     29          1           0       -4.451337    0.972669   -0.269633
     30          1           0       -4.593885    1.596681   -1.912905
     31          1           0       -4.338902    2.723772   -0.586756
     32          6           0       -1.899583    3.116296    0.836308
     33          1           0       -1.280069    3.178466    1.737800
     34          1           0       -2.922242    3.390587    1.109001
     35          1           0       -1.536826    3.861847    0.122483
     36          7           0       -2.544080    1.397620   -4.105936
     37          1           0       -3.375623    1.780740   -3.671045
     38          6           0       -1.902489    2.267677   -5.106740
     39          1           0       -1.413809    1.627942   -5.846177
     40          6           0       -0.862154    3.121521   -4.345178
     41          6           0       -2.951777    3.161761   -5.765834
     42          1           0       -2.486903    3.790554   -6.530768
     43          1           0       -3.408345    3.820453   -5.018576
     44          1           0       -3.732050    2.558755   -6.239739
     45          8           0       -1.186069    3.652767   -3.276836
     46          7           0        0.385452    3.194817   -4.849054
     47          1           0        0.592730    2.687970   -5.699926
     48          6           0        1.559805    3.574854   -4.039049
     49          1           0        1.359873    3.207277   -3.023872
     50          6           0        1.763040    5.104558   -3.832921
     51          6           0        2.824877    2.903770   -4.586602
     52          1           0        3.682871    3.385953   -4.114657
     53          1           0        2.914405    3.109241   -5.661466
     54          8           0        2.872299    5.610044   -3.929683
     55          6           0        2.895884    1.377896   -4.331230
     56          1           0        2.026476    0.859316   -4.753379
     57          1           0        3.798213    0.985536   -4.808368
     58          6           0        3.001817    1.141412   -2.828046
     59          7           0        1.829506    0.769695   -2.192469
     60          1           0        0.996888    0.820472   -2.774086
     61          1           0        1.701296    1.254226   -1.304012
     62          8           0        4.042486    1.344697   -2.216333
     63          7           0        0.661073    5.780456   -3.387544
     64          1           0       -0.186625    5.238274   -3.226169
     65          6           0        0.808692    7.024313   -2.639967
     66          1           0        1.602184    7.610452   -3.107044
     67          6           0        1.247178    6.797319   -1.171182
     68          6           0       -0.509605    7.839530   -2.642008
     69          1           0       -0.783882    8.036854   -3.684165
     70          1           0       -0.282832    8.800676   -2.170944
     71          8           0        1.623397    7.735561   -0.475013
     72          6           0       -1.649105    7.159120   -1.911092
     73          6           0       -2.557358    6.329656   -2.582588
     74          1           0       -2.466444    6.201164   -3.658029
     75          6           0       -1.802600    7.311456   -0.525776
     76          1           0       -1.107146    7.944701    0.018080
     77          6           0       -3.573495    5.659557   -1.904680
     78          1           0       -4.276859    5.019957   -2.428475
     79          6           0       -2.816662    6.652171    0.166341
     80          1           0       -2.920083    6.785637    1.241631
     81          8           0       -4.716394    5.133391    0.099463
     82          1           0       -4.742263    5.385110    1.035696
     83          6           0       -3.705242    5.822504   -0.525218
     84          7           0        1.123749    5.525863   -0.724034
     85          1           0        0.763360    4.806944   -1.334209
     86          6           0        1.528858    5.070656    0.587371
     87          1           0        2.568087    5.383435    0.763984
     88          6           0        1.517730    3.534537    0.517477
     89          6           0        0.656205    5.647044    1.715112
     90          1           0        0.980144    5.290403    2.699243
     91          1           0        0.751900    6.734596    1.690896
     92          1           0       -0.392729    5.381563    1.564958
     93          8           0        1.183977    2.945512   -0.524414
     94          7           0        1.878757    2.851693    1.619662
     95          1           0        2.185905    3.315458    2.467435
     96          6           0        2.090020    1.407384    1.577510
     97          1           0        1.324136    0.976789    0.929751
     98          6           0        1.962182    0.847267    2.997264
     99          6           0        3.503499    1.123378    1.007950
    100          1           0        4.223576    1.500506    1.745166
    101          1           0        3.625612    1.725048    0.103828
    102          8           0        1.425377   -0.331744    3.105276
    103          6           0        3.855737   -0.313529    0.594073
    104          1           0        4.805059   -0.260380    0.046061
    105          1           0        3.132823   -0.680995   -0.144275
    106          6           0        3.968493   -1.370449    1.702939
    107          1           0        4.382298   -2.298619    1.292510
    108          1           0        2.993492   -1.597616    2.119836
    109          7           0        4.844117   -0.910846    2.796094
    110          1           0        5.708336   -0.470940    2.505248
    111          7           0        3.444242   -1.350038    4.620580
    112          1           0        3.377036   -1.389512    5.629132
    113          1           0        2.565073   -1.060705    4.130779
    114          7           0        5.645783   -0.695059    4.956282
    115          1           0        5.447345   -0.321472    5.873864
    116          1           0        6.574960   -0.523680    4.599300
    117          6           0        4.619815   -0.964642    4.114462
    118          8           0        2.482495    1.476268    3.920426
 ---------------------------------------------------------------------

 SCF Done:  E(RB3LYP) =  -2837.85849464     A.U. after    1 cycles

 Alpha  occ. eigenvalues --  -19.28293 -19.24347 -19.23848 -19.23432 -19.21563
 Alpha  occ. eigenvalues --  -19.21242 -19.21089 -19.19078 -19.19013 -19.17567
 Alpha  occ. eigenvalues --  -19.16227 -14.53318 -14.50200 -14.49968 -14.47323
 Alpha  occ. eigenvalues --  -14.47236 -14.46424 -14.45877 -14.44860 -14.41292
 Alpha  occ. eigenvalues --  -14.41147 -14.40872 -10.45795 -10.40980 -10.39981
 Alpha  occ. eigenvalues --  -10.38309 -10.37816 -10.37510 -10.37458 -10.36909
 Alpha  occ. eigenvalues --  -10.36032 -10.34764 -10.33665 -10.33530 -10.33529
 Alpha  occ. eigenvalues --  -10.33204 -10.31533 -10.31072 -10.30879 -10.30849
 Alpha  occ. eigenvalues --  -10.29083 -10.28492 -10.28414 -10.27739 -10.27435
 Alpha  occ. eigenvalues --  -10.27226 -10.26697 -10.26576 -10.25365 -10.25022
 Alpha  occ. eigenvalues --  -10.24924 -10.24879 -10.24759 -10.24710 -10.24666
 Alpha  occ. eigenvalues --  -10.24564 -10.24504 -10.23849  -1.16399  -1.15616
 Alpha  occ. eigenvalues --   -1.15169  -1.14259  -1.13366  -1.13320  -1.12734
 Alpha  occ. eigenvalues --   -1.12065  -1.10441  -1.09514  -1.08566  -1.08158
 Alpha  occ. eigenvalues --   -1.04393  -1.04153  -1.03841  -1.02969  -1.01848
 Alpha  occ. eigenvalues --   -1.01632  -1.01188  -0.98989  -0.97211  -0.96975
 Alpha  occ. eigenvalues --   -0.91172  -0.91137  -0.89370  -0.89168  -0.87696
 Alpha  occ. eigenvalues --   -0.86075  -0.85379  -0.84237  -0.83654  -0.82385
 Alpha  occ. eigenvalues --   -0.81364  -0.80615  -0.80288  -0.78672  -0.78083
 Alpha  occ. eigenvalues --   -0.77685  -0.75686  -0.74912  -0.74002  -0.73171
 Alpha  occ. eigenvalues --   -0.71708  -0.71503  -0.71323  -0.70768  -0.70206
 Alpha  occ. eigenvalues --   -0.69932  -0.69355  -0.68702  -0.68133  -0.67693
 Alpha  occ. eigenvalues --   -0.67604  -0.67171  -0.66613  -0.65691  -0.64795
 Alpha  occ. eigenvalues --   -0.64577  -0.64075  -0.64007  -0.63533  -0.63262
 Alpha  occ. eigenvalues --   -0.62826  -0.62476  -0.61581  -0.61385  -0.60324
 Alpha  occ. eigenvalues --   -0.60296  -0.60166  -0.59806  -0.58666  -0.57980
 Alpha  occ. eigenvalues --   -0.57703  -0.57649  -0.57331  -0.56947  -0.56648
 Alpha  occ. eigenvalues --   -0.56116  -0.55877  -0.55306  -0.54827  -0.54783
 Alpha  occ. eigenvalues --   -0.54651  -0.54196  -0.53981  -0.53717  -0.53378
 Alpha  occ. eigenvalues --   -0.53043  -0.52597  -0.52331  -0.51924  -0.51843
 Alpha  occ. eigenvalues --   -0.51494  -0.51239  -0.50940  -0.50592  -0.50337
 Alpha  occ. eigenvalues --   -0.50136  -0.50034  -0.49778  -0.49295  -0.49044
 Alpha  occ. eigenvalues --   -0.48987  -0.48832  -0.48658  -0.48230  -0.48067
 Alpha  occ. eigenvalues --   -0.47926  -0.47872  -0.47615  -0.47459  -0.47382
 Alpha  occ. eigenvalues --   -0.47027  -0.46661  -0.46556  -0.46194  -0.45946
 Alpha  occ. eigenvalues --   -0.45783  -0.45747  -0.45277  -0.45233  -0.44987
 Alpha  occ. eigenvalues --   -0.44575  -0.44472  -0.44087  -0.43566  -0.43484
 Alpha  occ. eigenvalues --   -0.43058  -0.42941  -0.42797  -0.42248  -0.42049
 Alpha  occ. eigenvalues --   -0.41608  -0.41350  -0.41131  -0.40675  -0.40604
 Alpha  occ. eigenvalues --   -0.40321  -0.39966  -0.39746  -0.38983  -0.38483
 Alpha  occ. eigenvalues --   -0.38420  -0.38307  -0.37793  -0.37177  -0.36846
 Alpha  occ. eigenvalues --   -0.36227  -0.35722  -0.35576  -0.35484  -0.35120
 Alpha  occ. eigenvalues --   -0.34750  -0.33841  -0.33286  -0.32844  -0.32002
 Alpha  occ. eigenvalues --   -0.31187  -0.30686  -0.30352  -0.28764  -0.27647
 Alpha virt. eigenvalues --   -0.10557  -0.10369  -0.09725  -0.07664  -0.06956
 Alpha virt. eigenvalues --   -0.06564  -0.06308  -0.06100  -0.05741  -0.05565
 Alpha virt. eigenvalues --   -0.04909  -0.04380  -0.03251  -0.02562  -0.02475

 Mulliken charges:
               1
     1  N   -0.787094
     2  H    0.451836
     3  H    0.399124
     4  H    0.405548
     5  C   -0.110486
     6  H    0.210171
     7  C    0.640097
     8  C    0.121755
     9  H    0.159794
    10  O   -0.529733
    11  C   -0.498856
    12  H    0.182761
    13  H    0.194176
    14  H    0.168790
    15  O   -0.645463
    16  H    0.420880
    17  N   -0.640849
    18  H    0.390794
    19  C   -0.040023
    20  H    0.198784
    21  C    0.610398
    22  C   -0.133512
    23  H    0.209022
    24  O   -0.556244
    25  C   -0.283567
    26  H    0.137990
    27  H    0.145926
    28  C   -0.497153
    29  H    0.166105
    30  H    0.125440
    31  H    0.204229
    32  C   -0.472008
    33  H    0.142051
    34  H    0.148984
    35  H    0.174909
    36  N   -0.581925
    37  H    0.355426
    38  C   -0.037037
    39  H    0.175447
    40  C    0.625911
    41  C   -0.489887
    42  H    0.182823
    43  H    0.180000
    44  H    0.183225
    45  O   -0.546722
    46  N   -0.587448
    47  H    0.344610
    48  C   -0.101842
    49  H    0.209549
    50  C    0.615100
    51  C   -0.316165
    52  H    0.219400
    53  H    0.156904
    54  O   -0.498251
    55  C   -0.355752
    56  H    0.149021
    57  H    0.179590
    58  C    0.555224
    59  N   -0.846681
    60  H    0.380268
    61  H    0.385225
    62  O   -0.496137
    63  N   -0.669874
    64  H    0.400456
    65  C   -0.044826
    66  H    0.202996
    67  C    0.627561
    68  C   -0.368775
    69  H    0.160064
    70  H    0.185192
    71  O   -0.541214
    72  C    0.133945
    73  C   -0.178910
    74  H    0.125414
    75  C   -0.186582
    76  H    0.162616
    77  C   -0.154161
    78  H    0.128147
    79  C   -0.196208
    80  H    0.127671
    81  O   -0.650802
    82  H    0.413215
    83  C    0.353884
    84  N   -0.628267
    85  H    0.363805
    86  C   -0.021828
    87  H    0.188626
    88  C    0.649191
    89  C   -0.469640
    90  H    0.139560
    91  H    0.205301
    92  H    0.172409
    93  O   -0.576045
    94  N   -0.613290
    95  H    0.355898
    96  C   -0.037569
    97  H    0.142676
    98  C    0.616453
    99  C   -0.292531
   100  H    0.137101
   101  H    0.208163
   102  O   -0.680259
   103  C   -0.315035
   104  H    0.174376
   105  H    0.171092
   106  C   -0.144800
   107  H    0.174033
   108  H    0.182646
   109  N   -0.595232
   110  H    0.351759
   111  N   -0.759687
   112  H    0.356324
   113  H    0.420867
   114  N   -0.760728
   115  H    0.377957
   116  H    0.368467
   117  C    0.794132
   118  O   -0.540184
 Sum of Mulliken charges =   1.00000

 Dipole moment (field-independent basis, Debye):
    X=              6.2091    Y=             -8.1944    Z=              4.3357  Tot=             11.1579
 Quadrupole moment (field-independent basis, Debye-Ang):
   XX=           -268.8079   YY=           -332.8748   ZZ=           -239.8826
   XY=            -49.3437   XZ=             72.5678   YZ=            -13.6871

 Normal termination of Gaussian 16 at Mon Jun 27 02:45:49 2022.
