 Gaussian 16, Revision C.01,
 Gaussian 16:  ES64L-G16RevC.01  3-Jul-2019

 ----------------------------------------------------------------------
 # B3LYP/6-31G* empiricaldispersion=gd3 guess=read geom=check nosymm in
 tegral(ultrafinegrid)
 ----------------------------------------------------------------------

 ------------------------------------------------------
 Candidate Structure: Conf:474 Charge calc in gas phase
 ------------------------------------------------------
 Structure from the checkpoint file:  "conf-474.chk"
 Charge =  1 Multiplicity = 1

                          Input orientation:
 ---------------------------------------------------------------------
 Center     Atomic      Atomic             Coordinates (Angstroms)
 Number     Number       Type             X           Y           Z
 ---------------------------------------------------------------------
      1          7           0       -5.473634   -1.340888   -8.537007
      2          1           0       -6.308764   -0.843489   -8.857767
      3          1           0       -5.259802   -2.120570   -9.180268
      4          1           0       -4.690427   -0.651197   -8.448052
      5          6           0       -5.619634   -1.907383   -7.147701
      6          1           0       -6.675691   -2.120469   -6.967988
      7          6           0       -5.033806   -0.811721   -6.227559
      8          6           0       -4.791598   -3.213618   -7.091658
      9          1           0       -3.725046   -2.937974   -7.094279
     10          8           0       -4.250724   -0.003830   -6.741991
     11          6           0       -5.115705   -4.063177   -5.868057
     12          1           0       -4.857862   -3.559225   -4.930871
     13          1           0       -6.178621   -4.326817   -5.857338
     14          1           0       -4.537759   -4.992560   -5.908396
     15          8           0       -5.129594   -3.872388   -8.317854
     16          1           0       -4.603667   -4.683086   -8.408115
     17          7           0       -5.407163   -0.860925   -4.952710
     18          1           0       -5.967101   -1.640661   -4.615926
     19          6           0       -4.774859   -0.113976   -3.859373
     20          1           0       -3.930232    0.442513   -4.271577
     21          6           0       -4.311535   -1.205739   -2.874311
     22          6           0       -5.794136    0.852489   -3.191106
     23          1           0       -6.585845    0.215001   -2.771184
     24          8           0       -4.975691   -2.244702   -2.764369
     25          6           0       -6.456723    1.791848   -4.223851
     26          1           0       -7.215880    2.375617   -3.688280
     27          1           0       -7.006890    1.186534   -4.956275
     28          6           0       -5.152133    1.637204   -2.035692
     29          1           0       -4.308799    2.239894   -2.387454
     30          1           0       -4.790244    0.983001   -1.237049
     31          1           0       -5.890664    2.317813   -1.599850
     32          6           0       -5.509723    2.746361   -4.963360
     33          1           0       -6.080325    3.395845   -5.636018
     34          1           0       -4.776629    2.206128   -5.571845
     35          1           0       -4.964196    3.396040   -4.271623
     36          7           0       -3.201083   -0.940391   -2.171517
     37          1           0       -2.717212   -0.051798   -2.309731
     38          6           0       -2.763271   -1.804779   -1.074740
     39          1           0       -3.670154   -2.177729   -0.582483
     40          6           0       -2.042717   -0.897768   -0.053440
     41          6           0       -1.962848   -3.001845   -1.601488
     42          1           0       -1.746601   -3.719136   -0.802380
     43          1           0       -1.019500   -2.681453   -2.056779
     44          1           0       -2.564633   -3.519564   -2.352571
     45          8           0       -2.475471    0.232761    0.192898
     46          7           0       -0.945013   -1.420087    0.543683
     47          1           0       -0.495029   -2.211557    0.090779
     48          6           0        0.029342   -0.554342    1.199260
     49          1           0       -0.209064    0.475361    0.914867
     50          6           0        1.396369   -0.906350    0.568123
     51          6           0        0.004702   -0.631355    2.734787
     52          1           0       -1.031313   -0.482916    3.058884
     53          1           0        0.580744    0.206598    3.138377
     54          8           0        1.490324   -1.816200   -0.256864
     55          6           0        0.563645   -1.940694    3.315221
     56          1           0       -0.053506   -2.793292    3.011186
     57          1           0        1.577120   -2.112554    2.928865
     58          6           0        0.691167   -1.839005    4.828079
     59          7           0        0.098792   -2.799646    5.567109
     60          1           0       -0.374257   -3.588271    5.152079
     61          1           0        0.211658   -2.779971    6.572444
     62          8           0        1.311721   -0.906598    5.355529
     63          7           0        2.431870   -0.130824    0.955694
     64          1           0        2.273691    0.595189    1.645662
     65          6           0        3.651192   -0.027972    0.168604
     66          1           0        3.678482   -0.920515   -0.462930
     67          6           0        4.854195   -0.054285    1.133735
     68          6           0        3.607981    1.256273   -0.732141
     69          1           0        4.315068    1.129468   -1.561567
     70          1           0        3.945392    2.107111   -0.129564
     71          8           0        4.744159   -0.535128    2.264086
     72          6           0        2.211644    1.506896   -1.252747
     73          6           0        1.659863    0.724263   -2.274162
     74          1           0        2.284174    0.002055   -2.793261
     75          6           0        1.377175    2.421637   -0.595552
     76          1           0        1.790422    3.054131    0.186722
     77          6           0        0.301558    0.796704   -2.585326
     78          1           0       -0.133265    0.156499   -3.347257
     79          6           0        0.020099    2.510108   -0.899202
     80          1           0       -0.625701    3.206301   -0.371456
     81          8           0       -1.885843    1.657423   -2.121303
     82          1           0       -2.333023    1.648130   -1.250639
     83          6           0       -0.521979    1.664596   -1.869846
     84          7           0        6.010330    0.489481    0.689647
     85          1           0        5.975473    1.004626   -0.179778
     86          6           0        6.965538    1.021458    1.660189
     87          1           0        7.250581    0.214827    2.341206
     88          6           0        6.291813    2.149467    2.488002
     89          6           0        8.201167    1.563113    0.926779
     90          1           0        8.901015    2.028179    1.628133
     91          1           0        8.706491    0.755089    0.388900
     92          1           0        7.905358    2.334736    0.203597
     93          8           0        5.154700    2.583220    2.172623
     94          7           0        7.024406    2.621123    3.493144
     95          1           0        8.019847    2.299321    3.551562
     96          6           0        7.135399    4.052334    3.835511
     97          1           0        6.723214    4.639751    3.006417
     98          6           0        8.724137    4.316095    3.857149
     99          6           0        6.509223    4.529666    5.152753
    100          1           0        7.158770    5.351942    5.467930
    101          1           0        6.596055    3.740715    5.911938
    102          8           0        9.050894    5.475223    4.129780
    103          6           0        5.064311    5.075140    5.096598
    104          1           0        4.845697    5.469336    4.095087
    105          1           0        4.975027    5.928149    5.780392
    106          6           0        3.957630    4.104414    5.507076
    107          1           0        2.996076    4.637167    5.560577
    108          1           0        4.180575    3.709476    6.508636
    109          7           0        3.836959    2.983202    4.574806
    110          1           0        4.368136    3.000405    3.682138
    111          7           0        2.247771    1.853869    5.857665
    112          1           0        1.763414    0.983383    6.047577
    113          1           0        2.195534    2.601583    6.530151
    114          7           0        3.043497    0.903013    3.906872
    115          1           0        2.585817    0.058902    4.250270
    116          1           0        3.884331    0.713575    3.359557
    117          6           0        3.067900    1.927810    4.791964
    118          8           0        9.420508    3.290853    3.590672
 ---------------------------------------------------------------------

 SCF Done:  E(RB3LYP) =  -2837.79670095     A.U. after    3 cycles

 Alpha  occ. eigenvalues --  -19.30896 -19.27045 -19.25986 -19.22191 -19.21947
 Alpha  occ. eigenvalues --  -19.21623 -19.20390 -19.18588 -19.17386 -19.07438
 Alpha  occ. eigenvalues --  -19.06160 -14.60250 -14.50170 -14.46013 -14.45800
 Alpha  occ. eigenvalues --  -14.45030 -14.45013 -14.44133 -14.43486 -14.42370
 Alpha  occ. eigenvalues --  -14.42227 -14.37329 -10.44181 -10.41260 -10.40456
 Alpha  occ. eigenvalues --  -10.40325 -10.39487 -10.39113 -10.38737 -10.37371
 Alpha  occ. eigenvalues --  -10.35828 -10.34374 -10.33205 -10.32935 -10.32686
 Alpha  occ. eigenvalues --  -10.32047 -10.31195 -10.31171 -10.29332 -10.29269
 Alpha  occ. eigenvalues --  -10.28996 -10.28491 -10.28379 -10.27468 -10.27183
 Alpha  occ. eigenvalues --  -10.27144 -10.27059 -10.26936 -10.26912 -10.26879
 Alpha  occ. eigenvalues --  -10.26805 -10.25945 -10.25404 -10.25081 -10.23376
 Alpha  occ. eigenvalues --  -10.22716 -10.22096 -10.20365  -1.19931  -1.18138
 Alpha  occ. eigenvalues --   -1.14390  -1.13972  -1.13660  -1.13452  -1.13092
 Alpha  occ. eigenvalues --   -1.12184  -1.10707  -1.09126  -1.07654  -1.06768
 Alpha  occ. eigenvalues --   -1.02514  -1.01828  -1.00993  -1.00649  -1.00406
 Alpha  occ. eigenvalues --   -0.98914  -0.98467  -0.96842  -0.94771  -0.94235
 Alpha  occ. eigenvalues --   -0.93315  -0.91551  -0.91001  -0.89581  -0.86789
 Alpha  occ. eigenvalues --   -0.86410  -0.85898  -0.83868  -0.83166  -0.82791
 Alpha  occ. eigenvalues --   -0.82514  -0.81519  -0.80233  -0.79367  -0.77738
 Alpha  occ. eigenvalues --   -0.76966  -0.75766  -0.74829  -0.74101  -0.73227
 Alpha  occ. eigenvalues --   -0.72822  -0.72311  -0.72160  -0.71871  -0.70147
 Alpha  occ. eigenvalues --   -0.69819  -0.69133  -0.68978  -0.68345  -0.67884
 Alpha  occ. eigenvalues --   -0.67563  -0.66827  -0.66381  -0.66195  -0.65922
 Alpha  occ. eigenvalues --   -0.65685  -0.65045  -0.64036  -0.63780  -0.63446
 Alpha  occ. eigenvalues --   -0.62235  -0.62193  -0.61414  -0.60603  -0.59642
 Alpha  occ. eigenvalues --   -0.59406  -0.59336  -0.59160  -0.58256  -0.58124
 Alpha  occ. eigenvalues --   -0.57510  -0.56982  -0.56824  -0.56724  -0.56144
 Alpha  occ. eigenvalues --   -0.55972  -0.55840  -0.55304  -0.54716  -0.54588
 Alpha  occ. eigenvalues --   -0.54464  -0.54198  -0.53779  -0.53344  -0.53238
 Alpha  occ. eigenvalues --   -0.53138  -0.52611  -0.52561  -0.52257  -0.52099
 Alpha  occ. eigenvalues --   -0.51635  -0.51166  -0.50891  -0.50629  -0.50478
 Alpha  occ. eigenvalues --   -0.50164  -0.50087  -0.49997  -0.49634  -0.49450
 Alpha  occ. eigenvalues --   -0.49255  -0.49014  -0.48803  -0.48722  -0.48331
 Alpha  occ. eigenvalues --   -0.48102  -0.47698  -0.47468  -0.47401  -0.47183
 Alpha  occ. eigenvalues --   -0.46901  -0.46579  -0.46288  -0.46242  -0.45730
 Alpha  occ. eigenvalues --   -0.45260  -0.44729  -0.44539  -0.44358  -0.44022
 Alpha  occ. eigenvalues --   -0.43891  -0.43253  -0.43217  -0.42824  -0.42599
 Alpha  occ. eigenvalues --   -0.42334  -0.42288  -0.41878  -0.41776  -0.41682
 Alpha  occ. eigenvalues --   -0.41465  -0.40959  -0.40766  -0.40009  -0.39859
 Alpha  occ. eigenvalues --   -0.39250  -0.38448  -0.37781  -0.37165  -0.36379
 Alpha  occ. eigenvalues --   -0.36313  -0.36201  -0.36102  -0.36032  -0.35828
 Alpha  occ. eigenvalues --   -0.35622  -0.35443  -0.34447  -0.34358  -0.33889
 Alpha  occ. eigenvalues --   -0.33533  -0.33199  -0.32616  -0.32404  -0.31187
 Alpha  occ. eigenvalues --   -0.30367  -0.29194  -0.22379  -0.22276  -0.20249
 Alpha virt. eigenvalues --   -0.13143  -0.10631  -0.09069  -0.08337  -0.08125
 Alpha virt. eigenvalues --   -0.07797  -0.07606  -0.06619  -0.05787  -0.05592
 Alpha virt. eigenvalues --   -0.05203  -0.04643  -0.03215  -0.03132  -0.01988

 Mulliken charges:
               1
     1  N   -0.745767
     2  H    0.418086
     3  H    0.430893
     4  H    0.425217
     5  C   -0.126477
     6  H    0.215451
     7  C    0.642836
     8  C    0.127875
     9  H    0.170168
    10  O   -0.530928
    11  C   -0.499539
    12  H    0.205237
    13  H    0.180251
    14  H    0.181031
    15  O   -0.647462
    16  H    0.434057
    17  N   -0.581196
    18  H    0.365387
    19  C   -0.095326
    20  H    0.200900
    21  C    0.628964
    22  C   -0.079654
    23  H    0.143963
    24  O   -0.559981
    25  C   -0.255373
    26  H    0.156473
    27  H    0.115627
    28  C   -0.503334
    29  H    0.171315
    30  H    0.173974
    31  H    0.165748
    32  C   -0.475324
    33  H    0.155071
    34  H    0.164321
    35  H    0.164191
    36  N   -0.633161
    37  H    0.399015
    38  C   -0.026482
    39  H    0.203652
    40  C    0.586784
    41  C   -0.486733
    42  H    0.164363
    43  H    0.177549
    44  H    0.176779
    45  O   -0.553100
    46  N   -0.603259
    47  H    0.370739
    48  C   -0.084939
    49  H    0.203965
    50  C    0.622819
    51  C   -0.277635
    52  H    0.174322
    53  H    0.168238
    54  O   -0.546091
    55  C   -0.378679
    56  H    0.153478
    57  H    0.210570
    58  C    0.626981
    59  N   -0.728131
    60  H    0.357775
    61  H    0.361914
    62  O   -0.549314
    63  N   -0.594960
    64  H    0.358098
    65  C   -0.060792
    66  H    0.210996
    67  C    0.638949
    68  C   -0.418004
    69  H    0.159611
    70  H    0.198371
    71  O   -0.557524
    72  C    0.170803
    73  C   -0.169558
    74  H    0.142605
    75  C   -0.206262
    76  H    0.151104
    77  C   -0.167930
    78  H    0.130807
    79  C   -0.176676
    80  H    0.146971
    81  O   -0.702866
    82  H    0.449493
    83  C    0.347568
    84  N   -0.578402
    85  H    0.339823
    86  C   -0.063900
    87  H    0.196889
    88  C    0.599262
    89  C   -0.500272
    90  H    0.239160
    91  H    0.162851
    92  H    0.145222
    93  O   -0.611470
    94  N   -0.580717
    95  H    0.367669
    96  C   -0.094642
    97  H    0.144532
    98  C    0.584641
    99  C   -0.270494
   100  H    0.198871
   101  H    0.130993
   102  O   -0.557688
   103  C   -0.303437
   104  H    0.155520
   105  H    0.156943
   106  C   -0.149676
   107  H    0.151873
   108  H    0.162090
   109  N   -0.622123
   110  H    0.429829
   111  N   -0.789563
   112  H    0.400794
   113  H    0.367830
   114  N   -0.854745
   115  H    0.386437
   116  H    0.415068
   117  C    0.768003
   118  O   -0.606068
 Sum of Mulliken charges =   1.00000

 Dipole moment (field-independent basis, Debye):
    X=            -35.4119    Y=            -16.2908    Z=            -24.2598  Tot=             45.9122
 Quadrupole moment (field-independent basis, Debye-Ang):
   XX=           -400.4883   YY=           -335.2731   ZZ=            -48.6014
   XY=            -46.0961   XZ=             90.3154   YZ=             29.0330

 Normal termination of Gaussian 16 at Mon Jun 27 02:46:25 2022.
