 Gaussian 16, Revision C.01,
 Gaussian 16:  ES64L-G16RevC.01  3-Jul-2019

 -------------------------------------------------------------------
 # B3LYP/6-31G* guess=read geom=check nosymm integral(ultrafinegrid)
 -------------------------------------------------------------------

 ------------------------------------------------------
 Candidate Structure: Conf:727 Charge calc in gas phase
 ------------------------------------------------------
 Structure from the checkpoint file:  "conf-727.chk"
 Charge =  1 Multiplicity = 1

                          Input orientation:
 ---------------------------------------------------------------------
 Center     Atomic      Atomic             Coordinates (Angstroms)
 Number     Number       Type             X           Y           Z
 ---------------------------------------------------------------------
      1          7           0       -4.525730   -1.371619    1.077391
      2          1           0       -5.055718   -0.730903    0.447456
      3          1           0       -4.015330   -2.034415    0.463347
      4          1           0       -5.174671   -1.871808    1.692551
      5          6           0       -3.441636   -0.622318    1.831570
      6          1           0       -3.902510    0.281243    2.239272
      7          6           0       -2.428997   -0.329641    0.704846
      8          6           0       -2.855854   -1.527196    2.923707
      9          1           0       -3.672583   -1.912924    3.548961
     10          1           0       -2.362501   -2.382264    2.449873
     11          8           0       -2.222343   -1.234219   -0.111346
     12          6           0       -1.834508   -0.798522    3.811401
     13          1           0       -2.306417   -0.046047    4.449083
     14          1           0       -1.073765   -0.310236    3.189505
     15          6           0       -1.064132   -1.794017    4.662227
     16          8           0       -0.655343   -2.864279    4.257980
     17          8           0       -0.859108   -1.340699    5.906789
     18          7           0       -1.884530    0.889815    0.656779
     19          1           0       -2.197368    1.600897    1.306991
     20          6           0       -1.156402    1.360325   -0.534696
     21          1           0       -1.372499    0.624086   -1.313156
     22          6           0        0.360801    1.305614   -0.224516
     23          6           0       -1.640479    2.768853   -0.959193
     24          1           0       -1.515578    2.839212   -2.046961
     25          1           0       -0.954237    3.504144   -0.527381
     26          8           0        1.032215    2.322945   -0.060503
     27          6           0       -3.055346    3.095040   -0.551471
     28          6           0       -3.433593    4.226901    0.132380
     29          1           0       -2.828855    5.064968    0.452392
     30          6           0       -4.264530    2.320055   -0.734795
     31          6           0       -5.328292    3.045461   -0.120702
     32          6           0       -4.561266    1.080162   -1.332959
     33          1           0       -3.794104    0.517268   -1.857854
     34          7           0       -4.788815    4.203753    0.389596
     35          1           0       -5.308319    4.948876    0.830117
     36          6           0       -6.897883    1.323363   -0.643335
     37          1           0       -7.909975    0.929765   -0.636584
     38          6           0       -6.641084    2.560730   -0.066629
     39          1           0       -7.434773    3.134490    0.403431
     40          6           0       -5.867450    0.587388   -1.275418
     41          1           0       -6.116272   -0.334409   -1.797508
     42          7           0        0.839272    0.047549   -0.099616
     43          1           0        0.178196   -0.720036   -0.156040
     44          6           0        2.089793   -0.242100    0.615939
     45          1           0        2.237082    0.567825    1.341453
     46          6           0        3.300262   -0.254615   -0.351951
     47          6           0        1.953151   -1.579969    1.361472
     48          1           0        2.006053   -2.390059    0.622113
     49          8           0        3.933687   -1.277393   -0.585223
     50          6           0        3.050934   -1.774385    2.402192
     51          1           0        4.032272   -1.796927    1.922783
     52          1           0        2.911175   -2.728433    2.924324
     53          1           0        3.027071   -0.969047    3.145397
     54          8           0        0.647507   -1.562322    1.969254
     55          1           0        0.543648   -2.370355    2.500194
     56          7           0        3.568909    0.958602   -0.901349
     57          1           0        2.995167    1.748321   -0.616580
     58          6           0        4.702064    1.179286   -1.782913
     59          1           0        5.123155    0.184075   -1.973602
     60          6           0        5.822478    1.984407   -1.112719
     61          6           0        4.306414    1.826303   -3.121683
     62          1           0        5.236817    2.035390   -3.657896
     63          1           0        3.833658    2.800481   -2.924763
     64          8           0        6.692720    2.566365   -1.719144
     65          6           0        3.379614    0.952549   -3.971677
     66          1           0        3.840571   -0.027820   -4.145314
     67          1           0        2.442747    0.767473   -3.428353
     68          6           0        3.035089    1.578829   -5.334704
     69          1           0        2.295250    0.950037   -5.837835
     70          1           0        2.566778    2.561257   -5.192881
     71          7           0        4.170005    1.778425   -6.240854
     72          1           0        4.773312    2.547087   -5.973919
     73          7           0        4.103713   -0.404570   -7.086409
     74          1           0        4.670280   -1.098239   -7.563562
     75          1           0        3.283283   -0.162535   -7.633918
     76          7           0        6.167829    0.637357   -6.940848
     77          1           0        6.646536    1.441550   -6.529871
     78          6           0        4.901054    0.697427   -6.752433
     79          8           0        5.761164    1.954978    0.238297
     80          1           0       -0.319947   -2.006278    6.378265
     81          1           0        6.541009    2.453888    0.549304
 ---------------------------------------------------------------------

 SCF Done:  E(RB3LYP) =  -2053.91174197     A.U. after    1 cycles

 Alpha  occ. eigenvalues --  -19.31075 -19.27473 -19.25763 -19.25480 -19.23632
 Alpha  occ. eigenvalues --  -19.22593 -19.19827 -19.18591 -14.61368 -14.51396
 Alpha  occ. eigenvalues --  -14.49628 -14.45985 -14.42576 -14.39117 -14.37717
 Alpha  occ. eigenvalues --  -14.32079 -10.44644 -10.44029 -10.42092 -10.39416
 Alpha  occ. eigenvalues --  -10.37974 -10.35912 -10.35777 -10.35072 -10.34003
 Alpha  occ. eigenvalues --  -10.33568 -10.33037 -10.32451 -10.31834 -10.31561
 Alpha  occ. eigenvalues --  -10.31197 -10.30865 -10.30718 -10.30635 -10.30615
 Alpha  occ. eigenvalues --  -10.30586 -10.30168 -10.30072 -10.27388 -10.25080
 Alpha  occ. eigenvalues --  -10.24943 -10.23953  -1.22087  -1.20127  -1.16589
 Alpha  occ. eigenvalues --   -1.15286  -1.14227  -1.13079  -1.10877  -1.10247
 Alpha  occ. eigenvalues --   -1.09680  -1.07740  -1.07478  -1.02256  -1.01167
 Alpha  occ. eigenvalues --   -0.99336  -0.96095  -0.95787  -0.92588  -0.92247
 Alpha  occ. eigenvalues --   -0.89356  -0.87889  -0.87340  -0.86425  -0.85541
 Alpha  occ. eigenvalues --   -0.84971  -0.83797  -0.80476  -0.80299  -0.78898
 Alpha  occ. eigenvalues --   -0.76460  -0.75399  -0.74272  -0.74077  -0.73576
 Alpha  occ. eigenvalues --   -0.72996  -0.71157  -0.70856  -0.70424  -0.68803
 Alpha  occ. eigenvalues --   -0.67936  -0.66994  -0.66210  -0.65622  -0.65568
 Alpha  occ. eigenvalues --   -0.65127  -0.64919  -0.63305  -0.62198  -0.61994
 Alpha  occ. eigenvalues --   -0.61196  -0.60805  -0.60334  -0.59602  -0.59153
 Alpha  occ. eigenvalues --   -0.58811  -0.58382  -0.58049  -0.57279  -0.56652
 Alpha  occ. eigenvalues --   -0.55704  -0.55315  -0.55008  -0.54870  -0.54422
 Alpha  occ. eigenvalues --   -0.54354  -0.54325  -0.53873  -0.53137  -0.52718
 Alpha  occ. eigenvalues --   -0.52389  -0.51759  -0.51290  -0.51092  -0.50879
 Alpha  occ. eigenvalues --   -0.50649  -0.50183  -0.49902  -0.49700  -0.49648
 Alpha  occ. eigenvalues --   -0.49414  -0.49386  -0.48800  -0.48475  -0.47758
 Alpha  occ. eigenvalues --   -0.46885  -0.46711  -0.46536  -0.45885  -0.45697
 Alpha  occ. eigenvalues --   -0.45664  -0.45504  -0.44720  -0.44540  -0.43411
 Alpha  occ. eigenvalues --   -0.43173  -0.42416  -0.41879  -0.41592  -0.41299
 Alpha  occ. eigenvalues --   -0.40289  -0.40094  -0.39540  -0.39280  -0.39257
 Alpha  occ. eigenvalues --   -0.37656  -0.36847  -0.36090  -0.35924  -0.35029
 Alpha  occ. eigenvalues --   -0.34636  -0.32338  -0.31739  -0.31070  -0.30235
 Alpha  occ. eigenvalues --   -0.29311  -0.26403
 Alpha virt. eigenvalues --   -0.14644  -0.13034  -0.11693  -0.10617  -0.09881
 Alpha virt. eigenvalues --   -0.09197  -0.06332  -0.05578  -0.05246  -0.05070
 Alpha virt. eigenvalues --   -0.04755  -0.03696  -0.02520  -0.02266  -0.01841

 Mulliken charges:
               1
     1  N   -0.751258
     2  H    0.412188
     3  H    0.423801
     4  H    0.410277
     5  C   -0.121790
     6  H    0.204779
     7  C    0.670308
     8  C   -0.287410
     9  H    0.170527
    10  H    0.214860
    11  O   -0.547670
    12  C   -0.378861
    13  H    0.185711
    14  H    0.227454
    15  C    0.604418
    16  O   -0.469065
    17  O   -0.543961
    18  N   -0.574540
    19  H    0.350880
    20  C   -0.092593
    21  H    0.206516
    22  C    0.635922
    23  C   -0.383691
    24  H    0.190048
    25  H    0.201656
    26  O   -0.525146
    27  C    0.033320
    28  C    0.005373
    29  H    0.185531
    30  C    0.084368
    31  C    0.314976
    32  C   -0.246889
    33  H    0.158752
    34  N   -0.678224
    35  H    0.351418
    36  C   -0.153401
    37  H    0.158561
    38  C   -0.157625
    39  H    0.159146
    40  C   -0.224719
    41  H    0.155916
    42  N   -0.595208
    43  H    0.366709
    44  C   -0.081098
    45  H    0.181560
    46  C    0.642311
    47  C    0.124363
    48  H    0.161609
    49  O   -0.515676
    50  C   -0.481851
    51  H    0.200128
    52  H    0.152804
    53  H    0.148931
    54  O   -0.690464
    55  H    0.422195
    56  N   -0.614906
    57  H    0.364010
    58  C   -0.070724
    59  H    0.224049
    60  C    0.594261
    61  C   -0.272694
    62  H    0.174729
    63  H    0.132741
    64  O   -0.454328
    65  C   -0.261823
    66  H    0.175571
    67  H    0.122188
    68  C   -0.141265
    69  H    0.149988
    70  H    0.138797
    71  N   -0.584477
    72  H    0.315010
    73  N   -0.738385
    74  H    0.339906
    75  H    0.320046
    76  N   -0.627062
    77  H    0.266937
    78  C    0.548475
    79  O   -0.566663
    80  H    0.431961
    81  H    0.417483
 Sum of Mulliken charges =   1.00000

 Dipole moment (field-independent basis, Debye):
    X=            -22.9943    Y=              3.1005    Z=             10.5726  Tot=             25.4976
 Quadrupole moment (field-independent basis, Debye-Ang):
   XX=           -162.6549   YY=           -205.5479   ZZ=           -211.5049
   XY=              0.0096   XZ=              2.2507   YZ=             -8.2424

 Normal termination of Gaussian 16 at Thu May 26 18:08:04 2022.
