 Gaussian 16, Revision C.01,
 Gaussian 16:  ES64L-G16RevC.01  3-Jul-2019

 -------------------------------------------------------------------
 # B3LYP/6-31G* guess=read geom=check nosymm integral(ultrafinegrid)
 -------------------------------------------------------------------

 ------------------------------------------------------
 Candidate Structure: Conf:217 Charge calc in gas phase
 ------------------------------------------------------
 Structure from the checkpoint file:  "conf-217.chk"
 Charge =  1 Multiplicity = 1

                          Input orientation:
 ---------------------------------------------------------------------
 Center     Atomic      Atomic             Coordinates (Angstroms)
 Number     Number       Type             X           Y           Z
 ---------------------------------------------------------------------
      1          7           0       -2.791682    4.159030    2.262492
      2          1           0       -2.308309    4.273438    0.434413
      3          1           0       -3.769877    3.864084    2.207120
      4          1           0       -2.814581    5.034173    2.790275
      5          6           0       -2.059431    3.142808    3.072058
      6          1           0       -1.003309    3.443759    3.071482
      7          6           0       -2.206188    1.795767    2.331942
      8          6           0       -2.567672    3.050360    4.514321
      9          1           0       -2.539338    4.049405    4.965129
     10          1           0       -3.616502    2.736348    4.498201
     11          8           0       -3.157584    1.051420    2.554510
     12          6           0       -1.765387    2.084569    5.389228
     13          1           0       -0.688249    2.299920    5.348460
     14          1           0       -1.884624    1.049147    5.051693
     15          6           0       -2.189477    2.163078    6.843342
     16          8           0       -2.967999    2.967361    7.304299
     17          8           0       -1.574752    1.214994    7.584641
     18          7           0       -1.252535    1.555256    1.394942
     19          1           0       -0.391501    2.095931    1.416076
     20          6           0       -1.092017    0.289652    0.699536
     21          1           0       -1.583135   -0.493242    1.287309
     22          6           0        0.435253    0.067395    0.591924
     23          6           0       -1.634701    0.275635   -0.765941
     24          1           0       -1.593815   -0.764997   -1.114350
     25          1           0       -0.906114    0.810222   -1.389172
     26          8           0        1.207606    1.001307    0.854705
     27          6           0       -2.988487    0.866962   -1.041614
     28          6           0       -4.150856    0.805116   -0.308245
     29          1           0       -4.323211    0.377032    0.668290
     30          6           0       -3.312084    1.591542   -2.250339
     31          6           0       -4.685495    1.960772   -2.170499
     32          6           0       -2.580496    1.953926   -3.402878
     33          1           0       -1.554338    1.616623   -3.535163
     34          7           0       -5.161928    1.465827   -0.976602
     35          1           0       -6.115184    1.535234   -0.652392
     36          6           0       -4.569915    3.058943   -4.287223
     37          1           0       -5.038265    3.622766   -5.088046
     38          6           0       -5.322946    2.695131   -3.177904
     39          1           0       -6.372399    2.965358   -3.101107
     40          6           0       -3.212650    2.687186   -4.403456
     41          1           0       -2.668478    2.946217   -5.307703
     42          7           0        0.842707   -1.100616    0.065223
     43          1           0        0.233348   -1.910403    0.081844
     44          6           0        2.238668   -1.367603   -0.312748
     45          1           0        2.889603   -1.059262    0.513550
     46          6           0        2.554911   -0.547237   -1.595226
     47          6           0        2.405212   -2.870880   -0.589149
     48          1           0        1.951385   -3.076552   -1.567475
     49          8           0        2.410952   -1.016371   -2.715865
     50          6           0        3.874389   -3.281397   -0.614290
     51          1           0        4.417135   -2.744340   -1.398898
     52          1           0        3.964894   -4.352347   -0.829010
     53          1           0        4.348944   -3.084650    0.353017
     54          8           0        1.673291   -3.539984    0.444789
     55          1           0        1.722885   -4.493164    0.272791
     56          7           0        2.948631    0.739549   -1.354587
     57          1           0        2.812564    1.074163   -0.404399
     58          6           0        2.939459    1.738075   -2.418310
     59          1           0        2.667810    1.192412   -3.330587
     60          6           0        4.342986    2.316557   -2.639663
     61          6           0        1.922174    2.855953   -2.115319
     62          1           0        2.336807    3.500379   -1.330111
     63          1           0        1.026258    2.382699   -1.699920
     64          8           0        4.606008    3.500948   -2.646785
     65          6           0        1.541530    3.711034   -3.330840
     66          1           0        2.445533    4.096118   -3.813516
     67          1           0        1.017446    3.097124   -4.076538
     68          6           0        0.678958    4.931200   -2.974336
     69          1           0        1.242988    5.585005   -2.304991
     70          1           0        0.454616    5.513779   -3.873770
     71          7           0       -0.600766    4.580325   -2.335580
     72          1           0       -1.243526    4.015062   -2.887896
     73          7           0       -0.220432    5.554752   -0.237366
     74          1           0       -0.597842    5.761963    0.676584
     75          1           0        0.391678    6.258213   -0.622959
     76          7           0       -2.068535    4.212237   -0.578701
     77          1           0       -2.501895    3.451122   -1.096362
     78          6           0       -0.966448    4.780395   -1.062396
     79          8           0        5.255206    1.351668   -2.843337
     80          1           0       -1.886146    1.331603    8.502570
     81          1           0        6.112758    1.796130   -2.987249
 ---------------------------------------------------------------------

 SCF Done:  E(RB3LYP) =  -2053.96362501     A.U. after    1 cycles

 Alpha  occ. eigenvalues --  -19.27917 -19.26342 -19.23466 -19.23231 -19.22689
 Alpha  occ. eigenvalues --  -19.21895 -19.20885 -19.20515 -14.50766 -14.50519
 Alpha  occ. eigenvalues --  -14.48176 -14.47699 -14.46765 -14.45998 -14.45740
 Alpha  occ. eigenvalues --  -14.44631 -10.46585 -10.40635 -10.39910 -10.39180
 Alpha  occ. eigenvalues --  -10.38922 -10.37661 -10.35401 -10.34250 -10.33512
 Alpha  occ. eigenvalues --  -10.32971 -10.32737 -10.32593 -10.31833 -10.31158
 Alpha  occ. eigenvalues --  -10.30074 -10.29749 -10.29192 -10.28963 -10.28730
 Alpha  occ. eigenvalues --  -10.28595 -10.28315 -10.28222 -10.28205 -10.28067
 Alpha  occ. eigenvalues --  -10.27902 -10.25484  -1.19081  -1.17317  -1.15115
 Alpha  occ. eigenvalues --   -1.14951  -1.13565  -1.12405  -1.10812  -1.10098
 Alpha  occ. eigenvalues --   -1.08410  -1.07634  -1.04672  -1.03018  -1.02746
 Alpha  occ. eigenvalues --   -1.02476  -1.01496  -1.01213  -0.93791  -0.90888
 Alpha  occ. eigenvalues --   -0.90483  -0.88348  -0.87838  -0.85791  -0.85050
 Alpha  occ. eigenvalues --   -0.83437  -0.81781  -0.80608  -0.80124  -0.78632
 Alpha  occ. eigenvalues --   -0.76808  -0.76680  -0.73152  -0.72815  -0.72237
 Alpha  occ. eigenvalues --   -0.71859  -0.71288  -0.69136  -0.68614  -0.68157
 Alpha  occ. eigenvalues --   -0.67756  -0.67489  -0.66536  -0.66167  -0.65604
 Alpha  occ. eigenvalues --   -0.64275  -0.63637  -0.63373  -0.62862  -0.62045
 Alpha  occ. eigenvalues --   -0.61452  -0.60469  -0.59456  -0.58978  -0.58830
 Alpha  occ. eigenvalues --   -0.58613  -0.57580  -0.57426  -0.56890  -0.56719
 Alpha  occ. eigenvalues --   -0.56534  -0.56230  -0.55915  -0.55405  -0.55098
 Alpha  occ. eigenvalues --   -0.54574  -0.54323  -0.53542  -0.53275  -0.52805
 Alpha  occ. eigenvalues --   -0.52757  -0.52483  -0.51810  -0.51561  -0.51160
 Alpha  occ. eigenvalues --   -0.50981  -0.50716  -0.50396  -0.49883  -0.49264
 Alpha  occ. eigenvalues --   -0.48788  -0.48639  -0.48439  -0.47767  -0.47525
 Alpha  occ. eigenvalues --   -0.47280  -0.46906  -0.46213  -0.46104  -0.45945
 Alpha  occ. eigenvalues --   -0.45911  -0.45241  -0.44886  -0.44801  -0.44609
 Alpha  occ. eigenvalues --   -0.44424  -0.43463  -0.43381  -0.43075  -0.41719
 Alpha  occ. eigenvalues --   -0.41529  -0.40219  -0.39026  -0.38669  -0.38428
 Alpha  occ. eigenvalues --   -0.37823  -0.37622  -0.37325  -0.36906  -0.35914
 Alpha  occ. eigenvalues --   -0.35872  -0.35280  -0.34562  -0.33897  -0.33108
 Alpha  occ. eigenvalues --   -0.32321  -0.30095
 Alpha virt. eigenvalues --   -0.11348  -0.10593  -0.09109  -0.08975  -0.08245
 Alpha virt. eigenvalues --   -0.07608  -0.07008  -0.06671  -0.05863  -0.04185
 Alpha virt. eigenvalues --   -0.03656  -0.03463  -0.01752  -0.01206  -0.00801

 Mulliken charges:
               1
     1  N   -0.774738
     2  H    0.423912
     3  H    0.338254
     4  H    0.330158
     5  C   -0.072790
     6  H    0.142141
     7  C    0.624875
     8  C   -0.259895
     9  H    0.158980
    10  H    0.178681
    11  O   -0.525757
    12  C   -0.374617
    13  H    0.176965
    14  H    0.200401
    15  C    0.587350
    16  O   -0.453939
    17  O   -0.564240
    18  N   -0.606036
    19  H    0.352691
    20  C   -0.056443
    21  H    0.193845
    22  C    0.626710
    23  C   -0.360920
    24  H    0.176579
    25  H    0.150952
    26  O   -0.561498
    27  C    0.064925
    28  C   -0.000338
    29  H    0.208410
    30  C    0.014358
    31  C    0.324746
    32  C   -0.273171
    33  H    0.146473
    34  N   -0.685425
    35  H    0.346006
    36  C   -0.150421
    37  H    0.153654
    38  C   -0.154510
    39  H    0.152147
    40  C   -0.145737
    41  H    0.144073
    42  N   -0.601739
    43  H    0.363511
    44  C   -0.051448
    45  H    0.180682
    46  C    0.614297
    47  C    0.110179
    48  H    0.166231
    49  O   -0.507342
    50  C   -0.476543
    51  H    0.178640
    52  H    0.158838
    53  H    0.165125
    54  O   -0.647573
    55  H    0.410398
    56  N   -0.606707
    57  H    0.368672
    58  C   -0.053795
    59  H    0.209951
    60  C    0.597988
    61  C   -0.280940
    62  H    0.158007
    63  H    0.149080
    64  O   -0.467444
    65  C   -0.283345
    66  H    0.196506
    67  H    0.152941
    68  C   -0.169029
    69  H    0.167380
    70  H    0.194696
    71  N   -0.608319
    72  H    0.365740
    73  N   -0.754811
    74  H    0.371754
    75  H    0.375187
    76  N   -0.807093
    77  H    0.390420
    78  C    0.775069
    79  O   -0.545723
    80  H    0.419925
    81  H    0.423821
 Sum of Mulliken charges =   1.00000

 Dipole moment (field-independent basis, Debye):
    X=             -4.2330    Y=             14.2889    Z=             -2.2046  Tot=             15.0649
 Quadrupole moment (field-independent basis, Debye-Ang):
   XX=           -188.7553   YY=           -141.3363   ZZ=           -212.7398
   XY=            -25.7694   XZ=              4.7517   YZ=            -17.5327

 Normal termination of Gaussian 16 at Thu May 26 18:08:06 2022.
