 Gaussian 16, Revision C.01,
 Gaussian 16:  ES64L-G16RevC.01  3-Jul-2019

 -------------------------------------------------------------------
 # B3LYP/6-31G* guess=read geom=check nosymm integral(ultrafinegrid)
 -------------------------------------------------------------------

 ------------------------------------------------------
 Candidate Structure: Conf:347 Charge calc in gas phase
 ------------------------------------------------------
 Structure from the checkpoint file:  "conf-347.chk"
 Charge =  1 Multiplicity = 1

                          Input orientation:
 ---------------------------------------------------------------------
 Center     Atomic      Atomic             Coordinates (Angstroms)
 Number     Number       Type             X           Y           Z
 ---------------------------------------------------------------------
      1          7           0       -1.590038    4.796888    1.384623
      2          1           0       -0.936697    4.094898    1.741152
      3          1           0       -0.850668    5.344842   -0.254847
      4          1           0       -1.719565    5.482848    2.128813
      5          6           0       -2.897858    4.140554    1.117206
      6          1           0       -3.360535    3.800864    2.057043
      7          6           0       -2.593734    2.912699    0.235447
      8          6           0       -3.845982    5.132320    0.430522
      9          1           0       -3.810712    6.079610    0.985253
     10          1           0       -3.480291    5.334250   -0.580314
     11          8           0       -2.132651    3.027800   -0.903326
     12          6           0       -5.297141    4.625943    0.375351
     13          1           0       -5.684812    4.424027    1.377947
     14          1           0       -5.349869    3.696048   -0.205315
     15          6           0       -6.248027    5.612996   -0.269095
     16          8           0       -7.278781    6.016457    0.215091
     17          8           0       -5.811543    6.005884   -1.495961
     18          7           0       -2.828648    1.713809    0.818007
     19          1           0       -3.124721    1.725870    1.783586
     20          6           0       -2.223238    0.472941    0.346733
     21          1           0       -2.504610   -0.285527    1.086668
     22          6           0       -0.673378    0.603767    0.448945
     23          6           0       -2.766051   -0.012537   -1.025807
     24          1           0       -2.289212   -0.973885   -1.252892
     25          1           0       -2.451486    0.691018   -1.799561
     26          8           0       -0.134650    1.523770    1.062787
     27          6           0       -4.257827   -0.201314   -1.057077
     28          6           0       -4.949552   -1.286603   -0.571526
     29          1           0       -4.580532   -2.190054   -0.103479
     30          6           0       -5.244918    0.695778   -1.607928
     31          6           0       -6.517087    0.089546   -1.415010
     32          6           0       -5.182523    1.938779   -2.266150
     33          1           0       -4.226183    2.426488   -2.432817
     34          7           0       -6.302670   -1.111858   -0.770766
     35          1           0       -7.015055   -1.789550   -0.546371
     36          6           0       -7.612538    1.914465   -2.487635
     37          1           0       -8.516939    2.403979   -2.836955
     38          6           0       -7.707040    0.685893   -1.846282
     39          1           0       -8.669170    0.205936   -1.689252
     40          6           0       -6.362323    2.533661   -2.697810
     41          1           0       -6.323007    3.495848   -3.200203
     42          7           0        0.027488   -0.426868   -0.084103
     43          1           0       -0.389609   -1.041631   -0.773391
     44          6           0        1.473878   -0.509660   -0.013359
     45          1           0        1.792625   -0.421113    1.030906
     46          6           0        2.153240    0.558236   -0.878112
     47          6           0        1.886857   -1.899063   -0.595309
     48          1           0        2.976216   -1.880818   -0.754202
     49          8           0        1.811793    0.720776   -2.054637
     50          6           0        1.538048   -3.060139    0.326581
     51          1           0        2.100019   -2.993927    1.263956
     52          1           0        1.792283   -4.002520   -0.166412
     53          1           0        0.468887   -3.073084    0.560019
     54          8           0        1.206707   -2.101840   -1.827796
     55          1           0        1.399867   -1.327107   -2.392189
     56          7           0        3.205323    1.221041   -0.338086
     57          1           0        3.461698    1.075717    0.628295
     58          6           0        3.985367    2.123821   -1.172024
     59          1           0        4.048460    1.646986   -2.158981
     60          6           0        5.418994    2.285266   -0.683553
     61          6           0        3.308685    3.507866   -1.356421
     62          1           0        3.690963    4.215771   -0.611903
     63          1           0        2.244772    3.359346   -1.151706
     64          8           0        6.161064    3.149852   -1.088432
     65          6           0        3.484480    4.068494   -2.772130
     66          1           0        4.547867    4.217492   -2.990610
     67          1           0        3.106252    3.333333   -3.495739
     68          6           0        2.764139    5.406115   -2.993208
     69          1           0        3.206921    6.180928   -2.363534
     70          1           0        2.874421    5.737556   -4.029947
     71          7           0        1.321688    5.322884   -2.699834
     72          1           0        0.803288    4.652460   -3.255836
     73          7           0        1.336680    6.580763   -0.729679
     74          1           0        0.803914    6.928694    0.055494
     75          1           0        2.002722    7.234789   -1.114625
     76          7           0       -0.466315    5.220041   -1.215377
     77          1           0       -0.847021    4.364224   -1.618040
     78          6           0        0.723350    5.694842   -1.554228
     79          8           0        5.776498    1.364674    0.238134
     80          1           0       -6.487161    6.623059   -1.836376
     81          1           0        6.708825    1.543307    0.469964
 ---------------------------------------------------------------------

 SCF Done:  E(RB3LYP) =  -2053.96363253     A.U. after    1 cycles

 Alpha  occ. eigenvalues --  -19.30019 -19.26376 -19.23924 -19.22832 -19.22362
 Alpha  occ. eigenvalues --  -19.21802 -19.21264 -19.20510 -14.50549 -14.50507
 Alpha  occ. eigenvalues --  -14.47471 -14.46651 -14.46514 -14.45150 -14.44967
 Alpha  occ. eigenvalues --  -14.44679 -10.46253 -10.42354 -10.39277 -10.38853
 Alpha  occ. eigenvalues --  -10.38707 -10.38291 -10.35237 -10.34373 -10.33497
 Alpha  occ. eigenvalues --  -10.33402 -10.33329 -10.32811 -10.29598 -10.29449
 Alpha  occ. eigenvalues --  -10.28842 -10.28569 -10.28257 -10.27987 -10.27641
 Alpha  occ. eigenvalues --  -10.25758 -10.25345 -10.25064 -10.24930 -10.24718
 Alpha  occ. eigenvalues --  -10.24514 -10.24223  -1.20783  -1.17073  -1.14764
 Alpha  occ. eigenvalues --   -1.14318  -1.13929  -1.12538  -1.11746  -1.10437
 Alpha  occ. eigenvalues --   -1.08088  -1.04570  -1.04549  -1.02952  -1.02877
 Alpha  occ. eigenvalues --   -1.02235  -1.01588  -1.00695  -0.91043  -0.90119
 Alpha  occ. eigenvalues --   -0.89102  -0.88207  -0.87116  -0.85483  -0.83820
 Alpha  occ. eigenvalues --   -0.80824  -0.80401  -0.79746  -0.79292  -0.78069
 Alpha  occ. eigenvalues --   -0.76904  -0.75394  -0.73215  -0.72346  -0.71998
 Alpha  occ. eigenvalues --   -0.70256  -0.69733  -0.68968  -0.68604  -0.67849
 Alpha  occ. eigenvalues --   -0.67432  -0.67356  -0.67305  -0.65604  -0.64164
 Alpha  occ. eigenvalues --   -0.63380  -0.62935  -0.62693  -0.61695  -0.60771
 Alpha  occ. eigenvalues --   -0.60258  -0.59870  -0.59679  -0.59272  -0.58895
 Alpha  occ. eigenvalues --   -0.58321  -0.58079  -0.57840  -0.57058  -0.56687
 Alpha  occ. eigenvalues --   -0.55525  -0.54975  -0.54831  -0.54391  -0.54129
 Alpha  occ. eigenvalues --   -0.53751  -0.53606  -0.53418  -0.52907  -0.52312
 Alpha  occ. eigenvalues --   -0.51834  -0.51686  -0.51356  -0.50842  -0.50543
 Alpha  occ. eigenvalues --   -0.50172  -0.50030  -0.49828  -0.49372  -0.48805
 Alpha  occ. eigenvalues --   -0.48540  -0.48022  -0.47920  -0.47541  -0.46773
 Alpha  occ. eigenvalues --   -0.46697  -0.46157  -0.45659  -0.45468  -0.45346
 Alpha  occ. eigenvalues --   -0.45034  -0.44907  -0.44681  -0.44414  -0.43920
 Alpha  occ. eigenvalues --   -0.43721  -0.41942  -0.41781  -0.41559  -0.41277
 Alpha  occ. eigenvalues --   -0.39932  -0.39542  -0.38998  -0.38436  -0.37981
 Alpha  occ. eigenvalues --   -0.37827  -0.37193  -0.36364  -0.35999  -0.35905
 Alpha  occ. eigenvalues --   -0.35679  -0.34889  -0.33995  -0.33922  -0.33608
 Alpha  occ. eigenvalues --   -0.28621  -0.26825
 Alpha virt. eigenvalues --   -0.10835  -0.09362  -0.09161  -0.08026  -0.07695
 Alpha virt. eigenvalues --   -0.07040  -0.06616  -0.05695  -0.03926  -0.03670
 Alpha virt. eigenvalues --   -0.03558  -0.02546  -0.01750  -0.01177  -0.00314

 Mulliken charges:
               1
     1  N   -0.782435
     2  H    0.346573
     3  H    0.412672
     4  H    0.328541
     5  C   -0.060428
     6  H    0.138713
     7  C    0.660243
     8  C   -0.275269
     9  H    0.147588
    10  H    0.184244
    11  O   -0.567439
    12  C   -0.367013
    13  H    0.173206
    14  H    0.209589
    15  C    0.573180
    16  O   -0.444432
    17  O   -0.567309
    18  N   -0.570032
    19  H    0.346055
    20  C   -0.071313
    21  H    0.178842
    22  C    0.652264
    23  C   -0.377413
    24  H    0.154380
    25  H    0.192245
    26  O   -0.560036
    27  C    0.067780
    28  C   -0.001300
    29  H    0.152369
    30  C    0.080679
    31  C    0.310486
    32  C   -0.237450
    33  H    0.140912
    34  N   -0.685324
    35  H    0.337963
    36  C   -0.150162
    37  H    0.138576
    38  C   -0.158305
    39  H    0.137491
    40  C   -0.144878
    41  H    0.130438
    42  N   -0.616172
    43  H    0.364036
    44  C   -0.069053
    45  H    0.159590
    46  C    0.656303
    47  C    0.102119
    48  H    0.144363
    49  O   -0.561253
    50  C   -0.447170
    51  H    0.152990
    52  H    0.184784
    53  H    0.155354
    54  O   -0.631749
    55  H    0.418088
    56  N   -0.619097
    57  H    0.353573
    58  C   -0.030479
    59  H    0.214633
    60  C    0.581059
    61  C   -0.270098
    62  H    0.156687
    63  H    0.166366
    64  O   -0.446981
    65  C   -0.287873
    66  H    0.195413
    67  H    0.168078
    68  C   -0.172536
    69  H    0.166183
    70  H    0.197361
    71  N   -0.584045
    72  H    0.365059
    73  N   -0.746408
    74  H    0.373439
    75  H    0.374195
    76  N   -0.784389
    77  H    0.395969
    78  C    0.770013
    79  O   -0.570070
    80  H    0.416362
    81  H    0.430864
 Sum of Mulliken charges =   1.00000

 Dipole moment (field-independent basis, Debye):
    X=              2.1443    Y=             16.0991    Z=              0.0312  Tot=             16.2413
 Quadrupole moment (field-independent basis, Debye-Ang):
   XX=           -183.0911   YY=           -119.1359   ZZ=           -221.8977
   XY=             30.8626   XZ=             -3.0189   YZ=            -22.5558

 Normal termination of Gaussian 16 at Thu May 26 18:08:06 2022.
