 Gaussian 16, Revision C.01,
 Gaussian 16:  ES64L-G16RevC.01  3-Jul-2019

 -------------------------------------------------------------------
 # B3LYP/6-31G* guess=read geom=check nosymm integral(ultrafinegrid)
 -------------------------------------------------------------------

 ------------------------------------------------------
 Candidate Structure: Conf:966 Charge calc in gas phase
 ------------------------------------------------------
 Structure from the checkpoint file:  "conf-966.chk"
 Charge =  1 Multiplicity = 1

                          Input orientation:
 ---------------------------------------------------------------------
 Center     Atomic      Atomic             Coordinates (Angstroms)
 Number     Number       Type             X           Y           Z
 ---------------------------------------------------------------------
      1          7           0       -4.404240   -0.948682    4.961020
      2          1           0       -5.245333   -0.408440    5.182493
      3          1           0       -4.595053   -1.554766    4.100959
      4          1           0       -4.160119   -1.522019    5.773882
      5          6           0       -3.249886   -0.092043    4.470325
      6          1           0       -3.483540    0.952278    4.693874
      7          6           0       -3.277623   -0.366100    2.936518
      8          6           0       -1.954637   -0.534011    5.171899
      9          1           0       -2.131743   -0.561687    6.253777
     10          1           0       -1.707671   -1.558435    4.867617
     11          8           0       -3.967926   -1.323397    2.545276
     12          6           0       -0.752198    0.385355    4.926385
     13          1           0       -1.001170    1.434995    5.134966
     14          1           0       -0.390656    0.355445    3.893670
     15          6           0        0.392209   -0.004784    5.850978
     16          8           0        0.304776   -0.817859    6.743596
     17          8           0        1.509236    0.679268    5.553855
     18          7           0       -2.548422    0.430661    2.172807
     19          1           0       -1.964697    1.182452    2.548940
     20          6           0       -2.345649    0.276381    0.729807
     21          1           0       -2.308536   -0.790058    0.490185
     22          6           0       -0.973160    0.941867    0.484070
     23          6           0       -3.511337    0.941470   -0.063759
     24          1           0       -3.599237    1.979491    0.278546
     25          1           0       -4.427687    0.424963    0.244486
     26          8           0       -0.535812    1.746402    1.319438
     27          6           0       -3.358777    0.905843   -1.556223
     28          6           0       -3.691417   -0.132282   -2.398253
     29          1           0       -4.128307   -1.095639   -2.170075
     30          6           0       -2.840391    1.961095   -2.394618
     31          6           0       -2.887550    1.490505   -3.734218
     32          6           0       -2.343093    3.253564   -2.145943
     33          1           0       -2.293802    3.645471   -1.132646
     34          7           0       -3.415799    0.216149   -3.700547
     35          1           0       -3.533589   -0.388081   -4.499548
     36          6           0       -1.972667    3.538055   -4.538964
     37          1           0       -1.640517    4.171452   -5.356714
     38          6           0       -2.457778    2.266006   -4.816172
     39          1           0       -2.505447    1.890479   -5.834550
     40          6           0       -1.915644    4.027745   -3.216778
     41          1           0       -1.536907    5.030001   -3.037512
     42          7           0       -0.335200    0.582468   -0.635441
     43          1           0       -0.791666   -0.004086   -1.333481
     44          6           0        0.866848    1.239068   -1.126805
     45          1           0        0.789598    2.316487   -0.947486
     46          6           0        0.921773    0.953997   -2.634551
     47          6           0        2.166364    0.748802   -0.400746
     48          1           0        2.047365    1.041788    0.647294
     49          8           0        0.238807    0.063645   -3.139040
     50          6           0        2.392328   -0.758338   -0.492065
     51          1           0        1.546851   -1.312685   -0.073006
     52          1           0        3.292329   -1.027127    0.069895
     53          1           0        2.526243   -1.081893   -1.530635
     54          8           0        3.282437    1.489233   -0.888015
     55          1           0        3.683712    0.989812   -1.623736
     56          7           0        1.790522    1.737302   -3.324029
     57          1           0        2.415036    2.303019   -2.759241
     58          6           0        2.204037    1.402106   -4.675913
     59          1           0        1.358907    0.901812   -5.153223
     60          6           0        3.385028    0.429638   -4.726862
     61          6           0        2.556640    2.667176   -5.499651
     62          1           0        1.654936    3.288231   -5.502055
     63          1           0        2.716157    2.341285   -6.533739
     64          8           0        3.729461   -0.104264   -5.761467
     65          6           0        3.768307    3.506241   -5.005348
     66          1           0        3.465205    4.558631   -4.945308
     67          1           0        4.068507    3.224145   -3.988606
     68          6           0        5.027502    3.464439   -5.901334
     69          1           0        4.757400    3.710826   -6.934047
     70          1           0        5.715141    4.253565   -5.578057
     71          7           0        5.752262    2.191118   -5.955448
     72          1           0        5.326489    1.497321   -6.558293
     73          7           0        6.777941    2.494746   -3.868962
     74          1           0        7.421022    2.051852   -3.223121
     75          1           0        7.097452    3.405950   -4.172660
     76          7           0        6.572921    0.343155   -4.685496
     77          1           0        6.203281   -0.187132   -5.476370
     78          6           0        6.384046    1.618311   -4.867222
     79          8           0        4.055985    0.317944   -3.562545
     80          1           0        2.199398    0.401103    6.186797
     81          1           0        5.001015    0.031713   -3.777008
 ---------------------------------------------------------------------

 SCF Done:  E(RB3LYP) =  -2053.92751132     A.U. after    1 cycles

 Alpha  occ. eigenvalues --  -19.29624 -19.27382 -19.25775 -19.24316 -19.21946
 Alpha  occ. eigenvalues --  -19.21536 -19.20707 -19.19851 -14.60481 -14.49839
 Alpha  occ. eigenvalues --  -14.45264 -14.45207 -14.43520 -14.41791 -14.41056
 Alpha  occ. eigenvalues --  -14.34735 -10.44123 -10.42787 -10.41601 -10.38876
 Alpha  occ. eigenvalues --  -10.38873 -10.36708 -10.35230 -10.34660 -10.34615
 Alpha  occ. eigenvalues --  -10.32758 -10.31570 -10.31076 -10.30998 -10.29709
 Alpha  occ. eigenvalues --  -10.29653 -10.29304 -10.28806 -10.26856 -10.26177
 Alpha  occ. eigenvalues --  -10.26176 -10.25628 -10.25552 -10.25478 -10.25141
 Alpha  occ. eigenvalues --  -10.24836 -10.24833  -1.20760  -1.19801  -1.16681
 Alpha  occ. eigenvalues --   -1.14404  -1.13688  -1.11945  -1.11688  -1.09027
 Alpha  occ. eigenvalues --   -1.07989  -1.06456  -1.05204  -1.04457  -1.01817
 Alpha  occ. eigenvalues --   -1.00473  -0.95442  -0.95239  -0.90881  -0.90845
 Alpha  occ. eigenvalues --   -0.90039  -0.87540  -0.87119  -0.85390  -0.83877
 Alpha  occ. eigenvalues --   -0.81372  -0.80423  -0.80018  -0.79308  -0.78309
 Alpha  occ. eigenvalues --   -0.76429  -0.74504  -0.74175  -0.73472  -0.71969
 Alpha  occ. eigenvalues --   -0.70241  -0.69741  -0.69617  -0.69220  -0.68490
 Alpha  occ. eigenvalues --   -0.66711  -0.66509  -0.66241  -0.65302  -0.64783
 Alpha  occ. eigenvalues --   -0.64204  -0.63699  -0.62231  -0.61687  -0.61185
 Alpha  occ. eigenvalues --   -0.60802  -0.59616  -0.59026  -0.58472  -0.58152
 Alpha  occ. eigenvalues --   -0.57932  -0.56857  -0.56277  -0.55980  -0.55330
 Alpha  occ. eigenvalues --   -0.55240  -0.54941  -0.54615  -0.54005  -0.53728
 Alpha  occ. eigenvalues --   -0.53611  -0.53066  -0.52705  -0.52462  -0.52033
 Alpha  occ. eigenvalues --   -0.51794  -0.51306  -0.51145  -0.51072  -0.50654
 Alpha  occ. eigenvalues --   -0.50493  -0.49856  -0.49747  -0.48976  -0.48636
 Alpha  occ. eigenvalues --   -0.48434  -0.48161  -0.48048  -0.47981  -0.47122
 Alpha  occ. eigenvalues --   -0.46940  -0.46619  -0.46383  -0.45419  -0.45112
 Alpha  occ. eigenvalues --   -0.44977  -0.44224  -0.43086  -0.42418  -0.42289
 Alpha  occ. eigenvalues --   -0.42086  -0.41865  -0.41714  -0.40962  -0.40652
 Alpha  occ. eigenvalues --   -0.40153  -0.39849  -0.39574  -0.38430  -0.38068
 Alpha  occ. eigenvalues --   -0.37412  -0.36133  -0.36061  -0.34417  -0.34059
 Alpha  occ. eigenvalues --   -0.33420  -0.32659  -0.32633  -0.32078  -0.29134
 Alpha  occ. eigenvalues --   -0.28749  -0.27588
 Alpha virt. eigenvalues --   -0.12765  -0.11590  -0.09292  -0.08319  -0.07710
 Alpha virt. eigenvalues --   -0.06957  -0.06896  -0.05689  -0.05145  -0.04151
 Alpha virt. eigenvalues --   -0.02505  -0.02298  -0.01907  -0.01114  -0.00872

 Mulliken charges:
               1
     1  N   -0.759794
     2  H    0.417654
     3  H    0.436092
     4  H    0.416711
     5  C   -0.113772
     6  H    0.214213
     7  C    0.649616
     8  C   -0.291366
     9  H    0.194911
    10  H    0.196308
    11  O   -0.543590
    12  C   -0.391526
    13  H    0.198619
    14  H    0.215840
    15  C    0.594976
    16  O   -0.447699
    17  O   -0.551142
    18  N   -0.605086
    19  H    0.378815
    20  C   -0.066722
    21  H    0.191180
    22  C    0.633260
    23  C   -0.348029
    24  H    0.164537
    25  H    0.173582
    26  O   -0.559735
    27  C    0.028403
    28  C    0.004599
    29  H    0.160806
    30  C    0.088330
    31  C    0.330974
    32  C   -0.218984
    33  H    0.126925
    34  N   -0.681905
    35  H    0.341357
    36  C   -0.154604
    37  H    0.135045
    38  C   -0.154414
    39  H    0.138211
    40  C   -0.140423
    41  H    0.132261
    42  N   -0.615751
    43  H    0.374551
    44  C   -0.057550
    45  H    0.189912
    46  C    0.615867
    47  C    0.138493
    48  H    0.163262
    49  O   -0.541084
    50  C   -0.491348
    51  H    0.148246
    52  H    0.171345
    53  H    0.173158
    54  O   -0.656472
    55  H    0.432022
    56  N   -0.603913
    57  H    0.354963
    58  C   -0.069743
    59  H    0.208871
    60  C    0.625898
    61  C   -0.287024
    62  H    0.168491
    63  H    0.167917
    64  O   -0.481326
    65  C   -0.293981
    66  H    0.155170
    67  H    0.167226
    68  C   -0.155264
    69  H    0.167965
    70  H    0.153407
    71  N   -0.580190
    72  H    0.345992
    73  N   -0.734194
    74  H    0.350648
    75  H    0.336189
    76  N   -0.715139
    77  H    0.303401
    78  C    0.584161
    79  O   -0.620580
    80  H    0.430944
    81  H    0.441025
 Sum of Mulliken charges =   1.00000

 Dipole moment (field-independent basis, Debye):
    X=            -10.9150    Y=              3.4417    Z=             10.6058  Tot=             15.6034
 Quadrupole moment (field-independent basis, Debye-Ang):
   XX=           -151.8537   YY=           -222.6477   ZZ=           -108.7297
   XY=             38.4487   XZ=            -77.4750   YZ=            -33.2420

 Normal termination of Gaussian 16 at Thu May 26 18:08:07 2022.
