 Gaussian 16, Revision C.01,
 Gaussian 16:  ES64L-G16RevC.01  3-Jul-2019

 -------------------------------------------------------------------
 # B3LYP/6-31G* guess=read geom=check nosymm integral(ultrafinegrid)
 -------------------------------------------------------------------

 -----------------------------------------------------
 Candidate Structure: Conf:34 Charge calc in gas phase
 -----------------------------------------------------
 Structure from the checkpoint file:  "conf-34.chk"
 Charge =  1 Multiplicity = 1

                          Input orientation:
 ---------------------------------------------------------------------
 Center     Atomic      Atomic             Coordinates (Angstroms)
 Number     Number       Type             X           Y           Z
 ---------------------------------------------------------------------
      1          7           0       -5.437719    2.483891    3.156947
      2          1           0       -5.664170    1.488601    2.897116
      3          1           0       -5.010252    2.460441    4.088304
      4          1           0       -6.244267    3.122418    3.175706
      5          6           0       -4.454063    2.896469    2.086494
      6          1           0       -5.072874    3.276447    1.267742
      7          6           0       -3.857373    1.537735    1.618984
      8          6           0       -3.480377    3.978785    2.564399
      9          1           0       -2.731841    3.543548    3.237432
     10          1           0       -2.937674    4.342492    1.685507
     11          8           0       -4.480749    0.518555    1.939223
     12          6           0       -4.135537    5.190105    3.275426
     13          1           0       -3.374168    5.959317    3.420872
     14          1           0       -4.506878    4.904362    4.266387
     15          6           0       -5.271833    5.817397    2.489525
     16          8           0       -5.204640    6.778691    1.773338
     17          8           0       -6.446642    5.116618    2.670373
     18          7           0       -2.755234    1.593336    0.877849
     19          1           0       -2.186510    2.436543    0.825257
     20          6           0       -2.073027    0.428252    0.322357
     21          1           0       -2.352842   -0.444991    0.917906
     22          6           0       -0.570242    0.744452    0.461653
     23          6           0       -2.441235    0.196305   -1.176576
     24          1           0       -1.900885   -0.701015   -1.508635
     25          1           0       -2.047783    1.033554   -1.765579
     26          8           0       -0.202516    1.893677    0.699310
     27          6           0       -3.909438    0.059958   -1.445802
     28          6           0       -4.674633    0.982548   -2.120446
     29          1           0       -4.359483    1.905622   -2.590887
     30          6           0       -4.788563   -1.032337   -1.097056
     31          6           0       -6.079113   -0.700482   -1.592572
     32          6           0       -4.616260   -2.259883   -0.433455
     33          1           0       -3.642210   -2.551969   -0.048338
     34          7           0       -5.981778    0.542732   -2.192740
     35          1           0       -6.702527    0.971953   -2.752962
     36          6           0       -6.975255   -2.757393   -0.787174
     37          1           0       -7.807209   -3.444463   -0.662251
     38          6           0       -7.180069   -1.550201   -1.445324
     39          1           0       -8.157619   -1.283278   -1.838505
     40          6           0       -5.705317   -3.109046   -0.286101
     41          1           0       -5.579234   -4.062666    0.218489
     42          7           0        0.268541   -0.312901    0.294394
     43          1           0       -0.104776   -1.138639   -0.169201
     44          6           0        1.700695   -0.135908    0.034867
     45          1           0        1.929759    0.923342    0.175318
     46          6           0        1.930985   -0.588940   -1.417581
     47          6           0        2.523924   -0.970274    1.060900
     48          1           0        2.324904   -2.035751    0.855300
     49          8           0        1.203021   -1.448308   -1.915746
     50          6           0        4.022685   -0.708070    0.987646
     51          1           0        4.447633   -0.994738    0.021825
     52          1           0        4.524804   -1.285460    1.768699
     53          1           0        4.233184    0.352229    1.169781
     54          8           0        2.114098   -0.632490    2.374965
     55          1           0        1.155997   -0.783457    2.420859
     56          7           0        2.944996    0.014988   -2.083636
     57          1           0        3.595053    0.607312   -1.579702
     58          6           0        3.363474   -0.400458   -3.414618
     59          1           0        2.945969   -1.395593   -3.596393
     60          6           0        4.885755   -0.488232   -3.414880
     61          6           0        2.876174    0.562447   -4.527039
     62          1           0        3.236992    0.175285   -5.487224
     63          1           0        3.351128    1.542313   -4.378354
     64          8           0        5.596280   -0.058567   -2.531076
     65          6           0        1.352575    0.724687   -4.546939
     66          1           0        0.874804   -0.255157   -4.676813
     67          1           0        1.015118    1.117068   -3.581543
     68          6           0        0.872864    1.683142   -5.647036
     69          1           0        1.382896    2.646391   -5.551320
     70          1           0        1.126766    1.295268   -6.640009
     71          7           0       -0.577804    1.912496   -5.632293
     72          1           0       -1.110140    1.103489   -5.931530
     73          7           0       -0.478193    3.677813   -4.103112
     74          1           0       -1.046384    4.233729   -3.474629
     75          1           0       -0.041017    4.248323   -4.818867
     76          7           0       -2.351998    2.315354   -4.071060
     77          1           0       -2.701784    1.422073   -4.423047
     78          6           0       -1.203397    2.592471   -4.590589
     79          8           0        5.350867   -1.070464   -4.533884
     80          1           0       -7.137685    5.581846    2.157960
     81          1           0        6.326036   -1.066823   -4.477284
 ---------------------------------------------------------------------

 SCF Done:  E(RB3LYP) =  -2053.92176929     A.U. after    3 cycles

 Alpha  occ. eigenvalues --  -19.33671 -19.27905 -19.27349 -19.25765 -19.22425
 Alpha  occ. eigenvalues --  -19.22251 -19.21384 -19.20359 -14.59543 -14.48781
 Alpha  occ. eigenvalues --  -14.45683 -14.44897 -14.44727 -14.42026 -14.41183
 Alpha  occ. eigenvalues --  -14.35770 -10.45529 -10.43009 -10.40793 -10.40390
 Alpha  occ. eigenvalues --  -10.39150 -10.37496 -10.35698 -10.35229 -10.34555
 Alpha  occ. eigenvalues --  -10.33926 -10.32089 -10.31716 -10.31494 -10.29445
 Alpha  occ. eigenvalues --  -10.28638 -10.28580 -10.28071 -10.27166 -10.25761
 Alpha  occ. eigenvalues --  -10.25438 -10.25416 -10.25192 -10.25130 -10.24825
 Alpha  occ. eigenvalues --  -10.24434 -10.24344  -1.23699  -1.18930  -1.18507
 Alpha  occ. eigenvalues --   -1.15122  -1.14270  -1.13436  -1.12259  -1.10012
 Alpha  occ. eigenvalues --   -1.09268  -1.05510  -1.04662  -1.04538  -1.01952
 Alpha  occ. eigenvalues --   -1.01207  -0.95707  -0.95623  -0.91276  -0.90519
 Alpha  occ. eigenvalues --   -0.89888  -0.88157  -0.87552  -0.85596  -0.83755
 Alpha  occ. eigenvalues --   -0.81926  -0.80308  -0.80024  -0.79288  -0.78159
 Alpha  occ. eigenvalues --   -0.75554  -0.74727  -0.74579  -0.73754  -0.72138
 Alpha  occ. eigenvalues --   -0.71001  -0.70041  -0.68731  -0.68265  -0.67982
 Alpha  occ. eigenvalues --   -0.67122  -0.66925  -0.66592  -0.65975  -0.65681
 Alpha  occ. eigenvalues --   -0.64813  -0.62767  -0.62000  -0.61728  -0.61392
 Alpha  occ. eigenvalues --   -0.61251  -0.60534  -0.59718  -0.59424  -0.58778
 Alpha  occ. eigenvalues --   -0.58105  -0.57588  -0.57315  -0.56544  -0.56064
 Alpha  occ. eigenvalues --   -0.55931  -0.55345  -0.55244  -0.54760  -0.54228
 Alpha  occ. eigenvalues --   -0.54003  -0.53851  -0.53200  -0.52922  -0.52527
 Alpha  occ. eigenvalues --   -0.52158  -0.51687  -0.51266  -0.51190  -0.50739
 Alpha  occ. eigenvalues --   -0.50216  -0.50095  -0.49677  -0.49462  -0.49367
 Alpha  occ. eigenvalues --   -0.48866  -0.48554  -0.47743  -0.47527  -0.47098
 Alpha  occ. eigenvalues --   -0.46976  -0.46294  -0.45912  -0.45576  -0.45431
 Alpha  occ. eigenvalues --   -0.45156  -0.44649  -0.44493  -0.43550  -0.43112
 Alpha  occ. eigenvalues --   -0.42769  -0.41800  -0.41253  -0.40665  -0.40456
 Alpha  occ. eigenvalues --   -0.40305  -0.40049  -0.39939  -0.39759  -0.38547
 Alpha  occ. eigenvalues --   -0.36591  -0.36395  -0.35993  -0.34997  -0.34354
 Alpha  occ. eigenvalues --   -0.33864  -0.33793  -0.32968  -0.32655  -0.29599
 Alpha  occ. eigenvalues --   -0.28859  -0.27190
 Alpha virt. eigenvalues --   -0.13245  -0.11679  -0.09719  -0.08311  -0.07488
 Alpha virt. eigenvalues --   -0.07316  -0.06467  -0.06065  -0.03984  -0.03480
 Alpha virt. eigenvalues --   -0.02669  -0.02303  -0.02226  -0.01620  -0.00681

 Mulliken charges:
               1
     1  N   -0.756684
     2  H    0.434095
     3  H    0.406318
     4  H    0.428533
     5  C   -0.123998
     6  H    0.235816
     7  C    0.665810
     8  C   -0.322820
     9  H    0.199397
    10  H    0.213512
    11  O   -0.531843
    12  C   -0.362465
    13  H    0.229599
    14  H    0.174618
    15  C    0.580389
    16  O   -0.398853
    17  O   -0.606864
    18  N   -0.598118
    19  H    0.369196
    20  C   -0.083107
    21  H    0.197681
    22  C    0.623689
    23  C   -0.388943
    24  H    0.171389
    25  H    0.191416
    26  O   -0.524985
    27  C    0.053506
    28  C   -0.034435
    29  H    0.194256
    30  C    0.102983
    31  C    0.299904
    32  C   -0.203053
    33  H    0.113074
    34  N   -0.690335
    35  H    0.333471
    36  C   -0.151561
    37  H    0.137316
    38  C   -0.166494
    39  H    0.130768
    40  C   -0.140017
    41  H    0.132855
    42  N   -0.627403
    43  H    0.359943
    44  C   -0.097786
    45  H    0.191417
    46  C    0.628808
    47  C    0.144374
    48  H    0.131236
    49  O   -0.539613
    50  C   -0.474422
    51  H    0.163448
    52  H    0.182234
    53  H    0.159387
    54  O   -0.613789
    55  H    0.395681
    56  N   -0.597578
    57  H    0.356735
    58  C   -0.057108
    59  H    0.210407
    60  C    0.589697
    61  C   -0.272807
    62  H    0.171365
    63  H    0.148896
    64  O   -0.462762
    65  C   -0.265818
    66  H    0.151506
    67  H    0.164482
    68  C   -0.148034
    69  H    0.155055
    70  H    0.160739
    71  N   -0.579980
    72  H    0.318813
    73  N   -0.733529
    74  H    0.333729
    75  H    0.332744
    76  N   -0.675422
    77  H    0.273314
    78  C    0.577632
    79  O   -0.556546
    80  H    0.438396
    81  H    0.427543
 Sum of Mulliken charges =   1.00000

 Dipole moment (field-independent basis, Debye):
    X=            -16.1822    Y=             11.8771    Z=              2.8837  Tot=             20.2792
 Quadrupole moment (field-independent basis, Debye-Ang):
   XX=            -98.4187   YY=           -199.6800   ZZ=           -164.4794
   XY=            -65.6683   XZ=            -73.4031   YZ=             27.3004

 Normal termination of Gaussian 16 at Thu May 26 18:08:37 2022.
