 Gaussian 16, Revision C.01,
 Gaussian 16:  ES64L-G16RevC.01  3-Jul-2019

 -------------------------------------------------------------------
 # B3LYP/6-31G* guess=read geom=check nosymm integral(ultrafinegrid)
 -------------------------------------------------------------------

 ------------------------------------------------------
 Candidate Structure: Conf:684 Charge calc in gas phase
 ------------------------------------------------------
 Structure from the checkpoint file:  "conf-684.chk"
 Charge =  1 Multiplicity = 1

                          Input orientation:
 ---------------------------------------------------------------------
 Center     Atomic      Atomic             Coordinates (Angstroms)
 Number     Number       Type             X           Y           Z
 ---------------------------------------------------------------------
      1          7           0       -4.265653   -2.661505   -2.545725
      2          1           0       -4.680822   -3.581842   -2.383232
      3          1           0       -4.815024   -1.889933   -2.052761
      4          1           0       -4.264799   -2.475068   -3.553480
      5          6           0       -2.886625   -2.491248   -1.931441
      6          1           0       -2.795532   -3.272145   -1.169756
      7          6           0       -3.020799   -1.123816   -1.192262
      8          6           0       -1.754392   -2.626852   -2.950799
      9          1           0       -0.812982   -2.491607   -2.409336
     10          1           0       -1.722215   -3.654692   -3.326749
     11          8           0       -4.164336   -0.648044   -1.095443
     12          6           0       -1.809546   -1.628884   -4.125142
     13          1           0       -2.122624   -0.629687   -3.807571
     14          1           0       -2.508528   -1.962351   -4.906310
     15          6           0       -0.441053   -1.452996   -4.778791
     16          8           0       -0.035172   -0.386551   -5.187569
     17          8           0        0.240270   -2.601904   -4.811283
     18          7           0       -1.916584   -0.594464   -0.674886
     19          1           0       -1.000398   -0.983662   -0.908692
     20          6           0       -1.926380    0.699517    0.061007
     21          1           0       -2.561845    1.394588   -0.490429
     22          6           0       -0.484996    1.220071   -0.066446
     23          6           0       -2.460707    0.549055    1.504685
     24          1           0       -1.782350   -0.077528    2.096635
     25          1           0       -3.413064    0.008388    1.447438
     26          8           0       -0.177693    2.094941   -0.858521
     27          6           0       -2.663443    1.881671    2.161376
     28          6           0       -1.862313    2.476490    3.106456
     29          1           0       -0.958929    2.110352    3.575416
     30          6           0       -3.739566    2.805228    1.892313
     31          6           0       -3.527070    3.942563    2.716559
     32          6           0       -4.861885    2.777543    1.044637
     33          1           0       -5.051995    1.918875    0.404560
     34          7           0       -2.374751    3.710254    3.442923
     35          1           0       -1.978313    4.337454    4.125825
     36          6           0       -5.493980    4.983927    1.866517
     37          1           0       -6.188282    5.818696    1.840250
     38          6           0       -4.395208    5.039170    2.715311
     39          1           0       -4.219412    5.901575    3.352429
     40          6           0       -5.725933    3.864658    1.040287
     41          1           0       -6.597161    3.857012    0.391434
     42          7           0        0.446443    0.525184    0.664725
     43          1           0        0.159251   -0.306647    1.170414
     44          6           0        1.806791    0.443229    0.167028
     45          1           0        2.279983    1.429435    0.195545
     46          6           0        1.786911   -0.101516   -1.273182
     47          6           0        2.597648   -0.560683    1.057552
     48          1           0        3.551713   -0.772677    0.552195
     49          8           0        1.019396   -1.034782   -1.583755
     50          6           0        2.874984   -0.021955    2.454415
     51          1           0        3.513127    0.866078    2.406071
     52          1           0        3.386031   -0.787533    3.044615
     53          1           0        1.945193    0.244971    2.965767
     54          8           0        1.838432   -1.761133    1.200960
     55          1           0        1.679958   -2.112497    0.306540
     56          7           0        2.689918    0.406105   -2.126082
     57          1           0        3.244437    1.201612   -1.835424
     58          6           0        2.791208   -0.020546   -3.520095
     59          1           0        1.797078    0.001666   -3.971350
     60          6           0        3.296046   -1.453575   -3.643366
     61          6           0        3.719147    0.946564   -4.288263
     62          1           0        4.742661    0.863797   -3.902116
     63          1           0        3.373909    1.961425   -4.059589
     64          8           0        2.926209   -2.241768   -4.497289
     65          6           0        3.698093    0.738426   -5.809288
     66          1           0        4.032649   -0.275468   -6.064874
     67          1           0        2.663346    0.818004   -6.169729
     68          6           0        4.589513    1.739786   -6.569220
     69          1           0        5.629661    1.617901   -6.257597
     70          1           0        4.548830    1.507752   -7.639471
     71          7           0        4.223238    3.147205   -6.400727
     72          1           0        3.287556    3.365909   -6.723545
     73          7           0        5.881419    3.626389   -4.815953
     74          1           0        6.135658    4.307887   -4.108037
     75          1           0        6.580051    3.590533   -5.552415
     76          7           0        3.878678    4.779462   -4.670913
     77          1           0        2.920369    4.796733   -5.026260
     78          6           0        4.589295    3.901135   -5.282024
     79          8           0        4.259723   -1.755777   -2.760887
     80          1           0        1.188697   -2.415398   -5.029583
     81          1           0        4.555058   -2.666330   -2.957631
 ---------------------------------------------------------------------

 SCF Done:  E(RB3LYP) =  -2053.91949969     A.U. after    3 cycles

 Alpha  occ. eigenvalues --  -19.30536 -19.28084 -19.27308 -19.25331 -19.24606
 Alpha  occ. eigenvalues --  -19.24057 -19.23366 -19.21474 -14.60283 -14.49914
 Alpha  occ. eigenvalues --  -14.47835 -14.45542 -14.44488 -14.41184 -14.39882
 Alpha  occ. eigenvalues --  -14.34257 -10.43928 -10.43118 -10.42128 -10.41307
 Alpha  occ. eigenvalues --  -10.40323 -10.38518 -10.34462 -10.34020 -10.33838
 Alpha  occ. eigenvalues --  -10.33803 -10.33788 -10.33649 -10.32692 -10.29256
 Alpha  occ. eigenvalues --  -10.28884 -10.28729 -10.28334 -10.28020 -10.26723
 Alpha  occ. eigenvalues --  -10.26538 -10.25340 -10.24741 -10.24679 -10.24578
 Alpha  occ. eigenvalues --  -10.24184 -10.23900  -1.21694  -1.19650  -1.19527
 Alpha  occ. eigenvalues --   -1.15505  -1.14136  -1.13330  -1.12486  -1.12002
 Alpha  occ. eigenvalues --   -1.10808  -1.06306  -1.04368  -1.04130  -1.03346
 Alpha  occ. eigenvalues --   -1.02174  -0.94874  -0.94741  -0.90519  -0.90145
 Alpha  occ. eigenvalues --   -0.89675  -0.89190  -0.87317  -0.86816  -0.83821
 Alpha  occ. eigenvalues --   -0.83008  -0.80105  -0.79514  -0.78978  -0.78188
 Alpha  occ. eigenvalues --   -0.76244  -0.76065  -0.74942  -0.72874  -0.72399
 Alpha  occ. eigenvalues --   -0.71074  -0.70554  -0.70150  -0.69714  -0.69108
 Alpha  occ. eigenvalues --   -0.68367  -0.66959  -0.66334  -0.66031  -0.65571
 Alpha  occ. eigenvalues --   -0.63687  -0.63399  -0.62543  -0.62243  -0.61015
 Alpha  occ. eigenvalues --   -0.60692  -0.60344  -0.60192  -0.60180  -0.59740
 Alpha  occ. eigenvalues --   -0.59221  -0.57988  -0.57520  -0.56794  -0.56607
 Alpha  occ. eigenvalues --   -0.56115  -0.55229  -0.54934  -0.54774  -0.54015
 Alpha  occ. eigenvalues --   -0.53889  -0.53513  -0.53276  -0.52964  -0.52921
 Alpha  occ. eigenvalues --   -0.52093  -0.51966  -0.51473  -0.51267  -0.50435
 Alpha  occ. eigenvalues --   -0.50026  -0.49868  -0.49604  -0.49471  -0.49132
 Alpha  occ. eigenvalues --   -0.49062  -0.48956  -0.48322  -0.47912  -0.47466
 Alpha  occ. eigenvalues --   -0.47403  -0.47261  -0.46643  -0.46400  -0.45903
 Alpha  occ. eigenvalues --   -0.45646  -0.45216  -0.44443  -0.44387  -0.43324
 Alpha  occ. eigenvalues --   -0.42937  -0.42379  -0.41958  -0.41736  -0.41375
 Alpha  occ. eigenvalues --   -0.40764  -0.39879  -0.39567  -0.39477  -0.39210
 Alpha  occ. eigenvalues --   -0.38048  -0.37721  -0.37269  -0.36472  -0.35568
 Alpha  occ. eigenvalues --   -0.34675  -0.33421  -0.32375  -0.31564  -0.28404
 Alpha  occ. eigenvalues --   -0.28323  -0.26722
 Alpha virt. eigenvalues --   -0.13367  -0.11320  -0.10479  -0.09791  -0.08845
 Alpha virt. eigenvalues --   -0.08073  -0.07204  -0.06354  -0.04225  -0.03333
 Alpha virt. eigenvalues --   -0.03180  -0.02243  -0.01631  -0.01021  -0.00882

 Mulliken charges:
               1
     1  N   -0.759938
     2  H    0.416421
     3  H    0.437483
     4  H    0.414668
     5  C   -0.122264
     6  H    0.229242
     7  C    0.655423
     8  C   -0.315290
     9  H    0.228150
    10  H    0.193885
    11  O   -0.540785
    12  C   -0.389191
    13  H    0.202293
    14  H    0.175536
    15  C    0.603672
    16  O   -0.457034
    17  O   -0.582154
    18  N   -0.649001
    19  H    0.390033
    20  C   -0.041191
    21  H    0.217080
    22  C    0.582011
    23  C   -0.371396
    24  H    0.147046
    25  H    0.175354
    26  O   -0.484953
    27  C    0.058127
    28  C    0.010014
    29  H    0.154111
    30  C    0.086440
    31  C    0.315821
    32  C   -0.219645
    33  H    0.127894
    34  N   -0.688017
    35  H    0.337803
    36  C   -0.148546
    37  H    0.138485
    38  C   -0.157690
    39  H    0.136729
    40  C   -0.137485
    41  H    0.128753
    42  N   -0.598153
    43  H    0.343749
    44  C   -0.062113
    45  H    0.181062
    46  C    0.661646
    47  C    0.095346
    48  H    0.152452
    49  O   -0.599459
    50  C   -0.448076
    51  H    0.160935
    52  H    0.183806
    53  H    0.162510
    54  O   -0.629171
    55  H    0.402168
    56  N   -0.608497
    57  H    0.361963
    58  C   -0.035115
    59  H    0.230264
    60  C    0.626770
    61  C   -0.328461
    62  H    0.173970
    63  H    0.187130
    64  O   -0.501190
    65  C   -0.283416
    66  H    0.153842
    67  H    0.160957
    68  C   -0.150337
    69  H    0.164834
    70  H    0.163142
    71  N   -0.579608
    72  H    0.315254
    73  N   -0.742296
    74  H    0.340860
    75  H    0.328574
    76  N   -0.632335
    77  H    0.267027
    78  C    0.546039
    79  O   -0.550344
    80  H    0.457502
    81  H    0.428874
 Sum of Mulliken charges =   1.00000

 Dipole moment (field-independent basis, Debye):
    X=             -4.2730    Y=             -9.4113    Z=             -8.9863  Tot=             13.6962
 Quadrupole moment (field-independent basis, Debye-Ang):
   XX=           -146.0348   YY=           -208.3431   ZZ=           -177.9292
   XY=             34.5888   XZ=              7.5312   YZ=             41.3992

 Normal termination of Gaussian 16 at Thu May 26 18:08:39 2022.
