 Gaussian 16, Revision C.01,
 Gaussian 16:  ES64L-G16RevC.01  3-Jul-2019

 -------------------------------------------------------------------
 # B3LYP/6-31G* guess=read geom=check nosymm integral(ultrafinegrid)
 -------------------------------------------------------------------

 ------------------------------------------------------
 Candidate Structure: Conf:102 Charge calc in gas phase
 ------------------------------------------------------
 Structure from the checkpoint file:  "conf-102.chk"
 Charge =  1 Multiplicity = 1

                          Input orientation:
 ---------------------------------------------------------------------
 Center     Atomic      Atomic             Coordinates (Angstroms)
 Number     Number       Type             X           Y           Z
 ---------------------------------------------------------------------
      1          7           0       -5.743113    1.285230    3.882299
      2          1           0       -6.392873    2.056056    3.701656
      3          1           0       -5.809631    0.584521    3.078528
      4          1           0       -5.987951    0.853443    4.777828
      5          6           0       -4.282959    1.698860    3.793935
      6          1           0       -4.232786    2.787071    3.880824
      7          6           0       -3.903179    1.207571    2.365384
      8          6           0       -3.494905    1.009859    4.924662
      9          1           0       -4.005117    1.233166    5.871656
     10          1           0       -3.528531   -0.075877    4.782941
     11          8           0       -4.663979    0.380535    1.834095
     12          6           0       -2.033006    1.478128    5.037053
     13          1           0       -1.966950    2.564863    5.146041
     14          1           0       -1.455197    1.201965    4.146256
     15          6           0       -1.308148    0.880118    6.233736
     16          8           0       -0.516754    1.472402    6.922761
     17          8           0       -1.640198   -0.421652    6.418381
     18          7           0       -2.794345    1.699653    1.835700
     19          1           0       -2.149039    2.297982    2.362212
     20          6           0       -2.169639    1.214349    0.601307
     21          1           0       -2.344894    0.136007    0.532297
     22          6           0       -0.657731    1.475690    0.845311
     23          6           0       -2.776165    1.920205   -0.638387
     24          1           0       -2.568792    2.993073   -0.552160
     25          1           0       -3.865355    1.805586   -0.561214
     26          8           0       -0.316131    2.162183    1.816006
     27          6           0       -2.275813    1.418305   -1.965653
     28          6           0       -2.200155    0.112532   -2.402533
     29          1           0       -2.469367   -0.808297   -1.901094
     30          6           0       -1.829826    2.240905   -3.063502
     31          6           0       -1.488062    1.366661   -4.130229
     32          6           0       -1.706791    3.628745   -3.257749
     33          1           0       -1.976066    4.327590   -2.469586
     34          7           0       -1.732230    0.080992   -3.698363
     35          1           0       -1.516070   -0.757470   -4.215497
     36          6           0       -0.906807    3.210210   -5.522605
     37          1           0       -0.567401    3.609184   -6.474592
     38          6           0       -1.018237    1.835103   -5.362449
     39          1           0       -0.763098    1.151409   -6.167192
     40          6           0       -1.251040    4.099607   -4.481374
     41          1           0       -1.167899    5.169804   -4.648387
     42          7           0        0.181982    0.898989   -0.023265
     43          1           0       -0.173615    0.468353   -0.873450
     44          6           0        1.631882    0.930558    0.102928
     45          1           0        1.902735    1.795440    0.715437
     46          6           0        2.179562    1.013128   -1.332948
     47          6           0        2.148724   -0.363917    0.787934
     48          1           0        1.960856   -1.192775    0.086843
     49          8           0        1.607578    0.396825   -2.229231
     50          6           0        3.638194   -0.297807    1.123959
     51          1           0        4.262772   -0.170073    0.234804
     52          1           0        3.953028   -1.228193    1.612160
     53          1           0        3.835570    0.527194    1.818344
     54          8           0        1.360732   -0.529625    1.964114
     55          1           0        1.707380   -1.303816    2.434431
     56          7           0        3.288964    1.769829   -1.519842
     57          1           0        3.729458    2.206329   -0.721765
     58          6           0        3.970315    1.854530   -2.805876
     59          1           0        3.400770    1.216400   -3.486426
     60          6           0        5.391397    1.293560   -2.770020
     61          6           0        4.006130    3.292084   -3.368083
     62          1           0        4.553337    3.265139   -4.315264
     63          1           0        4.585705    3.935193   -2.689706
     64          8           0        6.052822    1.090739   -3.758544
     65          6           0        2.610497    3.884503   -3.584515
     66          1           0        1.991110    3.183965   -4.161662
     67          1           0        2.097604    4.013543   -2.623745
     68          6           0        2.640393    5.241672   -4.299132
     69          1           0        1.625245    5.673996   -4.269908
     70          1           0        3.304618    5.929236   -3.766246
     71          7           0        3.146600    5.111554   -5.657020
     72          1           0        2.699748    4.401126   -6.221388
     73          7           0        3.979909    7.309453   -5.683376
     74          1           0        4.408622    7.991307   -6.300829
     75          1           0        3.160034    7.696946   -5.226953
     76          7           0        4.164839    6.035881   -7.609557
     77          1           0        4.080263    5.079549   -7.960918
     78          6           0        3.750652    6.126884   -6.398011
     79          8           0        5.855690    1.088465   -1.510222
     80          1           0       -1.116929   -0.739993    7.179373
     81          1           0        6.775446    0.773875   -1.607302
 ---------------------------------------------------------------------

 SCF Done:  E(RB3LYP) =  -2053.90061922     A.U. after    1 cycles

 Alpha  occ. eigenvalues --  -19.29842 -19.27584 -19.27583 -19.23885 -19.22897
 Alpha  occ. eigenvalues --  -19.22039 -19.21212 -19.20476 -14.60874 -14.49887
 Alpha  occ. eigenvalues --  -14.45756 -14.45429 -14.45256 -14.39645 -14.37986
 Alpha  occ. eigenvalues --  -14.31726 -10.44306 -10.42519 -10.41893 -10.39489
 Alpha  occ. eigenvalues --  -10.39143 -10.37857 -10.35216 -10.34992 -10.32815
 Alpha  occ. eigenvalues --  -10.32533 -10.32368 -10.31863 -10.31569 -10.30221
 Alpha  occ. eigenvalues --  -10.29671 -10.29322 -10.27927 -10.26940 -10.26078
 Alpha  occ. eigenvalues --  -10.26065 -10.25973 -10.25972 -10.25951 -10.25639
 Alpha  occ. eigenvalues --  -10.25291 -10.25274  -1.20578  -1.20034  -1.18108
 Alpha  occ. eigenvalues --   -1.14722  -1.13956  -1.12504  -1.11689  -1.10420
 Alpha  occ. eigenvalues --   -1.09075  -1.06556  -1.05719  -1.02102  -1.01570
 Alpha  occ. eigenvalues --   -1.01438  -0.95509  -0.93108  -0.91322  -0.90471
 Alpha  occ. eigenvalues --   -0.88213  -0.87713  -0.87549  -0.85784  -0.84652
 Alpha  occ. eigenvalues --   -0.81261  -0.80888  -0.80206  -0.79620  -0.78837
 Alpha  occ. eigenvalues --   -0.76828  -0.74756  -0.73762  -0.73234  -0.71957
 Alpha  occ. eigenvalues --   -0.71331  -0.70309  -0.69759  -0.69300  -0.68409
 Alpha  occ. eigenvalues --   -0.67401  -0.66877  -0.66603  -0.65945  -0.64569
 Alpha  occ. eigenvalues --   -0.64517  -0.63987  -0.62535  -0.61610  -0.60862
 Alpha  occ. eigenvalues --   -0.59686  -0.59271  -0.58711  -0.58546  -0.58274
 Alpha  occ. eigenvalues --   -0.57615  -0.56994  -0.56322  -0.56055  -0.55863
 Alpha  occ. eigenvalues --   -0.55434  -0.55321  -0.55043  -0.54645  -0.54391
 Alpha  occ. eigenvalues --   -0.54157  -0.53334  -0.52982  -0.52529  -0.52120
 Alpha  occ. eigenvalues --   -0.51550  -0.51348  -0.50455  -0.50381  -0.50333
 Alpha  occ. eigenvalues --   -0.50180  -0.49744  -0.49634  -0.49355  -0.48843
 Alpha  occ. eigenvalues --   -0.48680  -0.48636  -0.48451  -0.47628  -0.47350
 Alpha  occ. eigenvalues --   -0.47202  -0.46975  -0.46804  -0.46202  -0.45549
 Alpha  occ. eigenvalues --   -0.44681  -0.44278  -0.42928  -0.42827  -0.42300
 Alpha  occ. eigenvalues --   -0.41875  -0.41837  -0.41713  -0.41337  -0.41137
 Alpha  occ. eigenvalues --   -0.40467  -0.39752  -0.39734  -0.39020  -0.37466
 Alpha  occ. eigenvalues --   -0.36742  -0.36576  -0.35949  -0.35060  -0.34828
 Alpha  occ. eigenvalues --   -0.33771  -0.32837  -0.30761  -0.29690  -0.29305
 Alpha  occ. eigenvalues --   -0.28061  -0.25920
 Alpha virt. eigenvalues --   -0.13152  -0.11979  -0.09065  -0.08862  -0.07810
 Alpha virt. eigenvalues --   -0.07333  -0.06637  -0.06408  -0.05355  -0.04748
 Alpha virt. eigenvalues --   -0.02636  -0.02282  -0.01594  -0.01343  -0.00950

 Mulliken charges:
               1
     1  N   -0.758024
     2  H    0.418278
     3  H    0.435425
     4  H    0.414303
     5  C   -0.111425
     6  H    0.216158
     7  C    0.647291
     8  C   -0.299570
     9  H    0.177917
    10  H    0.206683
    11  O   -0.543399
    12  C   -0.383384
    13  H    0.195019
    14  H    0.225864
    15  C    0.581253
    16  O   -0.425694
    17  O   -0.567041
    18  N   -0.603458
    19  H    0.380590
    20  C   -0.084577
    21  H    0.195742
    22  C    0.655695
    23  C   -0.333910
    24  H    0.163035
    25  H    0.178252
    26  O   -0.551506
    27  C    0.035485
    28  C   -0.016297
    29  H    0.159659
    30  C    0.087272
    31  C    0.328238
    32  C   -0.208663
    33  H    0.124723
    34  N   -0.679402
    35  H    0.342444
    36  C   -0.160307
    37  H    0.139906
    38  C   -0.154969
    39  H    0.141868
    40  C   -0.140013
    41  H    0.134931
    42  N   -0.615078
    43  H    0.378619
    44  C   -0.066751
    45  H    0.180183
    46  C    0.621243
    47  C    0.159901
    48  H    0.136432
    49  O   -0.531391
    50  C   -0.499206
    51  H    0.178218
    52  H    0.154670
    53  H    0.163251
    54  O   -0.631081
    55  H    0.399235
    56  N   -0.593731
    57  H    0.345280
    58  C   -0.075721
    59  H    0.217838
    60  C    0.594651
    61  C   -0.268604
    62  H    0.198588
    63  H    0.142377
    64  O   -0.439345
    65  C   -0.284716
    66  H    0.156220
    67  H    0.138949
    68  C   -0.129840
    69  H    0.132631
    70  H    0.171724
    71  N   -0.604700
    72  H    0.313407
    73  N   -0.743817
    74  H    0.341641
    75  H    0.315961
    76  N   -0.638036
    77  H    0.263049
    78  C    0.578017
    79  O   -0.577135
    80  H    0.428681
    81  H    0.423991
 Sum of Mulliken charges =   1.00000

 Dipole moment (field-independent basis, Debye):
    X=            -17.2071    Y=              3.9017    Z=             14.7004  Tot=             22.9654
 Quadrupole moment (field-independent basis, Debye-Ang):
   XX=           -133.7077   YY=           -217.8100   ZZ=           -193.8673
   XY=            -41.2959   XZ=            -53.5814   YZ=             22.3367

 Normal termination of Gaussian 16 at Thu May 26 18:08:03 2022.
