 Gaussian 16, Revision C.01,
 Gaussian 16:  ES64L-G16RevC.01  3-Jul-2019

 -------------------------------------------------------------------
 # B3LYP/6-31G* guess=read geom=check nosymm integral(ultrafinegrid)
 -------------------------------------------------------------------

 -----------------------------------------------------
 Candidate Structure: Conf:35 Charge calc in gas phase
 -----------------------------------------------------
 Structure from the checkpoint file:  "conf-35.chk"
 Charge =  1 Multiplicity = 1

                          Input orientation:
 ---------------------------------------------------------------------
 Center     Atomic      Atomic             Coordinates (Angstroms)
 Number     Number       Type             X           Y           Z
 ---------------------------------------------------------------------
      1          7           0       -3.822468    1.014119    4.854076
      2          1           0       -4.603749    0.364685    4.989519
      3          1           0       -2.945610    0.448748    4.677192
      4          1           0       -3.727189    1.596220    5.691949
      5          6           0       -3.932037    1.828225    3.576079
      6          1           0       -4.989367    1.918745    3.313387
      7          6           0       -3.130400    0.966937    2.570133
      8          6           0       -3.282204    3.200244    3.824303
      9          1           0       -3.831549    3.710854    4.624508
     10          1           0       -2.257657    3.045893    4.182991
     11          8           0       -2.270132    0.208928    3.040183
     12          6           0       -3.239207    4.104686    2.588602
     13          1           0       -4.227510    4.206958    2.120273
     14          1           0       -2.555634    3.702677    1.830948
     15          6           0       -2.762465    5.492308    2.980413
     16          8           0       -2.448301    5.822077    4.102007
     17          8           0       -2.733316    6.313718    1.914839
     18          7           0       -3.396901    1.128055    1.277131
     19          1           0       -4.183396    1.695136    0.974530
     20          6           0       -2.543553    0.584371    0.225322
     21          1           0       -2.548075   -0.507750    0.302631
     22          6           0       -1.109513    1.131521    0.411539
     23          6           0       -3.094171    1.031101   -1.159200
     24          1           0       -2.543100    0.467806   -1.921991
     25          1           0       -2.835729    2.087655   -1.300096
     26          8           0       -0.913573    2.242297    0.900180
     27          6           0       -4.574960    0.849927   -1.315185
     28          6           0       -5.498483    1.863616   -1.454504
     29          1           0       -5.340873    2.932183   -1.526163
     30          6           0       -5.317357   -0.389404   -1.352578
     31          6           0       -6.686709   -0.048175   -1.518596
     32          6           0       -4.961028   -1.748716   -1.278358
     33          1           0       -3.921213   -2.048086   -1.173073
     34          7           0       -6.765051    1.331949   -1.566035
     35          1           0       -7.598852    1.860316   -1.774908
     36          6           0       -7.310545   -2.346974   -1.526866
     37          1           0       -8.066121   -3.123703   -1.597887
     38          6           0       -7.694792   -1.014322   -1.605816
     39          1           0       -8.736526   -0.735877   -1.738607
     40          6           0       -5.957349   -2.711384   -1.366308
     41          1           0       -5.693423   -3.763748   -1.319684
     42          7           0       -0.137132    0.305008   -0.032989
     43          1           0       -0.374553   -0.494549   -0.620772
     44          6           0        1.246682    0.723057   -0.221284
     45          1           0        1.276001    1.814109   -0.324378
     46          6           0        1.707257    0.035966   -1.527525
     47          6           0        2.151932    0.295771    0.970367
     48          1           0        3.178912    0.592134    0.726659
     49          8           0        1.000226   -0.813346   -2.068137
     50          6           0        1.749272    0.942596    2.294778
     51          1           0        1.760202    2.035243    2.229202
     52          1           0        2.448296    0.625670    3.074649
     53          1           0        0.738482    0.637236    2.588673
     54          8           0        2.203560   -1.119728    1.064687
     55          1           0        1.328915   -1.423460    1.358928
     56          7           0        2.906315    0.439050   -2.009027
     57          1           0        3.460433    1.085203   -1.462561
     58          6           0        3.605417   -0.265266   -3.082385
     59          1           0        3.040289   -1.179915   -3.279631
     60          6           0        5.007727   -0.692639   -2.653756
     61          6           0        3.705076    0.566434   -4.381472
     62          1           0        4.372033    0.030719   -5.066775
     63          1           0        4.180252    1.529866   -4.159672
     64          8           0        5.668806   -1.512271   -3.242030
     65          6           0        2.350438    0.800158   -5.058060
     66          1           0        1.934276   -0.156756   -5.397638
     67          1           0        1.629792    1.205118   -4.333858
     68          6           0        2.446645    1.749200   -6.261300
     69          1           0        3.239163    1.408202   -6.933877
     70          1           0        1.498351    1.712893   -6.824304
     71          7           0        2.782804    3.102283   -5.838830
     72          1           0        2.164312    3.503616   -5.146227
     73          7           0        3.938736    3.582930   -7.829931
     74          1           0        4.390027    4.341732   -8.329684
     75          1           0        3.261456    3.105827   -8.415802
     76          7           0        3.695691    5.266926   -6.259306
     77          1           0        3.417826    5.432642   -5.289319
     78          6           0        3.445491    4.056526   -6.611408
     79          8           0        5.458590   -0.007049   -1.571647
     80          1           0       -2.410742    7.180938    2.227781
     81          1           0        6.367304   -0.321576   -1.401955
 ---------------------------------------------------------------------

 SCF Done:  E(RB3LYP) =  -2053.90615994     A.U. after    2 cycles

 Alpha  occ. eigenvalues --  -19.29459 -19.27698 -19.27222 -19.24086 -19.22340
 Alpha  occ. eigenvalues --  -19.22206 -19.20890 -19.20639 -14.61467 -14.50721
 Alpha  occ. eigenvalues --  -14.47317 -14.45836 -14.44750 -14.40010 -14.38224
 Alpha  occ. eigenvalues --  -14.32102 -10.44442 -10.42529 -10.41999 -10.39354
 Alpha  occ. eigenvalues --  -10.39220 -10.37771 -10.35442 -10.34492 -10.32570
 Alpha  occ. eigenvalues --  -10.32267 -10.32234 -10.32140 -10.31870 -10.31317
 Alpha  occ. eigenvalues --  -10.30842 -10.30801 -10.28396 -10.28054 -10.27494
 Alpha  occ. eigenvalues --  -10.27338 -10.27264 -10.26762 -10.26399 -10.25723
 Alpha  occ. eigenvalues --  -10.25438 -10.25375  -1.20533  -1.20244  -1.17782
 Alpha  occ. eigenvalues --   -1.15257  -1.14030  -1.12522  -1.11709  -1.10000
 Alpha  occ. eigenvalues --   -1.08781  -1.07425  -1.07079  -1.02300  -1.01793
 Alpha  occ. eigenvalues --   -1.01249  -0.95502  -0.93368  -0.92602  -0.91312
 Alpha  occ. eigenvalues --   -0.88421  -0.88046  -0.87497  -0.86164  -0.84696
 Alpha  occ. eigenvalues --   -0.82182  -0.81420  -0.81243  -0.79884  -0.79221
 Alpha  occ. eigenvalues --   -0.76458  -0.75253  -0.74143  -0.73891  -0.73545
 Alpha  occ. eigenvalues --   -0.71025  -0.70343  -0.69497  -0.68787  -0.68382
 Alpha  occ. eigenvalues --   -0.68238  -0.67099  -0.66676  -0.66334  -0.65090
 Alpha  occ. eigenvalues --   -0.64848  -0.64280  -0.62968  -0.62767  -0.61982
 Alpha  occ. eigenvalues --   -0.60576  -0.60003  -0.59177  -0.58770  -0.58275
 Alpha  occ. eigenvalues --   -0.57894  -0.57518  -0.57246  -0.56492  -0.55902
 Alpha  occ. eigenvalues --   -0.55408  -0.55025  -0.54386  -0.54277  -0.53985
 Alpha  occ. eigenvalues --   -0.53392  -0.53207  -0.52801  -0.52653  -0.52492
 Alpha  occ. eigenvalues --   -0.51910  -0.51680  -0.51577  -0.51426  -0.51046
 Alpha  occ. eigenvalues --   -0.50823  -0.50482  -0.49780  -0.49696  -0.49384
 Alpha  occ. eigenvalues --   -0.48968  -0.48788  -0.48515  -0.47857  -0.47483
 Alpha  occ. eigenvalues --   -0.47299  -0.46882  -0.46604  -0.46367  -0.45393
 Alpha  occ. eigenvalues --   -0.44657  -0.44427  -0.43863  -0.43033  -0.42194
 Alpha  occ. eigenvalues --   -0.42158  -0.41991  -0.41722  -0.41542  -0.41229
 Alpha  occ. eigenvalues --   -0.40724  -0.40489  -0.39978  -0.38740  -0.37877
 Alpha  occ. eigenvalues --   -0.36862  -0.36677  -0.36343  -0.35835  -0.35032
 Alpha  occ. eigenvalues --   -0.34042  -0.32658  -0.31123  -0.30954  -0.29696
 Alpha  occ. eigenvalues --   -0.29650  -0.26248
 Alpha virt. eigenvalues --   -0.13648  -0.11912  -0.10133  -0.09114  -0.08491
 Alpha virt. eigenvalues --   -0.07213  -0.06427  -0.06246  -0.05902  -0.05549
 Alpha virt. eigenvalues --   -0.03708  -0.02670  -0.02392  -0.01062  -0.00988

 Mulliken charges:
               1
     1  N   -0.749371
     2  H    0.419481
     3  H    0.433062
     4  H    0.419612
     5  C   -0.131895
     6  H    0.208072
     7  C    0.677151
     8  C   -0.282057
     9  H    0.189845
    10  H    0.201743
    11  O   -0.540591
    12  C   -0.406050
    13  H    0.174244
    14  H    0.249383
    15  C    0.600055
    16  O   -0.450578
    17  O   -0.559571
    18  N   -0.590208
    19  H    0.345064
    20  C   -0.041166
    21  H    0.186835
    22  C    0.644226
    23  C   -0.402100
    24  H    0.192743
    25  H    0.174492
    26  O   -0.536300
    27  C    0.038561
    28  C   -0.020000
    29  H    0.165605
    30  C    0.091937
    31  C    0.306406
    32  C   -0.213730
    33  H    0.127150
    34  N   -0.682576
    35  H    0.342844
    36  C   -0.148792
    37  H    0.148424
    38  C   -0.160146
    39  H    0.143075
    40  C   -0.138006
    41  H    0.143496
    42  N   -0.622897
    43  H    0.363095
    44  C   -0.090700
    45  H    0.179702
    46  C    0.645758
    47  C    0.135491
    48  H    0.151250
    49  O   -0.536866
    50  C   -0.467665
    51  H    0.158452
    52  H    0.170034
    53  H    0.150857
    54  O   -0.611226
    55  H    0.393990
    56  N   -0.603931
    57  H    0.351730
    58  C   -0.069923
    59  H    0.215129
    60  C    0.598553
    61  C   -0.265097
    62  H    0.178898
    63  H    0.163265
    64  O   -0.440849
    65  C   -0.277048
    66  H    0.155767
    67  H    0.133093
    68  C   -0.136103
    69  H    0.178290
    70  H    0.137456
    71  N   -0.603623
    72  H    0.307575
    73  N   -0.742438
    74  H    0.342892
    75  H    0.320480
    76  N   -0.639910
    77  H    0.255783
    78  C    0.580089
    79  O   -0.585061
    80  H    0.428966
    81  H    0.426376
 Sum of Mulliken charges =   1.00000

 Dipole moment (field-independent basis, Debye):
    X=            -20.9320    Y=              7.1255    Z=             11.9325  Tot=             25.1258
 Quadrupole moment (field-independent basis, Debye-Ang):
   XX=           -123.0669   YY=           -236.1127   ZZ=           -159.0385
   XY=            -34.3893   XZ=            -41.3432   YZ=             17.3310

 Normal termination of Gaussian 16 at Thu May 26 18:08:15 2022.
