 Gaussian 16, Revision C.01,
 Gaussian 16:  ES64L-G16RevC.01  3-Jul-2019

 -------------------------------------------------------------------
 # B3LYP/6-31G* guess=read geom=check nosymm integral(ultrafinegrid)
 -------------------------------------------------------------------

 ------------------------------------------------------
 Candidate Structure: Conf:549 Charge calc in gas phase
 ------------------------------------------------------
 Structure from the checkpoint file:  "conf-549.chk"
 Charge =  1 Multiplicity = 1

                          Input orientation:
 ---------------------------------------------------------------------
 Center     Atomic      Atomic             Coordinates (Angstroms)
 Number     Number       Type             X           Y           Z
 ---------------------------------------------------------------------
      1          7           0       -4.663825   -0.456391    0.815093
      2          1           0       -5.245350    0.391568    0.620110
      3          1           0       -4.120785   -0.678926   -0.044270
      4          1           0       -5.282825   -1.231540    1.067001
      5          6           0       -3.624826   -0.154308    1.879226
      6          1           0       -4.067525    0.620083    2.508544
      7          6           0       -2.463603    0.432209    1.028494
      8          6           0       -3.314324   -1.403585    2.736865
      9          1           0       -2.961607   -1.039256    3.704926
     10          1           0       -4.264758   -1.916921    2.934191
     11          8           0       -2.329130   -0.011116   -0.119783
     12          6           0       -2.276713   -2.400046    2.199207
     13          1           0       -2.385849   -2.609496    1.128625
     14          1           0       -2.388866   -3.364597    2.707280
     15          6           0       -0.862071   -1.895611    2.442305
     16          8           0       -0.651131   -0.811610    2.979877
     17          8           0        0.078186   -2.708115    2.014257
     18          7           0       -1.734331    1.420877    1.562059
     19          1           0       -1.887697    1.666605    2.532300
     20          6           0       -0.871060    2.287936    0.757822
     21          1           0       -0.848725    1.810555   -0.226761
     22          6           0        0.618549    2.310208    1.156597
     23          6           0       -1.527589    3.679964    0.564157
     24          1           0       -0.753503    4.355651    0.190550
     25          1           0       -1.856958    4.081628    1.530638
     26          8           0        1.304211    3.289375    0.866688
     27          6           0       -2.654856    3.535091   -0.423336
     28          6           0       -2.467242    3.474454   -1.785248
     29          1           0       -1.580934    3.700037   -2.363302
     30          6           0       -4.008219    3.094618   -0.199648
     31          6           0       -4.552542    2.752087   -1.482988
     32          6           0       -4.820999    2.939256    0.938389
     33          1           0       -4.467265    3.254385    1.917862
     34          7           0       -3.593019    3.020632   -2.426233
     35          1           0       -3.521368    2.682126   -3.402494
     36          6           0       -6.606245    2.041897   -0.477560
     37          1           0       -7.619236    1.658610   -0.563472
     38          6           0       -5.839599    2.220526   -1.627220
     39          1           0       -6.234017    1.968628   -2.607478
     40          6           0       -6.106138    2.409249    0.797172
     41          1           0       -6.755330    2.330654    1.666076
     42          7           0        1.138127    1.146018    1.620500
     43          1           0        0.529343    0.386070    1.916780
     44          6           0        2.585561    0.907329    1.606607
     45          1           0        3.081096    1.825084    1.939740
     46          6           0        3.022795    0.596553    0.147221
     47          6           0        2.996472   -0.250380    2.543783
     48          1           0        4.091087   -0.318285    2.476906
     49          8           0        3.223431   -0.564632   -0.242950
     50          6           0        2.601271   -0.044122    3.998091
     51          1           0        3.032826    0.885531    4.383494
     52          1           0        2.983918   -0.875167    4.597700
     53          1           0        1.515552   -0.006105    4.115773
     54          8           0        2.452477   -1.499691    2.081780
     55          1           0        2.768880   -1.563998    1.147554
     56          7           0        3.132457    1.659099   -0.673065
     57          1           0        2.880146    2.587507   -0.335978
     58          6           0        3.388548    1.502692   -2.101614
     59          1           0        4.141368    0.721874   -2.237611
     60          6           0        3.935921    2.833761   -2.602134
     61          6           0        2.090349    1.093701   -2.851743
     62          1           0        1.357173    1.900935   -2.725569
     63          1           0        1.716940    0.208860   -2.319991
     64          8           0        3.699178    3.902433   -2.085416
     65          6           0        2.250117    0.754074   -4.338873
     66          1           0        2.628021    1.621027   -4.892486
     67          1           0        3.000207   -0.038954   -4.457592
     68          6           0        0.943177    0.267964   -4.992133
     69          1           0        1.160056   -0.065919   -6.014011
     70          1           0        0.543984   -0.601345   -4.461132
     71          7           0       -0.107688    1.288994   -5.051827
     72          1           0       -0.082442    1.899839   -5.856904
     73          7           0       -1.386909    0.408664   -3.308494
     74          1           0       -2.238249    0.505490   -2.771415
     75          1           0       -0.564760    0.352714   -2.722391
     76          7           0       -2.380414    1.929729   -4.746018
     77          1           0       -2.263045    2.383765   -5.651532
     78          6           0       -1.325378    1.252270   -4.406614
     79          8           0        4.690776    2.684942   -3.707659
     80          1           0        0.976646   -2.271315    2.165646
     81          1           0        4.981883    3.578240   -3.976844
 ---------------------------------------------------------------------

 SCF Done:  E(RB3LYP) =  -2053.95458121     A.U. after    1 cycles

 Alpha  occ. eigenvalues --  -19.28691 -19.28340 -19.26971 -19.24771 -19.24153
 Alpha  occ. eigenvalues --  -19.22997 -19.21968 -19.21863 -14.58996 -14.50329
 Alpha  occ. eigenvalues --  -14.45933 -14.45392 -14.45280 -14.44218 -14.43140
 Alpha  occ. eigenvalues --  -14.37551 -10.44061 -10.43060 -10.41068 -10.40653
 Alpha  occ. eigenvalues --  -10.39263 -10.38688 -10.37646 -10.34783 -10.34262
 Alpha  occ. eigenvalues --  -10.33634 -10.33113 -10.33087 -10.32413 -10.31553
 Alpha  occ. eigenvalues --  -10.31131 -10.30476 -10.29449 -10.29223 -10.29105
 Alpha  occ. eigenvalues --  -10.29075 -10.28998 -10.28658 -10.28578 -10.27487
 Alpha  occ. eigenvalues --  -10.27393 -10.25815  -1.20617  -1.19618  -1.19143
 Alpha  occ. eigenvalues --   -1.14342  -1.13485  -1.13241  -1.11770  -1.10818
 Alpha  occ. eigenvalues --   -1.10572  -1.06852  -1.06670  -1.06329  -1.02421
 Alpha  occ. eigenvalues --   -1.01588  -0.97506  -0.94423  -0.93964  -0.93119
 Alpha  occ. eigenvalues --   -0.90776  -0.89159  -0.87764  -0.86831  -0.85213
 Alpha  occ. eigenvalues --   -0.83527  -0.83380  -0.81769  -0.79752  -0.79200
 Alpha  occ. eigenvalues --   -0.76665  -0.75789  -0.73587  -0.72808  -0.72095
 Alpha  occ. eigenvalues --   -0.71739  -0.71580  -0.69983  -0.69894  -0.69152
 Alpha  occ. eigenvalues --   -0.68784  -0.68680  -0.68063  -0.66959  -0.66646
 Alpha  occ. eigenvalues --   -0.64891  -0.63942  -0.63286  -0.62639  -0.62133
 Alpha  occ. eigenvalues --   -0.61416  -0.61347  -0.60566  -0.60303  -0.58835
 Alpha  occ. eigenvalues --   -0.58797  -0.58377  -0.58014  -0.57668  -0.57093
 Alpha  occ. eigenvalues --   -0.56970  -0.56515  -0.55909  -0.55827  -0.55549
 Alpha  occ. eigenvalues --   -0.55098  -0.54533  -0.53695  -0.53456  -0.53365
 Alpha  occ. eigenvalues --   -0.53180  -0.52907  -0.52718  -0.52103  -0.51807
 Alpha  occ. eigenvalues --   -0.51370  -0.51086  -0.50826  -0.50423  -0.50071
 Alpha  occ. eigenvalues --   -0.49798  -0.49663  -0.48909  -0.48666  -0.48470
 Alpha  occ. eigenvalues --   -0.47850  -0.47643  -0.47121  -0.46983  -0.46629
 Alpha  occ. eigenvalues --   -0.46397  -0.46191  -0.45257  -0.45131  -0.44613
 Alpha  occ. eigenvalues --   -0.43835  -0.43688  -0.43242  -0.43012  -0.42936
 Alpha  occ. eigenvalues --   -0.42072  -0.41184  -0.40507  -0.40037  -0.38874
 Alpha  occ. eigenvalues --   -0.37687  -0.37554  -0.37046  -0.36601  -0.36098
 Alpha  occ. eigenvalues --   -0.35490  -0.35193  -0.34439  -0.33789  -0.32408
 Alpha  occ. eigenvalues --   -0.31186  -0.29613
 Alpha virt. eigenvalues --   -0.13430  -0.11612  -0.09994  -0.09553  -0.09220
 Alpha virt. eigenvalues --   -0.08451  -0.08131  -0.06825  -0.06085  -0.04949
 Alpha virt. eigenvalues --   -0.03678  -0.03434  -0.02071  -0.01508  -0.00697

 Mulliken charges:
               1
     1  N   -0.763474
     2  H    0.423269
     3  H    0.421258
     4  H    0.400252
     5  C   -0.104499
     6  H    0.202818
     7  C    0.677973
     8  C   -0.292100
     9  H    0.212205
    10  H    0.164669
    11  O   -0.554722
    12  C   -0.375625
    13  H    0.193010
    14  H    0.214826
    15  C    0.608437
    16  O   -0.512500
    17  O   -0.575303
    18  N   -0.593444
    19  H    0.354550
    20  C   -0.079237
    21  H    0.210130
    22  C    0.610822
    23  C   -0.355541
    24  H    0.209038
    25  H    0.154839
    26  O   -0.524063
    27  C    0.041439
    28  C    0.005993
    29  H    0.169277
    30  C    0.075594
    31  C    0.310276
    32  C   -0.234151
    33  H    0.133215
    34  N   -0.675542
    35  H    0.387927
    36  C   -0.187584
    37  H    0.152120
    38  C   -0.164828
    39  H    0.162593
    40  C   -0.224233
    41  H    0.146513
    42  N   -0.638932
    43  H    0.396726
    44  C   -0.065168
    45  H    0.193398
    46  C    0.637521
    47  C    0.109738
    48  H    0.160595
    49  O   -0.565826
    50  C   -0.471887
    51  H    0.161002
    52  H    0.177620
    53  H    0.172030
    54  O   -0.685381
    55  H    0.444812
    56  N   -0.623136
    57  H    0.394150
    58  C   -0.027253
    59  H    0.204626
    60  C    0.580654
    61  C   -0.295753
    62  H    0.152559
    63  H    0.164979
    64  O   -0.449258
    65  C   -0.256219
    66  H    0.156481
    67  H    0.160345
    68  C   -0.167680
    69  H    0.170358
    70  H    0.178129
    71  N   -0.601159
    72  H    0.329723
    73  N   -0.756056
    74  H    0.345938
    75  H    0.338055
    76  N   -0.722356
    77  H    0.285172
    78  C    0.649458
    79  O   -0.558005
    80  H    0.467927
    81  H    0.425877
 Sum of Mulliken charges =   1.00000

 Dipole moment (field-independent basis, Debye):
    X=            -11.1096    Y=              0.6727    Z=              0.1389  Tot=             11.1308
 Quadrupole moment (field-independent basis, Debye-Ang):
   XX=           -150.2206   YY=           -242.2040   ZZ=           -179.7124
   XY=             19.6596   XZ=            -33.4160   YZ=            -18.3350

 Normal termination of Gaussian 16 at Thu May 26 18:08:11 2022.
