 Gaussian 16, Revision C.01,
 Gaussian 16:  ES64L-G16RevC.01  3-Jul-2019

 -------------------------------------------------------------------
 # B3LYP/6-31G* guess=read geom=check nosymm integral(ultrafinegrid)
 -------------------------------------------------------------------

 ------------------------------------------------------
 Candidate Structure: Conf:231 Charge calc in gas phase
 ------------------------------------------------------
 Structure from the checkpoint file:  "conf-231.chk"
 Charge =  1 Multiplicity = 1

                          Input orientation:
 ---------------------------------------------------------------------
 Center     Atomic      Atomic             Coordinates (Angstroms)
 Number     Number       Type             X           Y           Z
 ---------------------------------------------------------------------
      1          7           0       -5.098414    1.415852    2.786751
      2          1           0       -5.165719    2.300174    2.218804
      3          1           0       -5.207067    0.632927    2.109515
      4          1           0       -5.833715    1.393625    3.497993
      5          6           0       -3.704014    1.225797    3.352192
      6          1           0       -3.374296    2.194792    3.735635
      7          6           0       -2.922904    0.792248    2.087699
      8          6           0       -3.689333    0.150205    4.444758
      9          1           0       -4.079202   -0.785026    4.023749
     10          1           0       -2.642418   -0.041018    4.701115
     11          8           0       -3.520395    0.063703    1.293099
     12          6           0       -4.454542    0.541064    5.722330
     13          1           0       -5.517447    0.732961    5.540687
     14          1           0       -4.017060    1.450951    6.153558
     15          6           0       -4.413233   -0.549170    6.784705
     16          8           0       -5.383815   -1.025650    7.318683
     17          8           0       -3.140091   -0.911829    7.058575
     18          7           0       -1.676492    1.263436    1.926778
     19          1           0       -1.280279    1.902015    2.608473
     20          6           0       -1.074905    1.344653    0.588227
     21          1           0       -1.482960    0.519083    0.003862
     22          6           0        0.442862    1.233136    0.779189
     23          6           0       -1.429468    2.714706   -0.071939
     24          1           0       -1.091986    2.670466   -1.116939
     25          1           0       -0.846368    3.484065    0.446200
     26          8           0        1.020185    2.070499    1.481879
     27          6           0       -2.892885    3.037159   -0.001536
     28          6           0       -3.508983    3.777946    0.963790
     29          1           0       -3.075949    4.361293    1.766883
     30          6           0       -3.943036    2.530058   -0.872230
     31          6           0       -5.176415    2.982780   -0.356816
     32          6           0       -3.923803    1.757068   -2.044863
     33          1           0       -2.980396    1.419538   -2.467775
     34          7           0       -4.920779    3.687821    0.847651
     35          1           0       -5.477342    4.515520    1.046407
     36          6           0       -6.355326    1.945438   -2.143264
     37          1           0       -7.282775    1.717500   -2.660042
     38          6           0       -6.395054    2.703159   -0.973846
     39          1           0       -7.337121    3.070645   -0.575099
     40          6           0       -5.136539    1.477707   -2.668931
     41          1           0       -5.145033    0.890636   -3.582479
     42          7           0        1.060049    0.214153    0.150269
     43          1           0        0.490098   -0.550935   -0.194008
     44          6           0        2.452926   -0.157310    0.445508
     45          1           0        2.635491    0.076217    1.502234
     46          6           0        3.452757    0.654106   -0.421788
     47          6           0        2.638836   -1.667507    0.196752
     48          1           0        2.759536   -1.817325   -0.883717
     49          8           0        4.213792    0.104791   -1.213342
     50          6           0        3.862323   -2.218560    0.922051
     51          1           0        4.771262   -1.721438    0.573602
     52          1           0        3.971986   -3.290530    0.719361
     53          1           0        3.762349   -2.083766    2.004771
     54          8           0        1.427054   -2.295431    0.645683
     55          1           0        1.498127   -3.240148    0.438549
     56          7           0        3.411411    1.997074   -0.237779
     57          1           0        2.807651    2.378181    0.486396
     58          6           0        4.291130    2.874617   -1.005345
     59          1           0        5.296032    2.429013   -0.984172
     60          6           0        4.431000    4.244442   -0.351094
     61          6           0        3.885478    2.997403   -2.489698
     62          1           0        3.950791    1.988894   -2.911172
     63          1           0        4.641305    3.611114   -2.990898
     64          8           0        4.817986    5.232935   -0.929640
     65          6           0        2.488034    3.584114   -2.719367
     66          1           0        1.771910    3.116249   -2.033356
     67          1           0        2.483614    4.659014   -2.504964
     68          6           0        2.009712    3.361136   -4.161855
     69          1           0        2.689642    3.863071   -4.857244
     70          1           0        2.051396    2.288227   -4.408809
     71          7           0        0.675558    3.900458   -4.410995
     72          1           0        0.563797    4.425260   -5.268717
     73          7           0       -1.630497    3.934169   -4.369713
     74          1           0       -2.468804    3.536341   -3.964561
     75          1           0       -1.599095    4.944832   -4.306523
     76          7           0       -0.566494    2.187670   -3.269289
     77          1           0        0.337899    1.721840   -3.198186
     78          6           0       -0.474827    3.271240   -3.972007
     79          8           0        4.109787    4.240056    0.964776
     80          1           0       -3.178952   -1.601506    7.749445
     81          1           0        4.266253    5.148678    1.286304
 ---------------------------------------------------------------------

 SCF Done:  E(RB3LYP) =  -2053.91749865     A.U. after    1 cycles

 Alpha  occ. eigenvalues --  -19.29970 -19.27177 -19.25832 -19.24254 -19.23171
 Alpha  occ. eigenvalues --  -19.22100 -19.21077 -19.19029 -14.58993 -14.49557
 Alpha  occ. eigenvalues --  -14.49504 -14.46088 -14.42993 -14.42148 -14.41099
 Alpha  occ. eigenvalues --  -14.35935 -10.43136 -10.42831 -10.40649 -10.39410
 Alpha  occ. eigenvalues --  -10.39076 -10.36268 -10.35450 -10.34616 -10.34288
 Alpha  occ. eigenvalues --  -10.33293 -10.32910 -10.32470 -10.32038 -10.31817
 Alpha  occ. eigenvalues --  -10.31104 -10.29887 -10.29230 -10.28996 -10.28852
 Alpha  occ. eigenvalues --  -10.28796 -10.28196 -10.27728 -10.27559 -10.25220
 Alpha  occ. eigenvalues --  -10.25117 -10.24677  -1.20818  -1.18527  -1.17959
 Alpha  occ. eigenvalues --   -1.13988  -1.13131  -1.11996  -1.11052  -1.10312
 Alpha  occ. eigenvalues --   -1.08836  -1.08266  -1.05909  -1.04665  -1.02132
 Alpha  occ. eigenvalues --   -0.99630  -0.95614  -0.94842  -0.93875  -0.91219
 Alpha  occ. eigenvalues --   -0.91023  -0.88580  -0.87199  -0.86018  -0.84885
 Alpha  occ. eigenvalues --   -0.83328  -0.82148  -0.81670  -0.78605  -0.78426
 Alpha  occ. eigenvalues --   -0.76037  -0.74783  -0.73824  -0.72135  -0.71898
 Alpha  occ. eigenvalues --   -0.71613  -0.71257  -0.70460  -0.69717  -0.69227
 Alpha  occ. eigenvalues --   -0.68271  -0.66542  -0.65682  -0.65118  -0.64463
 Alpha  occ. eigenvalues --   -0.63994  -0.63678  -0.63222  -0.61968  -0.61659
 Alpha  occ. eigenvalues --   -0.60357  -0.59880  -0.59245  -0.59001  -0.58849
 Alpha  occ. eigenvalues --   -0.58576  -0.58022  -0.57973  -0.57324  -0.56657
 Alpha  occ. eigenvalues --   -0.56442  -0.55607  -0.55478  -0.55006  -0.54737
 Alpha  occ. eigenvalues --   -0.54393  -0.53916  -0.53241  -0.53049  -0.52526
 Alpha  occ. eigenvalues --   -0.52219  -0.51754  -0.51251  -0.51171  -0.50617
 Alpha  occ. eigenvalues --   -0.50379  -0.50288  -0.49952  -0.49824  -0.49345
 Alpha  occ. eigenvalues --   -0.48949  -0.48901  -0.48807  -0.48358  -0.47891
 Alpha  occ. eigenvalues --   -0.47186  -0.46730  -0.46546  -0.46083  -0.45630
 Alpha  occ. eigenvalues --   -0.44981  -0.44605  -0.44051  -0.43718  -0.43639
 Alpha  occ. eigenvalues --   -0.43038  -0.42092  -0.41924  -0.41459  -0.41093
 Alpha  occ. eigenvalues --   -0.40459  -0.40389  -0.39350  -0.38961  -0.37827
 Alpha  occ. eigenvalues --   -0.37541  -0.36764  -0.35825  -0.35441  -0.34856
 Alpha  occ. eigenvalues --   -0.33936  -0.33038  -0.32744  -0.32269  -0.32078
 Alpha  occ. eigenvalues --   -0.31538  -0.29977
 Alpha virt. eigenvalues --   -0.13065  -0.11813  -0.09674  -0.09243  -0.08887
 Alpha virt. eigenvalues --   -0.08592  -0.06452  -0.05546  -0.05376  -0.04839
 Alpha virt. eigenvalues --   -0.03834  -0.02438  -0.02067  -0.01962  -0.01768

 Mulliken charges:
               1
     1  N   -0.771762
     2  H    0.441836
     3  H    0.424404
     4  H    0.402683
     5  C   -0.114998
     6  H    0.190071
     7  C    0.659481
     8  C   -0.294029
     9  H    0.195156
    10  H    0.218862
    11  O   -0.522521
    12  C   -0.368369
    13  H    0.166873
    14  H    0.195025
    15  C    0.581220
    16  O   -0.424440
    17  O   -0.557730
    18  N   -0.589969
    19  H    0.351453
    20  C   -0.073112
    21  H    0.202504
    22  C    0.644870
    23  C   -0.395567
    24  H    0.240765
    25  H    0.168931
    26  O   -0.557696
    27  C    0.109117
    28  C   -0.096956
    29  H    0.157397
    30  C    0.116241
    31  C    0.224720
    32  C   -0.221708
    33  H    0.195250
    34  N   -0.721540
    35  H    0.353565
    36  C   -0.141122
    37  H    0.154825
    38  C   -0.182974
    39  H    0.140784
    40  C   -0.142724
    41  H    0.156221
    42  N   -0.600938
    43  H    0.363081
    44  C   -0.076730
    45  H    0.187146
    46  C    0.636723
    47  C    0.120514
    48  H    0.161703
    49  O   -0.521355
    50  C   -0.475260
    51  H    0.189028
    52  H    0.152053
    53  H    0.156316
    54  O   -0.654980
    55  H    0.408018
    56  N   -0.642781
    57  H    0.385390
    58  C   -0.038811
    59  H    0.209010
    60  C    0.582246
    61  C   -0.274831
    62  H    0.173220
    63  H    0.170948
    64  O   -0.454640
    65  C   -0.270743
    66  H    0.137936
    67  H    0.160794
    68  C   -0.152786
    69  H    0.161934
    70  H    0.152015
    71  N   -0.599262
    72  H    0.336038
    73  N   -0.752600
    74  H    0.339111
    75  H    0.326634
    76  N   -0.686890
    77  H    0.286048
    78  C    0.608621
    79  O   -0.569643
    80  H    0.432450
    81  H    0.420235
 Sum of Mulliken charges =   1.00000

 Dipole moment (field-independent basis, Debye):
    X=            -15.5196    Y=              9.8948    Z=              9.4460  Tot=             20.6880
 Quadrupole moment (field-independent basis, Debye-Ang):
   XX=           -152.8198   YY=           -188.0860   ZZ=           -176.6718
   XY=            -48.1805   XZ=            -34.7147   YZ=              5.1446

 Normal termination of Gaussian 16 at Thu May 26 18:08:04 2022.
