 Gaussian 16, Revision C.01,
 Gaussian 16:  ES64L-G16RevC.01  3-Jul-2019

 -------------------------------------------------------------------
 # B3LYP/6-31G* guess=read geom=check nosymm integral(ultrafinegrid)
 -------------------------------------------------------------------

 ------------------------------------------------------
 Candidate Structure: Conf:472 Charge calc in gas phase
 ------------------------------------------------------
 Structure from the checkpoint file:  "conf-472.chk"
 Charge =  1 Multiplicity = 1

                          Input orientation:
 ---------------------------------------------------------------------
 Center     Atomic      Atomic             Coordinates (Angstroms)
 Number     Number       Type             X           Y           Z
 ---------------------------------------------------------------------
      1          7           0       -3.858054   -0.278358    4.785229
      2          1           0       -4.723530   -0.824595    4.732212
      3          1           0       -3.048748   -0.903729    4.507313
      4          1           0       -3.747359    0.071942    5.741434
      5          6           0       -3.774322    0.817921    3.736762
      6          1           0       -4.789663    1.101164    3.447651
      7          6           0       -3.000876    0.114103    2.593548
      8          6           0       -3.003424    2.008974    4.338070
      9          1           0       -3.575332    2.381071    5.197972
     10          1           0       -2.036019    1.655068    4.711832
     11          8           0       -2.286222   -0.849309    2.906923
     12          6           0       -2.769880    3.147567    3.334085
     13          1           0       -3.696528    3.438694    2.827887
     14          1           0       -2.057295    2.818470    2.565612
     15          6           0       -2.201663    4.415318    3.948210
     16          8           0       -2.335514    5.515361    3.471891
     17          8           0       -1.495633    4.166505    5.077586
     18          7           0       -3.146384    0.606730    1.366867
     19          1           0       -3.806908    1.360332    1.201445
     20          6           0       -2.279498    0.205862    0.258947
     21          1           0       -2.406163   -0.870090    0.098212
     22          6           0       -0.811350    0.519219    0.632766
     23          6           0       -2.669652    0.981026   -1.032452
     24          1           0       -2.122501    0.522311   -1.862751
     25          1           0       -2.290732    2.006605   -0.941680
     26          8           0       -0.531438    1.435597    1.402259
     27          6           0       -4.145989    1.006714   -1.303950
     28          6           0       -4.890492    0.081192   -1.996439
     29          1           0       -4.569973   -0.803973   -2.529528
     30          6           0       -5.078408    1.995777   -0.814332
     31          6           0       -6.376318    1.594640   -1.237521
     32          6           0       -4.944024    3.189182   -0.074297
     33          1           0       -3.961864    3.565429    0.206466
     34          7           0       -6.224850    0.423962   -1.952423
     35          1           0       -6.962458   -0.060461   -2.441970
     36          6           0       -7.360520    3.495188   -0.183484
     37          1           0       -8.231546    4.094005    0.065073
     38          6           0       -7.523437    2.333307   -0.929705
     39          1           0       -8.506698    2.017223   -1.266889
     40          6           0       -6.084164    3.922888    0.236365
     41          1           0       -5.989419    4.854565    0.786726
     42          7           0        0.095613   -0.273116    0.018273
     43          1           0       -0.190363   -0.850333   -0.773478
     44          6           0        1.521110    0.030016   -0.029444
     45          1           0        1.661119    1.101583    0.156283
     46          6           0        1.964620   -0.334731   -1.466417
     47          6           0        2.323634   -0.781877    1.025939
     48          1           0        3.384137   -0.537891    0.892234
     49          8           0        1.185066   -0.897651   -2.236095
     50          6           0        1.920434   -0.462134    2.464741
     51          1           0        2.038858    0.602797    2.688768
     52          1           0        2.546507   -1.042311    3.149342
     53          1           0        0.871631   -0.724662    2.645117
     54          8           0        2.237852   -2.171084    0.746888
     55          1           0        1.325627   -2.448272    0.933442
     56          7           0        3.230186   -0.000242   -1.795441
     57          1           0        3.828777    0.459758   -1.122564
     58          6           0        3.832804   -0.368964   -3.077464
     59          1           0        3.301536   -1.247970   -3.447614
     60          6           0        5.289166   -0.770793   -2.876300
     61          6           0        3.713695    0.777211   -4.112838
     62          1           0        4.240459    1.654964   -3.717785
     63          1           0        2.647391    1.032542   -4.168694
     64          8           0        5.875827   -1.592146   -3.535861
     65          6           0        4.246522    0.422248   -5.506521
     66          1           0        5.309267    0.165797   -5.456920
     67          1           0        3.726490   -0.468529   -5.884810
     68          6           0        4.065349    1.555901   -6.531940
     69          1           0        4.444533    1.216592   -7.501178
     70          1           0        3.000311    1.771800   -6.678807
     71          7           0        4.701351    2.832608   -6.187490
     72          1           0        4.155715    3.405068   -5.555956
     73          7           0        6.858103    2.119097   -6.747868
     74          1           0        7.839720    2.344990   -6.629594
     75          1           0        6.590399    2.112755   -7.726606
     76          7           0        6.642356    3.704108   -5.073372
     77          1           0        5.952491    4.154714   -4.468157
     78          6           0        6.073960    2.944053   -5.939353
     79          8           0        5.878553   -0.043061   -1.890919
     80          1           0       -1.137028    5.023789    5.379055
     81          1           0        6.815424   -0.316044   -1.857806
 ---------------------------------------------------------------------

 SCF Done:  E(RB3LYP) =  -2053.90601974     A.U. after    2 cycles

 Alpha  occ. eigenvalues --  -19.29353 -19.27518 -19.27026 -19.23213 -19.22194
 Alpha  occ. eigenvalues --  -19.22088 -19.20921 -19.20413 -14.61287 -14.50387
 Alpha  occ. eigenvalues --  -14.47461 -14.45588 -14.44626 -14.39570 -14.38092
 Alpha  occ. eigenvalues --  -14.32525 -10.44199 -10.41962 -10.41746 -10.39152
 Alpha  occ. eigenvalues --  -10.39123 -10.37572 -10.35303 -10.34570 -10.32432
 Alpha  occ. eigenvalues --  -10.32089 -10.32070 -10.31597 -10.31597 -10.31270
 Alpha  occ. eigenvalues --  -10.31237 -10.30611 -10.28184 -10.28136 -10.28116
 Alpha  occ. eigenvalues --  -10.28053 -10.27586 -10.27396 -10.27324 -10.25982
 Alpha  occ. eigenvalues --  -10.25313 -10.23997  -1.20068  -1.20014  -1.17639
 Alpha  occ. eigenvalues --   -1.15055  -1.13869  -1.12306  -1.11091  -1.09859
 Alpha  occ. eigenvalues --   -1.08714  -1.07432  -1.06942  -1.02123  -1.01643
 Alpha  occ. eigenvalues --   -1.01043  -0.95298  -0.93167  -0.92951  -0.91254
 Alpha  occ. eigenvalues --   -0.88381  -0.87951  -0.87301  -0.86107  -0.84608
 Alpha  occ. eigenvalues --   -0.82768  -0.81422  -0.80804  -0.79397  -0.78988
 Alpha  occ. eigenvalues --   -0.76423  -0.75038  -0.73887  -0.73581  -0.73024
 Alpha  occ. eigenvalues --   -0.71492  -0.70911  -0.70143  -0.69005  -0.68435
 Alpha  occ. eigenvalues --   -0.68240  -0.67049  -0.66586  -0.66164  -0.65004
 Alpha  occ. eigenvalues --   -0.64072  -0.63466  -0.63364  -0.62622  -0.61660
 Alpha  occ. eigenvalues --   -0.59998  -0.59837  -0.58682  -0.58171  -0.57808
 Alpha  occ. eigenvalues --   -0.57651  -0.57447  -0.56962  -0.56370  -0.56038
 Alpha  occ. eigenvalues --   -0.55162  -0.55021  -0.54788  -0.54228  -0.53609
 Alpha  occ. eigenvalues --   -0.53262  -0.53187  -0.52776  -0.52548  -0.52367
 Alpha  occ. eigenvalues --   -0.52176  -0.51905  -0.51716  -0.51175  -0.50629
 Alpha  occ. eigenvalues --   -0.50491  -0.50271  -0.49761  -0.49210  -0.48944
 Alpha  occ. eigenvalues --   -0.48761  -0.48512  -0.47971  -0.47666  -0.47508
 Alpha  occ. eigenvalues --   -0.47335  -0.46796  -0.46467  -0.46340  -0.45211
 Alpha  occ. eigenvalues --   -0.44685  -0.44513  -0.44434  -0.43212  -0.42828
 Alpha  occ. eigenvalues --   -0.42612  -0.41973  -0.41140  -0.40938  -0.40840
 Alpha  occ. eigenvalues --   -0.40561  -0.40305  -0.40111  -0.38666  -0.37073
 Alpha  occ. eigenvalues --   -0.36905  -0.36724  -0.36006  -0.35551  -0.34788
 Alpha  occ. eigenvalues --   -0.34000  -0.32599  -0.31630  -0.30630  -0.29783
 Alpha  occ. eigenvalues --   -0.29745  -0.26678
 Alpha virt. eigenvalues --   -0.13435  -0.11889  -0.10758  -0.08595  -0.08263
 Alpha virt. eigenvalues --   -0.07144  -0.07108  -0.06721  -0.05404  -0.04893
 Alpha virt. eigenvalues --   -0.03704  -0.02487  -0.01642  -0.01113  -0.00656

 Mulliken charges:
               1
     1  N   -0.751209
     2  H    0.418483
     3  H    0.432626
     4  H    0.417225
     5  C   -0.131126
     6  H    0.216883
     7  C    0.670398
     8  C   -0.285918
     9  H    0.179067
    10  H    0.203562
    11  O   -0.543098
    12  C   -0.411987
    13  H    0.183661
    14  H    0.250032
    15  C    0.590388
    16  O   -0.436152
    17  O   -0.568958
    18  N   -0.604484
    19  H    0.369349
    20  C   -0.034385
    21  H    0.181712
    22  C    0.639079
    23  C   -0.414573
    24  H    0.190313
    25  H    0.185567
    26  O   -0.533599
    27  C    0.064577
    28  C    0.009240
    29  H    0.171862
    30  C    0.053810
    31  C    0.317213
    32  C   -0.257531
    33  H    0.146127
    34  N   -0.684760
    35  H    0.345572
    36  C   -0.153139
    37  H    0.149749
    38  C   -0.157023
    39  H    0.148031
    40  C   -0.146290
    41  H    0.148651
    42  N   -0.621705
    43  H    0.362904
    44  C   -0.090924
    45  H    0.181505
    46  C    0.651893
    47  C    0.137389
    48  H    0.147523
    49  O   -0.542650
    50  C   -0.466778
    51  H    0.158596
    52  H    0.169772
    53  H    0.150376
    54  O   -0.610767
    55  H    0.393853
    56  N   -0.622841
    57  H    0.356608
    58  C   -0.040099
    59  H    0.209948
    60  C    0.595753
    61  C   -0.273378
    62  H    0.147515
    63  H    0.153586
    64  O   -0.439689
    65  C   -0.276075
    66  H    0.190804
    67  H    0.145819
    68  C   -0.145555
    69  H    0.157442
    70  H    0.145910
    71  N   -0.584695
    72  H    0.308975
    73  N   -0.734871
    74  H    0.341414
    75  H    0.326440
    76  N   -0.635078
    77  H    0.257283
    78  C    0.553997
    79  O   -0.585517
    80  H    0.428031
    81  H    0.428342
 Sum of Mulliken charges =   1.00000

 Dipole moment (field-independent basis, Debye):
    X=            -18.8254    Y=              1.4630    Z=             12.4578  Tot=             22.6216
 Quadrupole moment (field-independent basis, Debye-Ang):
   XX=           -131.0722   YY=           -254.7313   ZZ=           -127.5397
   XY=              3.1321   XZ=            -51.7948   YZ=              4.0246

 Normal termination of Gaussian 16 at Thu May 26 18:08:17 2022.
