 Gaussian 16, Revision C.01,
 Gaussian 16:  ES64L-G16RevC.01  3-Jul-2019

 -------------------------------------------------------------------
 # B3LYP/6-31G* guess=read geom=check nosymm integral(ultrafinegrid)
 -------------------------------------------------------------------

 ------------------------------------------------------
 Candidate Structure: Conf:904 Charge calc in gas phase
 ------------------------------------------------------
 Structure from the checkpoint file:  "conf-904.chk"
 Charge =  1 Multiplicity = 1

                          Input orientation:
 ---------------------------------------------------------------------
 Center     Atomic      Atomic             Coordinates (Angstroms)
 Number     Number       Type             X           Y           Z
 ---------------------------------------------------------------------
      1          7           0       -2.912013    1.662047    4.795264
      2          1           0       -3.809157    1.797399    5.269547
      3          1           0       -2.717052    0.613024    4.702201
      4          1           0       -2.181503    2.124013    5.344004
      5          6           0       -2.926135    2.084153    3.337468
      6          1           0       -3.845599    2.648218    3.157439
      7          6           0       -2.933939    0.714928    2.601063
      8          6           0       -1.683483    2.914061    2.985211
      9          1           0       -0.786708    2.321339    3.207722
     10          1           0       -1.678395    3.058291    1.901404
     11          8           0       -2.715067   -0.296603    3.283013
     12          6           0       -1.634503    4.285827    3.682109
     13          1           0       -1.615717    4.207391    4.774172
     14          1           0       -2.517303    4.875522    3.403142
     15          6           0       -0.392024    5.080356    3.302474
     16          8           0        0.419315    5.504919    4.086366
     17          8           0       -0.316943    5.249140    1.962673
     18          7           0       -3.142646    0.730143    1.290200
     19          1           0       -3.411393    1.584360    0.809999
     20          6           0       -2.951700   -0.449558    0.453812
     21          1           0       -3.643592   -1.229047    0.789521
     22          6           0       -1.491204   -0.934319    0.594530
     23          6           0       -3.235614   -0.074896   -1.031488
     24          1           0       -3.304538   -1.015477   -1.590680
     25          1           0       -2.359491    0.451817   -1.426419
     26          8           0       -0.591283   -0.157663    0.927831
     27          6           0       -4.467133    0.758613   -1.227114
     28          6           0       -4.492336    2.062100   -1.675432
     29          1           0       -3.674851    2.693718   -1.998715
     30          6           0       -5.842785    0.375789   -1.003001
     31          6           0       -6.646516    1.498060   -1.339685
     32          6           0       -6.473528   -0.804164   -0.567169
     33          1           0       -5.892345   -1.688878   -0.319164
     34          7           0       -5.793251    2.512567   -1.734950
     35          1           0       -6.082658    3.398235   -2.122160
     36          6           0       -8.634374    0.295345   -0.815144
     37          1           0       -9.716241    0.239172   -0.740289
     38          6           0       -8.042467    1.474499   -1.249925
     39          1           0       -8.642246    2.339998   -1.517344
     40          6           0       -7.858544   -0.833492   -0.478150
     41          1           0       -8.357036   -1.741377   -0.151799
     42          7           0       -1.293606   -2.226748    0.279085
     43          1           0       -2.039528   -2.814983   -0.082366
     44          6           0        0.026487   -2.856753    0.236365
     45          1           0        0.613627   -2.474018    1.077083
     46          6           0        0.719471   -2.492191   -1.096658
     47          6           0       -0.169031   -4.386768    0.338910
     48          1           0        0.801341   -4.855176    0.126199
     49          8           0        0.738532   -3.269918   -2.052603
     50          6           0       -0.660781   -4.838763    1.707167
     51          1           0        0.071939   -4.596346    2.484423
     52          1           0       -0.813952   -5.921295    1.697682
     53          1           0       -1.612068   -4.362329    1.966671
     54          8           0       -1.132051   -4.783451   -0.634019
     55          1           0       -0.697305   -4.618969   -1.494682
     56          7           0        1.270974   -1.255573   -1.130254
     57          1           0        1.031363   -0.628877   -0.366923
     58          6           0        1.844155   -0.695897   -2.356624
     59          1           0        2.001016    0.369685   -2.143256
     60          6           0        0.845866   -0.743324   -3.522819
     61          6           0        3.197985   -1.331122   -2.730728
     62          1           0        3.006721   -2.306673   -3.187396
     63          1           0        3.737365   -1.506906   -1.790959
     64          8           0        1.124349   -0.965231   -4.674136
     65          6           0        4.058565   -0.458268   -3.654876
     66          1           0        3.528419   -0.278859   -4.594855
     67          1           0        4.226769    0.519596   -3.178274
     68          6           0        5.434835   -1.084910   -3.957396
     69          1           0        6.070740   -0.347932   -4.459939
     70          1           0        5.942118   -1.337452   -3.017279
     71          7           0        5.417313   -2.280673   -4.782804
     72          1           0        5.004075   -3.100797   -4.355589
     73          7           0        5.085800   -3.491662   -6.724000
     74          1           0        5.051612   -3.425609   -7.735577
     75          1           0        5.801342   -4.145680   -6.421715
     76          7           0        5.152109   -1.179721   -6.919902
     77          1           0        5.120967   -0.314404   -6.381535
     78          6           0        5.216694   -2.214533   -6.164194
     79          8           0       -0.420043   -0.425397   -3.129500
     80          1           0        0.490981    5.768453    1.783078
     81          1           0       -0.955533   -0.472732   -3.944786
 ---------------------------------------------------------------------

 SCF Done:  E(RB3LYP) =  -2053.90860510     A.U. after    1 cycles

 Alpha  occ. eigenvalues --  -19.30983 -19.28272 -19.27333 -19.25262 -19.22542
 Alpha  occ. eigenvalues --  -19.21698 -19.21393 -19.20865 -14.61242 -14.50955
 Alpha  occ. eigenvalues --  -14.47511 -14.46680 -14.44558 -14.38841 -14.36892
 Alpha  occ. eigenvalues --  -14.31570 -10.44870 -10.43830 -10.42488 -10.39769
 Alpha  occ. eigenvalues --  -10.39547 -10.37529 -10.35741 -10.35735 -10.34361
 Alpha  occ. eigenvalues --  -10.32276 -10.32266 -10.32081 -10.32077 -10.31108
 Alpha  occ. eigenvalues --  -10.31017 -10.30835 -10.28576 -10.27672 -10.27497
 Alpha  occ. eigenvalues --  -10.27439 -10.27148 -10.26916 -10.26560 -10.25428
 Alpha  occ. eigenvalues --  -10.25190 -10.24161  -1.21812  -1.20796  -1.18038
 Alpha  occ. eigenvalues --   -1.15240  -1.14308  -1.13012  -1.12582  -1.09302
 Alpha  occ. eigenvalues --   -1.09021  -1.07742  -1.07319  -1.02841  -1.01026
 Alpha  occ. eigenvalues --   -1.00772  -0.96413  -0.92811  -0.92269  -0.91721
 Alpha  occ. eigenvalues --   -0.89031  -0.87731  -0.87044  -0.86250  -0.84877
 Alpha  occ. eigenvalues --   -0.82352  -0.81483  -0.80989  -0.79885  -0.78909
 Alpha  occ. eigenvalues --   -0.76826  -0.75493  -0.74595  -0.73928  -0.73753
 Alpha  occ. eigenvalues --   -0.72531  -0.71197  -0.70688  -0.69404  -0.68429
 Alpha  occ. eigenvalues --   -0.67710  -0.67209  -0.66722  -0.65457  -0.64475
 Alpha  occ. eigenvalues --   -0.64151  -0.63075  -0.62987  -0.62155  -0.61216
 Alpha  occ. eigenvalues --   -0.60923  -0.60256  -0.60118  -0.59129  -0.59034
 Alpha  occ. eigenvalues --   -0.58124  -0.58013  -0.57753  -0.57604  -0.56639
 Alpha  occ. eigenvalues --   -0.55987  -0.55480  -0.55301  -0.54967  -0.54869
 Alpha  occ. eigenvalues --   -0.54186  -0.53934  -0.53067  -0.52789  -0.52249
 Alpha  occ. eigenvalues --   -0.51803  -0.51713  -0.51376  -0.51168  -0.50847
 Alpha  occ. eigenvalues --   -0.50507  -0.50439  -0.49997  -0.49863  -0.49691
 Alpha  occ. eigenvalues --   -0.49506  -0.49419  -0.49043  -0.47783  -0.47270
 Alpha  occ. eigenvalues --   -0.46887  -0.46375  -0.46114  -0.45934  -0.45379
 Alpha  occ. eigenvalues --   -0.44409  -0.44286  -0.44010  -0.43356  -0.43157
 Alpha  occ. eigenvalues --   -0.42890  -0.42355  -0.42169  -0.41088  -0.40784
 Alpha  occ. eigenvalues --   -0.40656  -0.40095  -0.39807  -0.39028  -0.38740
 Alpha  occ. eigenvalues --   -0.37771  -0.37005  -0.36397  -0.35838  -0.35148
 Alpha  occ. eigenvalues --   -0.33284  -0.33049  -0.31301  -0.29842  -0.29329
 Alpha  occ. eigenvalues --   -0.28971  -0.26087
 Alpha virt. eigenvalues --   -0.13883  -0.12515  -0.10474  -0.10211  -0.08922
 Alpha virt. eigenvalues --   -0.07860  -0.07369  -0.06590  -0.06186  -0.05799
 Alpha virt. eigenvalues --   -0.03901  -0.03353  -0.02394  -0.02318  -0.01364

 Mulliken charges:
               1
     1  N   -0.759961
     2  H    0.418642
     3  H    0.439070
     4  H    0.416958
     5  C   -0.122312
     6  H    0.214489
     7  C    0.681546
     8  C   -0.304326
     9  H    0.204126
    10  H    0.218392
    11  O   -0.537180
    12  C   -0.363420
    13  H    0.168716
    14  H    0.195471
    15  C    0.581094
    16  O   -0.420734
    17  O   -0.560087
    18  N   -0.592270
    19  H    0.346224
    20  C   -0.042055
    21  H    0.190373
    22  C    0.663101
    23  C   -0.405859
    24  H    0.183358
    25  H    0.187356
    26  O   -0.568877
    27  C    0.033793
    28  C   -0.019183
    29  H    0.165314
    30  C    0.093481
    31  C    0.306315
    32  C   -0.213494
    33  H    0.125744
    34  N   -0.682222
    35  H    0.343212
    36  C   -0.148672
    37  H    0.149285
    38  C   -0.159930
    39  H    0.143735
    40  C   -0.137567
    41  H    0.144253
    42  N   -0.599455
    43  H    0.356394
    44  C   -0.083397
    45  H    0.178799
    46  C    0.641751
    47  C    0.108011
    48  H    0.155581
    49  O   -0.536960
    50  C   -0.450620
    51  H    0.149520
    52  H    0.181807
    53  H    0.147581
    54  O   -0.647336
    55  H    0.425537
    56  N   -0.618058
    57  H    0.367275
    58  C   -0.047117
    59  H    0.171047
    60  C    0.611830
    61  C   -0.260632
    62  H    0.182882
    63  H    0.138304
    64  O   -0.432832
    65  C   -0.280272
    66  H    0.187994
    67  H    0.121460
    68  C   -0.158504
    69  H    0.162577
    70  H    0.144062
    71  N   -0.588520
    72  H    0.321817
    73  N   -0.751698
    74  H    0.337520
    75  H    0.318147
    76  N   -0.642376
    77  H    0.271367
    78  C    0.582230
    79  O   -0.591499
    80  H    0.433140
    81  H    0.416738
 Sum of Mulliken charges =   1.00000

 Dipole moment (field-independent basis, Debye):
    X=            -15.6250    Y=             10.1530    Z=             15.2115  Tot=             24.0544
 Quadrupole moment (field-independent basis, Debye-Ang):
   XX=           -155.4486   YY=           -197.1661   ZZ=           -207.4714
   XY=            -50.6138   XZ=            -26.5648   YZ=             15.3728

 Normal termination of Gaussian 16 at Thu May 26 18:08:08 2022.
