 Gaussian 16, Revision C.01,
 Gaussian 16:  ES64L-G16RevC.01  3-Jul-2019

 -------------------------------------------------------------------
 # B3LYP/6-31G* guess=read geom=check nosymm integral(ultrafinegrid)
 -------------------------------------------------------------------

 ------------------------------------------------------
 Candidate Structure: Conf:370 Charge calc in gas phase
 ------------------------------------------------------
 Structure from the checkpoint file:  "conf-370.chk"
 Charge =  1 Multiplicity = 1

                          Input orientation:
 ---------------------------------------------------------------------
 Center     Atomic      Atomic             Coordinates (Angstroms)
 Number     Number       Type             X           Y           Z
 ---------------------------------------------------------------------
      1          7           0       -4.977555    3.329293    2.848342
      2          1           0       -4.963737    3.753563    1.892729
      3          1           0       -5.525768    2.449458    2.761283
      4          1           0       -5.408592    3.974495    3.516307
      5          6           0       -3.596553    2.870280    3.260119
      6          1           0       -2.894044    3.659922    2.981779
      7          6           0       -3.412094    1.594290    2.398005
      8          6           0       -3.576492    2.597202    4.770414
      9          1           0       -3.906057    3.495431    5.305458
     10          1           0       -4.293951    1.797440    4.993415
     11          8           0       -4.418846    0.912289    2.172642
     12          6           0       -2.178713    2.203520    5.276276
     13          1           0       -1.461458    3.005750    5.052788
     14          1           0       -1.813108    1.293170    4.796457
     15          6           0       -2.124844    1.961003    6.776758
     16          8           0       -1.516319    1.064789    7.305966
     17          8           0       -2.826014    2.898824    7.459918
     18          7           0       -2.180266    1.367995    1.951824
     19          1           0       -1.397263    1.975540    2.198491
     20          6           0       -1.799038    0.371450    0.954616
     21          1           0       -2.050432   -0.631860    1.319592
     22          6           0       -0.257487    0.502617    0.873351
     23          6           0       -2.519895    0.610604   -0.408453
     24          1           0       -3.572626    0.349850   -0.266400
     25          1           0       -2.127651   -0.108428   -1.137681
     26          8           0        0.331571    1.325316    1.575818
     27          6           0       -2.389216    2.018643   -0.916200
     28          6           0       -1.291786    2.569052   -1.542866
     29          1           0       -0.378896    2.085074   -1.863377
     30          6           0       -3.339541    3.091563   -0.779034
     31          6           0       -2.728032    4.262809   -1.323320
     32          6           0       -4.665519    3.181062   -0.307671
     33          1           0       -5.192846    2.285152    0.012283
     34          7           0       -1.482142    3.907956   -1.775704
     35          1           0       -0.811030    4.472548   -2.322625
     36          6           0       -4.670713    5.571555   -0.830303
     37          1           0       -5.205219    6.516641   -0.848576
     38          6           0       -3.382301    5.502608   -1.343257
     39          1           0       -2.899278    6.381716   -1.760112
     40          6           0       -5.316782    4.417000   -0.329610
     41          1           0       -6.362699    4.482015   -0.034571
     42          7           0        0.371179   -0.345554    0.026318
     43          1           0       -0.162012   -0.782195   -0.722285
     44          6           0        1.778989   -0.172869   -0.319944
     45          1           0        2.097979    0.811775    0.039402
     46          6           0        1.854613   -0.224844   -1.861846
     47          6           0        2.675788   -1.263718    0.328168
     48          1           0        3.708096   -1.072654    0.011862
     49          8           0        0.857402   -0.490234   -2.535781
     50          6           0        2.619974   -1.249433    1.853825
     51          1           0        2.905456   -0.273103    2.258143
     52          1           0        3.299408   -2.009411    2.250428
     53          1           0        1.607376   -1.473643    2.209913
     54          8           0        2.364466   -2.541144   -0.210318
     55          1           0        1.541585   -2.844884    0.206162
     56          7           0        3.062379    0.053509   -2.397899
     57          1           0        3.873446    0.202795   -1.806679
     58          6           0        3.366654   -0.130084   -3.811612
     59          1           0        2.970351   -1.098348   -4.141041
     60          6           0        4.887365   -0.185361   -3.916728
     61          6           0        2.766354    0.960356   -4.733043
     62          1           0        1.680171    0.821636   -4.726306
     63          1           0        3.111747    0.755624   -5.753172
     64          8           0        5.645547    0.035756   -2.995546
     65          6           0        3.109278    2.396562   -4.318708
     66          1           0        2.660500    2.610923   -3.342091
     67          1           0        4.194402    2.518909   -4.195285
     68          6           0        2.602844    3.433788   -5.338883
     69          1           0        3.211222    3.405129   -6.248873
     70          1           0        1.581173    3.195980   -5.657545
     71          7           0        2.613452    4.808769   -4.848655
     72          1           0        3.536608    5.210836   -4.736103
     73          7           0        2.026398    6.468147   -3.341697
     74          1           0        1.257453    6.874487   -2.823397
     75          1           0        2.465043    7.138965   -3.962283
     76          7           0        0.592903    4.657071   -3.574383
     77          1           0        0.512253    3.744934   -4.019627
     78          6           0        1.686987    5.254312   -3.922694
     79          8           0        5.290885   -0.496191   -5.159100
     80          1           0       -2.721600    2.692479    8.409013
     81          1           0        6.267283   -0.517614   -5.149454
 ---------------------------------------------------------------------

 SCF Done:  E(RB3LYP) =  -2053.94223239     A.U. after    1 cycles

 Alpha  occ. eigenvalues --  -19.29006 -19.28684 -19.25004 -19.23299 -19.23106
 Alpha  occ. eigenvalues --  -19.22599 -19.22333 -19.20961 -14.58633 -14.48264
 Alpha  occ. eigenvalues --  -14.45770 -14.44904 -14.44507 -14.43624 -14.42488
 Alpha  occ. eigenvalues --  -14.37549 -10.42197 -10.41685 -10.41218 -10.39617
 Alpha  occ. eigenvalues --  -10.39458 -10.37983 -10.37048 -10.34511 -10.33471
 Alpha  occ. eigenvalues --  -10.32816 -10.32492 -10.32060 -10.31646 -10.30689
 Alpha  occ. eigenvalues --  -10.30183 -10.29727 -10.29135 -10.28163 -10.27882
 Alpha  occ. eigenvalues --  -10.27633 -10.27466 -10.27297 -10.27275 -10.27038
 Alpha  occ. eigenvalues --  -10.26566 -10.25339  -1.19795  -1.19753  -1.17541
 Alpha  occ. eigenvalues --   -1.14586  -1.12797  -1.12597  -1.10890  -1.10863
 Alpha  occ. eigenvalues --   -1.09959  -1.06277  -1.05476  -1.04987  -1.02314
 Alpha  occ. eigenvalues --   -1.01552  -0.97172  -0.94032  -0.92840  -0.92495
 Alpha  occ. eigenvalues --   -0.90034  -0.88783  -0.86728  -0.85945  -0.84342
 Alpha  occ. eigenvalues --   -0.82976  -0.82214  -0.80715  -0.79217  -0.77989
 Alpha  occ. eigenvalues --   -0.76276  -0.75841  -0.72842  -0.71684  -0.71307
 Alpha  occ. eigenvalues --   -0.70869  -0.70776  -0.70255  -0.69837  -0.69352
 Alpha  occ. eigenvalues --   -0.67657  -0.67478  -0.66519  -0.65760  -0.65662
 Alpha  occ. eigenvalues --   -0.64114  -0.63539  -0.62876  -0.62225  -0.61705
 Alpha  occ. eigenvalues --   -0.60107  -0.59617  -0.58962  -0.58159  -0.58006
 Alpha  occ. eigenvalues --   -0.57920  -0.57424  -0.57117  -0.56843  -0.56582
 Alpha  occ. eigenvalues --   -0.56294  -0.55952  -0.55508  -0.54948  -0.54835
 Alpha  occ. eigenvalues --   -0.54059  -0.53644  -0.53506  -0.53448  -0.52522
 Alpha  occ. eigenvalues --   -0.52148  -0.51850  -0.51751  -0.51594  -0.50979
 Alpha  occ. eigenvalues --   -0.50775  -0.50227  -0.49938  -0.49797  -0.49337
 Alpha  occ. eigenvalues --   -0.49173  -0.48826  -0.48423  -0.48385  -0.48253
 Alpha  occ. eigenvalues --   -0.47508  -0.47322  -0.46513  -0.46318  -0.46129
 Alpha  occ. eigenvalues --   -0.46054  -0.45128  -0.44621  -0.44311  -0.43805
 Alpha  occ. eigenvalues --   -0.43189  -0.42538  -0.42446  -0.42028  -0.41046
 Alpha  occ. eigenvalues --   -0.40783  -0.40556  -0.39335  -0.38170  -0.37009
 Alpha  occ. eigenvalues --   -0.36871  -0.36665  -0.36537  -0.36339  -0.36100
 Alpha  occ. eigenvalues --   -0.35175  -0.34667  -0.33960  -0.33713  -0.31339
 Alpha  occ. eigenvalues --   -0.31032  -0.28738
 Alpha virt. eigenvalues --   -0.11777  -0.10307  -0.08931  -0.08354  -0.08228
 Alpha virt. eigenvalues --   -0.08153  -0.06899  -0.06413  -0.03719  -0.03382
 Alpha virt. eigenvalues --   -0.02880  -0.02442  -0.01729  -0.01589  -0.00801

 Mulliken charges:
               1
     1  N   -0.753450
     2  H    0.405687
     3  H    0.417301
     4  H    0.403289
     5  C   -0.122696
     6  H    0.210459
     7  C    0.669827
     8  C   -0.289446
     9  H    0.188682
    10  H    0.190500
    11  O   -0.544220
    12  C   -0.368996
    13  H    0.193099
    14  H    0.204163
    15  C    0.581926
    16  O   -0.428594
    17  O   -0.566193
    18  N   -0.615608
    19  H    0.373447
    20  C   -0.033643
    21  H    0.196630
    22  C    0.623307
    23  C   -0.404717
    24  H    0.191876
    25  H    0.179867
    26  O   -0.535484
    27  C    0.059528
    28  C   -0.000403
    29  H    0.165598
    30  C    0.081081
    31  C    0.314116
    32  C   -0.292943
    33  H    0.155531
    34  N   -0.695745
    35  H    0.383002
    36  C   -0.153069
    37  H    0.144794
    38  C   -0.154713
    39  H    0.149202
    40  C   -0.188390
    41  H    0.136825
    42  N   -0.625642
    43  H    0.365066
    44  C   -0.094141
    45  H    0.191737
    46  C    0.651912
    47  C    0.132340
    48  H    0.151826
    49  O   -0.548041
    50  C   -0.468288
    51  H    0.166357
    52  H    0.178901
    53  H    0.144593
    54  O   -0.613406
    55  H    0.395890
    56  N   -0.626830
    57  H    0.363801
    58  C   -0.025576
    59  H    0.208602
    60  C    0.586443
    61  C   -0.289180
    62  H    0.178677
    63  H    0.172463
    64  O   -0.466462
    65  C   -0.276238
    66  H    0.158062
    67  H    0.147452
    68  C   -0.170544
    69  H    0.170528
    70  H    0.167399
    71  N   -0.587801
    72  H    0.331031
    73  N   -0.746676
    74  H    0.339874
    75  H    0.335349
    76  N   -0.707753
    77  H    0.296612
    78  C    0.640206
    79  O   -0.558056
    80  H    0.428698
    81  H    0.429387
 Sum of Mulliken charges =   1.00000

 Dipole moment (field-independent basis, Debye):
    X=             -6.6548    Y=             16.6915    Z=              2.7668  Tot=             18.1809
 Quadrupole moment (field-independent basis, Debye-Ang):
   XX=           -145.7405   YY=           -157.4316   ZZ=           -156.5109
   XY=            -35.6689   XZ=            -90.7662   YZ=             13.4755

 Normal termination of Gaussian 16 at Thu May 26 18:08:05 2022.
