 Gaussian 16, Revision C.01,
 Gaussian 16:  ES64L-G16RevC.01  3-Jul-2019

 -------------------------------------------------------------------
 # B3LYP/6-31G* guess=read geom=check nosymm integral(ultrafinegrid)
 -------------------------------------------------------------------

 ------------------------------------------------------
 Candidate Structure: Conf:797 Charge calc in gas phase
 ------------------------------------------------------
 Structure from the checkpoint file:  "conf-797.chk"
 Charge =  1 Multiplicity = 1

                          Input orientation:
 ---------------------------------------------------------------------
 Center     Atomic      Atomic             Coordinates (Angstroms)
 Number     Number       Type             X           Y           Z
 ---------------------------------------------------------------------
      1          7           0       -5.768425    0.478480    2.867333
      2          1           0       -6.106159    1.260982    2.268699
      3          1           0       -5.822159   -0.397349    2.304797
      4          1           0       -6.352512    0.409792    3.705698
      5          6           0       -4.293921    0.627020    3.181120
      6          1           0       -4.095392    1.693715    3.311443
      7          6           0       -3.636854    0.053470    1.901444
      8          6           0       -3.957198   -0.177675    4.441400
      9          1           0       -4.594166    0.157015    5.269185
     10          1           0       -4.190687   -1.234073    4.266207
     11          8           0       -4.191448   -0.913784    1.372758
     12          6           0       -2.492116   -0.039715    4.867977
     13          1           0       -2.206603    1.012692    4.999068
     14          1           0       -1.802281   -0.454081    4.124001
     15          6           0       -2.258180   -0.752080    6.190668
     16          8           0       -3.124411   -1.287457    6.844735
     17          8           0       -0.961888   -0.703210    6.544722
     18          7           0       -2.544686    0.681262    1.459798
     19          1           0       -2.087789    1.418282    1.994540
     20          6           0       -1.842465    0.362870    0.220445
     21          1           0       -1.965144   -0.704103    0.016974
     22          6           0       -0.371280    0.728527    0.490445
     23          6           0       -2.397143    1.197857   -0.977354
     24          1           0       -1.826646    0.913378   -1.869203
     25          1           0       -2.169408    2.253490   -0.784265
     26          8           0       -0.114758    1.611542    1.320691
     27          6           0       -3.867284    1.004393   -1.215141
     28          6           0       -4.439077    0.078563   -2.053476
     29          1           0       -3.967091   -0.612995   -2.738431
     30          6           0       -4.960603    1.658944   -0.537412
     31          6           0       -6.167203    1.051801   -0.998701
     32          6           0       -5.051456    2.689406    0.416326
     33          1           0       -4.159046    3.210737    0.753085
     34          7           0       -5.811408    0.101329   -1.925898
     35          1           0       -6.452451   -0.466026   -2.460555
     36          6           0       -7.483358    2.417832    0.453942
     37          1           0       -8.447869    2.737721    0.837470
     38          6           0       -7.427217    1.416210   -0.510958
     39          1           0       -8.333394    0.941445   -0.876658
     40          6           0       -6.304957    3.056764    0.910233
     41          1           0       -6.385461    3.880012    1.615714
     42          7           0        0.541004    0.086079   -0.248641
     43          1           0        0.289906   -0.657908   -0.894563
     44          6           0        1.975884    0.303561   -0.132626
     45          1           0        2.151661    1.376542    0.005684
     46          6           0        2.567737   -0.194412   -1.464395
     47          6           0        2.573910   -0.474068    1.094211
     48          1           0        2.604708   -1.537894    0.830655
     49          8           0        1.984199   -1.073340   -2.099222
     50          6           0        3.976522    0.011118    1.464295
     51          1           0        4.709988   -0.154495    0.669025
     52          1           0        4.313763   -0.529453    2.353051
     53          1           0        3.965796    1.081925    1.707967
     54          8           0        1.694510   -0.403920    2.205053
     55          1           0        1.476905    0.532258    2.357966
     56          7           0        3.725830    0.380979   -1.861607
     57          1           0        4.213371    1.006748   -1.230115
     58          6           0        4.535161   -0.148510   -2.954153
     59          1           0        4.177899   -1.160212   -3.171253
     60          6           0        5.974512   -0.226426   -2.451385
     61          6           0        4.461452    0.706838   -4.241774
     62          1           0        5.182590    0.288571   -4.953737
     63          1           0        4.797237    1.724407   -4.011669
     64          8           0        6.365960    0.273158   -1.417056
     65          6           0        3.065637    0.731886   -4.875441
     66          1           0        2.767418   -0.290643   -5.143910
     67          1           0        2.328787    1.080381   -4.139798
     68          6           0        2.960199    1.615613   -6.134422
     69          1           0        3.722322    1.334523   -6.869585
     70          1           0        1.992533    1.423315   -6.614066
     71          7           0        3.063594    3.047559   -5.906590
     72          1           0        2.353810    3.440076   -5.300410
     73          7           0        4.066380    5.088240   -5.503193
     74          1           0        4.929275    5.609463   -5.619753
     75          1           0        3.300955    5.546784   -5.988951
     76          7           0        5.446327    3.356366   -6.195518
     77          1           0        5.482012    2.350540   -6.356861
     78          6           0        4.262618    3.757003   -5.902210
     79          8           0        6.766766   -0.890828   -3.307802
     80          1           0       -0.875685   -1.171422    7.397551
     81          1           0        7.672905   -0.866891   -2.943748
 ---------------------------------------------------------------------

 SCF Done:  E(RB3LYP) =  -2053.92771141     A.U. after    1 cycles

 Alpha  occ. eigenvalues --  -19.28898 -19.27812 -19.25499 -19.23566 -19.22424
 Alpha  occ. eigenvalues --  -19.22407 -19.21680 -19.20923 -14.59016 -14.49263
 Alpha  occ. eigenvalues --  -14.48628 -14.46286 -14.45100 -14.40464 -14.38505
 Alpha  occ. eigenvalues --  -14.33086 -10.42833 -10.42014 -10.40358 -10.40010
 Alpha  occ. eigenvalues --  -10.39593 -10.38184 -10.35069 -10.33310 -10.33034
 Alpha  occ. eigenvalues --  -10.32825 -10.32607 -10.32465 -10.32294 -10.32033
 Alpha  occ. eigenvalues --  -10.31965 -10.30664 -10.30285 -10.30164 -10.29905
 Alpha  occ. eigenvalues --  -10.29826 -10.29642 -10.28891 -10.28539 -10.26350
 Alpha  occ. eigenvalues --  -10.25577 -10.24889  -1.20005  -1.18891  -1.18135
 Alpha  occ. eigenvalues --   -1.14512  -1.13061  -1.12805  -1.11186  -1.09975
 Alpha  occ. eigenvalues --   -1.09410  -1.08665  -1.05759  -1.02632  -1.02375
 Alpha  occ. eigenvalues --   -1.01584  -0.95209  -0.94214  -0.93788  -0.91492
 Alpha  occ. eigenvalues --   -0.88644  -0.88598  -0.87710  -0.85979  -0.85128
 Alpha  occ. eigenvalues --   -0.84599  -0.82854  -0.81666  -0.79488  -0.79095
 Alpha  occ. eigenvalues --   -0.76625  -0.74526  -0.73359  -0.73111  -0.72081
 Alpha  occ. eigenvalues --   -0.71787  -0.70700  -0.70193  -0.69832  -0.68692
 Alpha  occ. eigenvalues --   -0.68313  -0.67558  -0.67221  -0.67002  -0.65593
 Alpha  occ. eigenvalues --   -0.64617  -0.63136  -0.63033  -0.62257  -0.60257
 Alpha  occ. eigenvalues --   -0.60209  -0.59468  -0.59127  -0.58760  -0.58381
 Alpha  occ. eigenvalues --   -0.58263  -0.57764  -0.57405  -0.57292  -0.56874
 Alpha  occ. eigenvalues --   -0.56353  -0.56036  -0.55305  -0.54949  -0.54780
 Alpha  occ. eigenvalues --   -0.54369  -0.54107  -0.53761  -0.52903  -0.52687
 Alpha  occ. eigenvalues --   -0.52148  -0.51867  -0.51675  -0.51604  -0.51015
 Alpha  occ. eigenvalues --   -0.50791  -0.50298  -0.50121  -0.49856  -0.49595
 Alpha  occ. eigenvalues --   -0.49079  -0.48498  -0.48381  -0.48020  -0.47894
 Alpha  occ. eigenvalues --   -0.47584  -0.47542  -0.46814  -0.46273  -0.46106
 Alpha  occ. eigenvalues --   -0.45825  -0.45054  -0.44796  -0.44434  -0.44361
 Alpha  occ. eigenvalues --   -0.43970  -0.41933  -0.41267  -0.41207  -0.41035
 Alpha  occ. eigenvalues --   -0.41018  -0.40120  -0.39781  -0.39196  -0.38297
 Alpha  occ. eigenvalues --   -0.37303  -0.36987  -0.36273  -0.35849  -0.35168
 Alpha  occ. eigenvalues --   -0.34520  -0.33706  -0.33545  -0.31022  -0.30820
 Alpha  occ. eigenvalues --   -0.30730  -0.27435
 Alpha virt. eigenvalues --   -0.12574  -0.12166  -0.09603  -0.08916  -0.08578
 Alpha virt. eigenvalues --   -0.08198  -0.07252  -0.06775  -0.05003  -0.03639
 Alpha virt. eigenvalues --   -0.03445  -0.01561  -0.01542  -0.01066  -0.00170

 Mulliken charges:
               1
     1  N   -0.760060
     2  H    0.419857
     3  H    0.421955
     4  H    0.405662
     5  C   -0.115234
     6  H    0.197265
     7  C    0.668544
     8  C   -0.281794
     9  H    0.184912
    10  H    0.198835
    11  O   -0.536044
    12  C   -0.383400
    13  H    0.192072
    14  H    0.213040
    15  C    0.596221
    16  O   -0.447969
    17  O   -0.554586
    18  N   -0.605242
    19  H    0.363919
    20  C   -0.060974
    21  H    0.193899
    22  C    0.658647
    23  C   -0.361768
    24  H    0.172928
    25  H    0.173195
    26  O   -0.573466
    27  C    0.082732
    28  C    0.027494
    29  H    0.176867
    30  C    0.075910
    31  C    0.324552
    32  C   -0.238669
    33  H    0.142754
    34  N   -0.681923
    35  H    0.349063
    36  C   -0.172763
    37  H    0.157776
    38  C   -0.162793
    39  H    0.157582
    40  C   -0.217190
    41  H    0.152428
    42  N   -0.602818
    43  H    0.360635
    44  C   -0.098209
    45  H    0.173942
    46  C    0.617793
    47  C    0.158070
    48  H    0.154922
    49  O   -0.536682
    50  C   -0.488820
    51  H    0.171981
    52  H    0.181361
    53  H    0.145307
    54  O   -0.629501
    55  H    0.404952
    56  N   -0.597179
    57  H    0.357273
    58  C   -0.062370
    59  H    0.206945
    60  C    0.593890
    61  C   -0.279683
    62  H    0.170024
    63  H    0.174741
    64  O   -0.463914
    65  C   -0.255199
    66  H    0.151544
    67  H    0.134331
    68  C   -0.155386
    69  H    0.162584
    70  H    0.154484
    71  N   -0.589784
    72  H    0.315409
    73  N   -0.753281
    74  H    0.340146
    75  H    0.318797
    76  N   -0.642181
    77  H    0.272508
    78  C    0.574251
    79  O   -0.553621
    80  H    0.429257
    81  H    0.429250
 Sum of Mulliken charges =   1.00000

 Dipole moment (field-independent basis, Debye):
    X=            -17.6749    Y=              3.3016    Z=              4.5385  Tot=             18.5445
 Quadrupole moment (field-independent basis, Debye-Ang):
   XX=            -98.1162   YY=           -234.9120   ZZ=           -184.4931
   XY=            -27.3682   XZ=            -32.8375   YZ=             11.9449

 Normal termination of Gaussian 16 at Thu May 26 18:08:02 2022.
