 Gaussian 16, Revision C.01,
 Gaussian 16:  ES64L-G16RevC.01  3-Jul-2019

 -------------------------------------------------------------------
 # B3LYP/6-31G* guess=read geom=check nosymm integral(ultrafinegrid)
 -------------------------------------------------------------------

 ------------------------------------------------------
 Candidate Structure: Conf:123 Charge calc in gas phase
 ------------------------------------------------------
 Structure from the checkpoint file:  "conf-123.chk"
 Charge =  1 Multiplicity = 1

                          Input orientation:
 ---------------------------------------------------------------------
 Center     Atomic      Atomic             Coordinates (Angstroms)
 Number     Number       Type             X           Y           Z
 ---------------------------------------------------------------------
      1          7           0       -4.762527    3.142305    1.091915
      2          1           0       -5.168430    3.084348    0.135427
      3          1           0       -5.001308    2.262386    1.599626
      4          1           0       -5.139036    3.959997    1.578932
      5          6           0       -3.248614    3.118325    1.029914
      6          1           0       -2.938756    3.666693    0.138193
      7          6           0       -2.958867    1.606494    0.915316
      8          6           0       -2.659496    3.716747    2.314782
      9          1           0       -3.015207    4.750846    2.421988
     10          1           0       -3.027306    3.150356    3.176825
     11          8           0       -3.676023    0.846470    1.578245
     12          6           0       -1.121128    3.700644    2.296601
     13          1           0       -0.726699    4.230902    1.424245
     14          1           0       -0.750458    2.668414    2.230551
     15          6           0       -0.481728    4.329478    3.520075
     16          8           0        0.565196    4.932324    3.511786
     17          8           0       -1.204833    4.114166    4.646343
     18          7           0       -1.963964    1.273963    0.097000
     19          1           0       -1.516524    2.011255   -0.480503
     20          6           0       -1.613841   -0.109489   -0.185847
     21          1           0       -2.082266   -0.714361    0.598433
     22          6           0       -0.089908   -0.268731    0.021793
     23          6           0       -2.207950   -0.555175   -1.553105
     24          1           0       -1.911318   -1.593082   -1.744670
     25          1           0       -1.773903    0.053400   -2.356936
     26          8           0        0.479537    0.362766    0.914355
     27          6           0       -3.712174   -0.483221   -1.577147
     28          6           0       -4.554262   -1.535844   -1.311774
     29          1           0       -4.316095   -2.573552   -1.119920
     30          6           0       -4.561081    0.671375   -1.765086
     31          6           0       -5.906759    0.237351   -1.569240
     32          6           0       -4.333851    2.026407   -2.074705
     33          1           0       -3.329821    2.395992   -2.268656
     34          7           0       -5.864870   -1.110752   -1.303262
     35          1           0       -6.666964   -1.705928   -1.159243
     36          6           0       -6.742253    2.448200   -1.908988
     37          1           0       -7.569827    3.147783   -1.984101
     38          6           0       -6.999190    1.109770   -1.632675
     39          1           0       -8.014229    0.754562   -1.478176
     40          6           0       -5.420443    2.901798   -2.134941
     41          1           0       -5.256131    3.939953   -2.414540
     42          7           0        0.548742   -1.173231   -0.753834
     43          1           0        0.118007   -1.610476   -1.560349
     44          6           0        1.911784   -1.621908   -0.481117
     45          1           0        2.048197   -1.636553    0.605338
     46          6           0        2.962782   -0.669177   -1.096822
     47          6           0        2.079982   -3.040438   -1.075714
     48          1           0        3.144369   -3.301063   -1.005892
     49          8           0        3.532284   -0.935319   -2.159216
     50          6           0        1.256518   -4.096870   -0.351562
     51          1           0        1.567619   -4.184851    0.694774
     52          1           0        1.398638   -5.064534   -0.840330
     53          1           0        0.187769   -3.858697   -0.375844
     54          8           0        1.667856   -3.011633   -2.440034
     55          1           0        2.331441   -2.448100   -2.884592
     56          7           0        3.215871    0.450584   -0.374036
     57          1           0        2.665415    0.592997    0.468191
     58          6           0        4.385924    1.283689   -0.621172
     59          1           0        4.991557    0.728479   -1.348570
     60          6           0        5.257691    1.422730    0.633770
     61          6           0        4.098394    2.680729   -1.206593
     62          1           0        5.057138    3.206077   -1.215792
     63          1           0        3.447183    3.237584   -0.520402
     64          8           0        6.147022    2.233782    0.744193
     65          6           0        3.498258    2.668955   -2.625930
     66          1           0        3.850975    3.553060   -3.175077
     67          1           0        3.864916    1.800793   -3.184852
     68          6           0        1.966856    2.647690   -2.683852
     69          1           0        1.640958    2.528418   -3.727830
     70          1           0        1.578769    1.799065   -2.112739
     71          7           0        1.408435    3.866845   -2.101680
     72          1           0        1.949174    4.713417   -2.222730
     73          7           0       -0.184146    5.140541   -0.981874
     74          1           0       -1.099808    5.523764   -1.171543
     75          1           0        0.540625    5.838276   -0.878626
     76          7           0       -0.827103    3.096091   -1.849431
     77          1           0       -0.525221    2.386386   -2.516073
     78          6           0        0.112782    3.987048   -1.693179
     79          8           0        4.944886    0.529321    1.598795
     80          1           0       -0.704397    4.519615    5.380533
     81          1           0        5.570538    0.690391    2.331510
 ---------------------------------------------------------------------

 SCF Done:  E(RB3LYP) =  -2053.94481702     A.U. after    1 cycles

 Alpha  occ. eigenvalues --  -19.28177 -19.27680 -19.23745 -19.22194 -19.21651
 Alpha  occ. eigenvalues --  -19.21612 -19.21504 -19.20917 -14.57925 -14.47777
 Alpha  occ. eigenvalues --  -14.46663 -14.46083 -14.46001 -14.45541 -14.44609
 Alpha  occ. eigenvalues --  -14.39701 -10.40767 -10.40749 -10.39964 -10.39750
 Alpha  occ. eigenvalues --  -10.38858 -10.38239 -10.37666 -10.33865 -10.32274
 Alpha  occ. eigenvalues --  -10.32265 -10.32090 -10.31938 -10.31879 -10.31760
 Alpha  occ. eigenvalues --  -10.31667 -10.30295 -10.29841 -10.29164 -10.28956
 Alpha  occ. eigenvalues --  -10.28944 -10.28801 -10.28718 -10.28227 -10.27817
 Alpha  occ. eigenvalues --  -10.27196 -10.25082  -1.18908  -1.18497  -1.16386
 Alpha  occ. eigenvalues --   -1.13552  -1.12470  -1.11710  -1.09913  -1.09422
 Alpha  occ. eigenvalues --   -1.09187  -1.08765  -1.07825  -1.03956  -1.02078
 Alpha  occ. eigenvalues --   -1.01083  -0.99554  -0.95004  -0.94145  -0.92877
 Alpha  occ. eigenvalues --   -0.90593  -0.88604  -0.87200  -0.85416  -0.84194
 Alpha  occ. eigenvalues --   -0.83639  -0.83463  -0.81825  -0.79169  -0.77731
 Alpha  occ. eigenvalues --   -0.76760  -0.75497  -0.72338  -0.71801  -0.71115
 Alpha  occ. eigenvalues --   -0.70556  -0.70313  -0.70056  -0.69325  -0.68974
 Alpha  occ. eigenvalues --   -0.68759  -0.68296  -0.67483  -0.66932  -0.66021
 Alpha  occ. eigenvalues --   -0.65872  -0.64168  -0.63502  -0.62088  -0.61548
 Alpha  occ. eigenvalues --   -0.61163  -0.60429  -0.59212  -0.58633  -0.58210
 Alpha  occ. eigenvalues --   -0.57954  -0.57678  -0.57424  -0.57135  -0.56435
 Alpha  occ. eigenvalues --   -0.56118  -0.55719  -0.55358  -0.55066  -0.54878
 Alpha  occ. eigenvalues --   -0.54452  -0.54145  -0.53535  -0.53064  -0.52839
 Alpha  occ. eigenvalues --   -0.52425  -0.52236  -0.51934  -0.51575  -0.51063
 Alpha  occ. eigenvalues --   -0.50803  -0.50272  -0.49895  -0.49715  -0.49302
 Alpha  occ. eigenvalues --   -0.48878  -0.48371  -0.48183  -0.48068  -0.47846
 Alpha  occ. eigenvalues --   -0.47444  -0.46983  -0.46786  -0.46249  -0.45916
 Alpha  occ. eigenvalues --   -0.45798  -0.45558  -0.45063  -0.44234  -0.43826
 Alpha  occ. eigenvalues --   -0.43583  -0.43501  -0.43106  -0.42905  -0.40978
 Alpha  occ. eigenvalues --   -0.40159  -0.39509  -0.38884  -0.38270  -0.37699
 Alpha  occ. eigenvalues --   -0.37339  -0.36848  -0.36692  -0.36088  -0.35814
 Alpha  occ. eigenvalues --   -0.35522  -0.34904  -0.33533  -0.33137  -0.32902
 Alpha  occ. eigenvalues --   -0.32753  -0.30178
 Alpha virt. eigenvalues --   -0.11538  -0.10324  -0.08842  -0.08193  -0.07816
 Alpha virt. eigenvalues --   -0.07260  -0.06927  -0.06803  -0.06388  -0.04510
 Alpha virt. eigenvalues --   -0.03537  -0.02133  -0.01720  -0.01311  -0.00816

 Mulliken charges:
               1
     1  N   -0.760549
     2  H    0.417098
     3  H    0.418975
     4  H    0.399905
     5  C   -0.118075
     6  H    0.206503
     7  C    0.650484
     8  C   -0.288639
     9  H    0.160532
    10  H    0.200783
    11  O   -0.552329
    12  C   -0.397529
    13  H    0.208519
    14  H    0.227491
    15  C    0.580088
    16  O   -0.447038
    17  O   -0.564783
    18  N   -0.604802
    19  H    0.414939
    20  C   -0.072161
    21  H    0.216923
    22  C    0.629381
    23  C   -0.386657
    24  H    0.166059
    25  H    0.161665
    26  O   -0.538879
    27  C    0.072374
    28  C    0.026567
    29  H    0.173472
    30  C    0.075880
    31  C    0.322247
    32  C   -0.249890
    33  H    0.177352
    34  N   -0.681382
    35  H    0.347148
    36  C   -0.164986
    37  H    0.151578
    38  C   -0.161681
    39  H    0.153216
    40  C   -0.228076
    41  H    0.142323
    42  N   -0.624632
    43  H    0.361568
    44  C   -0.068494
    45  H    0.184014
    46  C    0.625430
    47  C    0.103363
    48  H    0.156478
    49  O   -0.539532
    50  C   -0.449536
    51  H    0.155571
    52  H    0.181567
    53  H    0.138421
    54  O   -0.646936
    55  H    0.422146
    56  N   -0.605090
    57  H    0.369322
    58  C   -0.070094
    59  H    0.220435
    60  C    0.593302
    61  C   -0.270115
    62  H    0.190576
    63  H    0.149983
    64  O   -0.447193
    65  C   -0.315633
    66  H    0.151449
    67  H    0.184807
    68  C   -0.134304
    69  H    0.162214
    70  H    0.170170
    71  N   -0.597300
    72  H    0.331937
    73  N   -0.750281
    74  H    0.342445
    75  H    0.341816
    76  N   -0.751066
    77  H    0.304154
    78  C    0.665575
    79  O   -0.568503
    80  H    0.423430
    81  H    0.424489
 Sum of Mulliken charges =   1.00000

 Dipole moment (field-independent basis, Debye):
    X=            -13.9691    Y=             11.9729    Z=             -0.1166  Tot=             18.3984
 Quadrupole moment (field-independent basis, Debye-Ang):
   XX=           -140.5641   YY=           -162.8153   ZZ=           -224.4861
   XY=            -35.2305   XZ=             -7.0680   YZ=             -4.4233

 Normal termination of Gaussian 16 at Thu May 26 18:08:07 2022.
