 Gaussian 16, Revision C.01,
 Gaussian 16:  ES64L-G16RevC.01  3-Jul-2019

 -------------------------------------------------------------------
 # B3LYP/6-31G* guess=read geom=check nosymm integral(ultrafinegrid)
 -------------------------------------------------------------------

 ------------------------------------------------------
 Candidate Structure: Conf:553 Charge calc in gas phase
 ------------------------------------------------------
 Structure from the checkpoint file:  "conf-553.chk"
 Charge =  1 Multiplicity = 1

                          Input orientation:
 ---------------------------------------------------------------------
 Center     Atomic      Atomic             Coordinates (Angstroms)
 Number     Number       Type             X           Y           Z
 ---------------------------------------------------------------------
      1          7           0       -5.052715   -0.515190    0.610097
      2          1           0       -5.581732    0.369945    0.459410
      3          1           0       -4.572600   -0.764760   -0.278773
      4          1           0       -5.720760   -1.244746    0.873803
      5          6           0       -3.942582   -0.338421    1.635453
      6          1           0       -4.285048    0.459829    2.295389
      7          6           0       -2.762525    0.148465    0.749204
      8          6           0       -3.723744   -1.635039    2.451384
      9          1           0       -3.315151   -1.329677    3.417756
     10          1           0       -4.710861   -2.066992    2.663337
     11          8           0       -2.708366   -0.298817   -0.406289
     12          6           0       -2.793257   -2.705459    1.862211
     13          1           0       -2.953062   -2.882746    0.792330
     14          1           0       -2.972372   -3.666794    2.357070
     15          6           0       -1.334394   -2.326720    2.070620
     16          8           0       -1.019288   -1.278775    2.628199
     17          8           0       -0.476822   -3.199621    1.590906
     18          7           0       -1.926174    1.057217    1.263043
     19          1           0       -2.033715    1.310211    2.237707
     20          6           0       -1.023186    1.867965    0.441946
     21          1           0       -1.087214    1.430674   -0.559656
     22          6           0        0.473396    1.745585    0.790357
     23          6           0       -1.553060    3.322910    0.339213
     24          1           0       -0.782105    3.914195   -0.161514
     25          1           0       -1.673170    3.752822    1.341462
     26          8           0        1.233298    2.668462    0.501342
     27          6           0       -2.842424    3.304824   -0.437237
     28          6           0       -2.921757    3.191261   -1.805006
     29          1           0       -2.135565    3.263953   -2.544288
     30          6           0       -4.174825    3.054112    0.054549
     31          6           0       -4.989201    2.754720   -1.083692
     32          6           0       -4.763129    3.021281    1.333374
     33          1           0       -4.191743    3.309766    2.212934
     34          7           0       -4.205884    2.896245   -2.205222
     35          1           0       -4.364341    2.420011   -3.093513
     36          6           0       -6.864811    2.279913    0.329102
     37          1           0       -7.907962    2.003136    0.455360
     38          6           0       -6.324957    2.355585   -0.957470
     39          1           0       -6.927542    2.126931   -1.832178
     40          6           0       -6.094184    2.630907    1.464309
     41          1           0       -6.561079    2.623683    2.445566
     42          7           0        0.896922    0.533238    1.226868
     43          1           0        0.228961   -0.169461    1.535461
     44          6           0        2.319575    0.175685    1.215541
     45          1           0        2.886516    1.050000    1.553227
     46          6           0        2.749982   -0.165067   -0.241016
     47          6           0        2.634595   -1.012468    2.150547
     48          1           0        3.720293   -1.165123    2.086169
     49          8           0        2.946116   -1.334641   -0.607485
     50          6           0        2.253664   -0.783999    3.605168
     51          1           0        2.756252    0.107385    3.995028
     52          1           0        2.570600   -1.644983    4.200856
     53          1           0        1.174435   -0.662651    3.723588
     54          8           0        1.999159   -2.214903    1.677558
     55          1           0        2.344266   -2.310878    0.756675
     56          7           0        2.857835    0.889808   -1.068144
     57          1           0        2.707180    1.827515   -0.697949
     58          6           0        3.236739    0.784267   -2.470876
     59          1           0        3.867530   -0.101895   -2.591172
     60          6           0        4.063270    2.023833   -2.805146
     61          6           0        2.020443    0.684063   -3.430529
     62          1           0        2.360887    0.944072   -4.439869
     63          1           0        1.282957    1.440609   -3.135958
     64          8           0        4.106516    3.024982   -2.127054
     65          6           0        1.373857   -0.707901   -3.474975
     66          1           0        2.097628   -1.426887   -3.877656
     67          1           0        1.136516   -1.062874   -2.464900
     68          6           0        0.111103   -0.755467   -4.348861
     69          1           0        0.290745   -0.187286   -5.267355
     70          1           0       -0.093022   -1.798697   -4.638508
     71          7           0       -1.035642   -0.159574   -3.661905
     72          1           0       -1.202807   -0.529376   -2.733210
     73          7           0       -2.109306    0.528827   -5.639630
     74          1           0       -3.013543    0.758141   -6.033792
     75          1           0       -1.602217   -0.145056   -6.198289
     76          7           0       -3.295810    0.570475   -3.652139
     77          1           0       -3.161934    0.425176   -2.649875
     78          6           0       -2.197201    0.284910   -4.278781
     79          8           0        4.717597    1.876067   -3.973148
     80          1           0        0.459729   -2.846170    1.734788
     81          1           0        5.200160    2.708946   -4.138499
 ---------------------------------------------------------------------

 SCF Done:  E(RB3LYP) =  -2053.94977938     A.U. after    1 cycles

 Alpha  occ. eigenvalues --  -19.28527 -19.27967 -19.27420 -19.24951 -19.24248
 Alpha  occ. eigenvalues --  -19.22427 -19.21878 -19.21726 -14.59545 -14.50615
 Alpha  occ. eigenvalues --  -14.46481 -14.46014 -14.44954 -14.43668 -14.42456
 Alpha  occ. eigenvalues --  -14.36607 -10.44427 -10.43247 -10.40834 -10.40468
 Alpha  occ. eigenvalues --  -10.39308 -10.38530 -10.36794 -10.35051 -10.34461
 Alpha  occ. eigenvalues --  -10.33599 -10.33017 -10.32615 -10.32609 -10.32194
 Alpha  occ. eigenvalues --  -10.31133 -10.31013 -10.29955 -10.29666 -10.29616
 Alpha  occ. eigenvalues --  -10.29584 -10.29398 -10.29136 -10.27999 -10.27783
 Alpha  occ. eigenvalues --  -10.27435 -10.25821  -1.20806  -1.19465  -1.18974
 Alpha  occ. eigenvalues --   -1.14253  -1.13715  -1.13337  -1.11931  -1.10710
 Alpha  occ. eigenvalues --   -1.10093  -1.07393  -1.07029  -1.05927  -1.02416
 Alpha  occ. eigenvalues --   -1.01398  -0.97113  -0.94729  -0.94484  -0.92538
 Alpha  occ. eigenvalues --   -0.91170  -0.88867  -0.88091  -0.86810  -0.85523
 Alpha  occ. eigenvalues --   -0.83949  -0.83356  -0.82229  -0.79851  -0.79469
 Alpha  occ. eigenvalues --   -0.76371  -0.75595  -0.73863  -0.73062  -0.72383
 Alpha  occ. eigenvalues --   -0.72193  -0.71222  -0.70048  -0.69345  -0.69200
 Alpha  occ. eigenvalues --   -0.68873  -0.68728  -0.67900  -0.67133  -0.66975
 Alpha  occ. eigenvalues --   -0.65309  -0.63555  -0.63255  -0.63031  -0.62425
 Alpha  occ. eigenvalues --   -0.61546  -0.60904  -0.60804  -0.60538  -0.59035
 Alpha  occ. eigenvalues --   -0.59001  -0.58279  -0.57999  -0.57467  -0.57262
 Alpha  occ. eigenvalues --   -0.56961  -0.56146  -0.55911  -0.55607  -0.55303
 Alpha  occ. eigenvalues --   -0.54871  -0.54561  -0.54014  -0.53835  -0.53471
 Alpha  occ. eigenvalues --   -0.53240  -0.52940  -0.52363  -0.52112  -0.51995
 Alpha  occ. eigenvalues --   -0.51527  -0.51279  -0.51076  -0.50396  -0.50170
 Alpha  occ. eigenvalues --   -0.49845  -0.49325  -0.48912  -0.48672  -0.48198
 Alpha  occ. eigenvalues --   -0.48045  -0.47387  -0.47170  -0.46675  -0.46494
 Alpha  occ. eigenvalues --   -0.46323  -0.46109  -0.45524  -0.45233  -0.44431
 Alpha  occ. eigenvalues --   -0.44206  -0.43381  -0.43308  -0.43012  -0.42822
 Alpha  occ. eigenvalues --   -0.42275  -0.41605  -0.40311  -0.40024  -0.39050
 Alpha  occ. eigenvalues --   -0.38146  -0.37675  -0.37013  -0.36015  -0.35679
 Alpha  occ. eigenvalues --   -0.35485  -0.34736  -0.34026  -0.33740  -0.33066
 Alpha  occ. eigenvalues --   -0.30375  -0.30195
 Alpha virt. eigenvalues --   -0.13910  -0.12047  -0.10130  -0.09713  -0.09330
 Alpha virt. eigenvalues --   -0.08779  -0.07581  -0.06741  -0.06155  -0.05384
 Alpha virt. eigenvalues --   -0.04086  -0.03105  -0.02365  -0.01341  -0.00834

 Mulliken charges:
               1
     1  N   -0.766838
     2  H    0.429016
     3  H    0.424533
     4  H    0.401972
     5  C   -0.102320
     6  H    0.208042
     7  C    0.670366
     8  C   -0.293527
     9  H    0.213784
    10  H    0.164513
    11  O   -0.554001
    12  C   -0.375140
    13  H    0.191477
    14  H    0.215309
    15  C    0.607964
    16  O   -0.511588
    17  O   -0.576715
    18  N   -0.586040
    19  H    0.355479
    20  C   -0.087490
    21  H    0.216651
    22  C    0.622410
    23  C   -0.356510
    24  H    0.209291
    25  H    0.158920
    26  O   -0.526101
    27  C    0.048384
    28  C    0.009911
    29  H    0.180884
    30  C    0.069346
    31  C    0.300750
    32  C   -0.232744
    33  H    0.137266
    34  N   -0.647215
    35  H    0.368576
    36  C   -0.218671
    37  H    0.155110
    38  C   -0.186007
    39  H    0.163683
    40  C   -0.170696
    41  H    0.149731
    42  N   -0.643062
    43  H    0.395439
    44  C   -0.067972
    45  H    0.195626
    46  C    0.637742
    47  C    0.108667
    48  H    0.162676
    49  O   -0.565625
    50  C   -0.473252
    51  H    0.161110
    52  H    0.177374
    53  H    0.172081
    54  O   -0.685502
    55  H    0.443701
    56  N   -0.613793
    57  H    0.393106
    58  C   -0.044193
    59  H    0.205236
    60  C    0.578855
    61  C   -0.269778
    62  H    0.171662
    63  H    0.158550
    64  O   -0.448107
    65  C   -0.282308
    66  H    0.163452
    67  H    0.153135
    68  C   -0.147291
    69  H    0.166070
    70  H    0.153787
    71  N   -0.611099
    72  H    0.327805
    73  N   -0.741869
    74  H    0.344705
    75  H    0.335639
    76  N   -0.729289
    77  H    0.286682
    78  C    0.613578
    79  O   -0.560632
    80  H    0.468211
    81  H    0.427117
 Sum of Mulliken charges =   1.00000

 Dipole moment (field-independent basis, Debye):
    X=            -14.4813    Y=             -2.0415    Z=             -0.1947  Tot=             14.6258
 Quadrupole moment (field-independent basis, Debye-Ang):
   XX=           -135.1672   YY=           -243.7488   ZZ=           -184.8971
   XY=             15.0008   XZ=            -25.1831   YZ=             -4.9437

 Normal termination of Gaussian 16 at Thu May 26 18:08:12 2022.
