 Gaussian 16, Revision C.01,
 Gaussian 16:  ES64L-G16RevC.01  3-Jul-2019

 -------------------------------------------------------------------
 # B3LYP/6-31G* guess=read geom=check nosymm integral(ultrafinegrid)
 -------------------------------------------------------------------

 ------------------------------------------------------
 Candidate Structure: Conf:796 Charge calc in gas phase
 ------------------------------------------------------
 Structure from the checkpoint file:  "conf-796.chk"
 Charge =  1 Multiplicity = 1

                          Input orientation:
 ---------------------------------------------------------------------
 Center     Atomic      Atomic             Coordinates (Angstroms)
 Number     Number       Type             X           Y           Z
 ---------------------------------------------------------------------
      1          7           0       -5.087295    0.075099    1.734789
      2          1           0       -5.434031    1.030968    1.463234
      3          1           0       -4.991148   -0.465623    0.852958
      4          1           0       -5.757941   -0.374788    2.364016
      5          6           0       -3.684637    0.140034    2.307130
      6          1           0       -3.654161    1.000283    2.980860
      7          6           0       -2.835646    0.353103    1.030851
      8          6           0       -3.315073   -1.159290    3.034753
      9          1           0       -3.410763   -2.002973    2.342662
     10          1           0       -2.250506   -1.085551    3.287771
     11          8           0       -3.183027   -0.255712    0.022561
     12          6           0       -4.122659   -1.414291    4.321454
     13          1           0       -5.192298   -1.547707    4.102422
     14          1           0       -4.020646   -0.586014    5.027540
     15          6           0       -3.662066   -2.674838    5.043541
     16          8           0       -3.266058   -2.710783    6.180762
     17          8           0       -3.758357   -3.754042    4.233788
     18          7           0       -1.788026    1.206238    1.106998
     19          1           0       -1.679815    1.727343    1.970818
     20          6           0       -1.307403    1.883806   -0.109803
     21          1           0       -1.538226    1.202886   -0.933916
     22          6           0        0.216683    2.114723   -0.098388
     23          6           0       -2.069103    3.226572   -0.312321
     24          1           0       -1.743928    3.642540   -1.269857
     25          1           0       -1.738249    3.938289    0.453728
     26          8           0        0.700381    3.026939   -0.765761
     27          6           0       -3.559688    3.057117   -0.250314
     28          6           0       -4.345222    3.283134    0.842050
     29          1           0       -4.091655    3.735379    1.792789
     30          6           0       -4.427194    2.506724   -1.281234
     31          6           0       -5.726539    2.415257   -0.736317
     32          6           0       -4.212151    2.102478   -2.607620
     33          1           0       -3.223664    2.157823   -3.054391
     34          7           0       -5.662048    2.808213    0.623815
     35          1           0       -6.440643    3.331861    1.015859
     36          6           0       -6.585466    1.580610   -2.791339
     37          1           0       -7.414222    1.233103   -3.400547
     38          6           0       -6.819990    1.957230   -1.470407
     39          1           0       -7.817977    1.910917   -1.042460
     40          6           0       -5.295967    1.647176   -3.350340
     41          1           0       -5.149104    1.342685   -4.381968
     42          7           0        0.934385    1.249682    0.648232
     43          1           0        0.446028    0.612936    1.263808
     44          6           0        2.371939    1.397280    0.888882
     45          1           0        2.580604    2.466812    1.024686
     46          6           0        3.192913    0.862929   -0.315840
     47          6           0        2.728468    0.608473    2.170200
     48          1           0        2.673234   -0.455039    1.922557
     49          8           0        3.665299   -0.270778   -0.312101
     50          6           0        4.123637    0.934327    2.687117
     51          1           0        4.881232    0.679629    1.941377
     52          1           0        4.326435    0.356848    3.593808
     53          1           0        4.219187    2.002501    2.926647
     54          8           0        1.722581    0.814210    3.174429
     55          1           0        1.917684    1.660069    3.610559
     56          7           0        3.345898    1.744479   -1.329658
     57          1           0        2.870794    2.641458   -1.299173
     58          6           0        4.122779    1.424555   -2.517295
     59          1           0        4.980378    0.820280   -2.204232
     60          6           0        4.635352    2.736377   -3.094512
     61          6           0        3.336614    0.607881   -3.573992
     62          1           0        3.016304   -0.318840   -3.086130
     63          1           0        4.035229    0.319918   -4.366072
     64          8           0        4.245946    3.837360   -2.769840
     65          6           0        2.129100    1.346196   -4.166142
     66          1           0        1.475533    1.703816   -3.357979
     67          1           0        2.462166    2.246053   -4.704667
     68          6           0        1.284621    0.483887   -5.121470
     69          1           0        0.939493   -0.413159   -4.601051
     70          1           0        0.392646    1.049541   -5.420287
     71          7           0        1.972744    0.056294   -6.342207
     72          1           0        2.350348    0.828022   -6.880751
     73          7           0        2.307798   -2.161297   -5.666296
     74          1           0        2.891746   -2.973478   -5.837017
     75          1           0        1.330728   -2.365373   -5.853449
     76          7           0        3.907757   -1.190728   -7.032326
     77          1           0        4.223952   -0.291583   -7.401919
     78          6           0        2.800508   -1.071274   -6.394673
     79          8           0        5.563103    2.526863   -4.049366
     80          1           0       -3.452080   -4.528511    4.744854
     81          1           0        5.829422    3.405332   -4.381997
 ---------------------------------------------------------------------

 SCF Done:  E(RB3LYP) =  -2053.90060443     A.U. after    3 cycles

 Alpha  occ. eigenvalues --  -19.30562 -19.27729 -19.26405 -19.24884 -19.23886
 Alpha  occ. eigenvalues --  -19.21788 -19.20873 -19.18411 -14.60525 -14.51369
 Alpha  occ. eigenvalues --  -14.50838 -14.46130 -14.42517 -14.39822 -14.38434
 Alpha  occ. eigenvalues --  -14.32809 -10.44904 -10.43445 -10.42043 -10.39277
 Alpha  occ. eigenvalues --  -10.38814 -10.35943 -10.35813 -10.35355 -10.34361
 Alpha  occ. eigenvalues --  -10.34121 -10.33802 -10.32345 -10.32312 -10.31756
 Alpha  occ. eigenvalues --  -10.31399 -10.31167 -10.30326 -10.30253 -10.30209
 Alpha  occ. eigenvalues --  -10.29581 -10.29411 -10.28879 -10.27953 -10.25372
 Alpha  occ. eigenvalues --  -10.24767 -10.24684  -1.21399  -1.20305  -1.17411
 Alpha  occ. eigenvalues --   -1.14780  -1.13811  -1.12628  -1.11119  -1.10226
 Alpha  occ. eigenvalues --   -1.09658  -1.08448  -1.07815  -1.02151  -1.01878
 Alpha  occ. eigenvalues --   -0.99218  -0.95976  -0.95268  -0.93302  -0.92658
 Alpha  occ. eigenvalues --   -0.89701  -0.88568  -0.87379  -0.86295  -0.85132
 Alpha  occ. eigenvalues --   -0.84713  -0.83464  -0.80712  -0.79797  -0.79083
 Alpha  occ. eigenvalues --   -0.76729  -0.75147  -0.73812  -0.73306  -0.73190
 Alpha  occ. eigenvalues --   -0.72989  -0.72161  -0.71295  -0.70617  -0.69244
 Alpha  occ. eigenvalues --   -0.68081  -0.67780  -0.66744  -0.66039  -0.64852
 Alpha  occ. eigenvalues --   -0.64649  -0.64381  -0.63400  -0.62422  -0.61495
 Alpha  occ. eigenvalues --   -0.60923  -0.60078  -0.59653  -0.59267  -0.58863
 Alpha  occ. eigenvalues --   -0.58839  -0.58300  -0.58090  -0.57343  -0.56716
 Alpha  occ. eigenvalues --   -0.55806  -0.55523  -0.55263  -0.55063  -0.54368
 Alpha  occ. eigenvalues --   -0.54207  -0.54137  -0.53814  -0.52958  -0.52784
 Alpha  occ. eigenvalues --   -0.52464  -0.52334  -0.51952  -0.51738  -0.51371
 Alpha  occ. eigenvalues --   -0.50905  -0.50842  -0.50199  -0.50082  -0.49695
 Alpha  occ. eigenvalues --   -0.49620  -0.49163  -0.48736  -0.48513  -0.48166
 Alpha  occ. eigenvalues --   -0.47338  -0.46706  -0.46207  -0.46133  -0.45908
 Alpha  occ. eigenvalues --   -0.45351  -0.45064  -0.44745  -0.44486  -0.44052
 Alpha  occ. eigenvalues --   -0.42711  -0.42533  -0.42140  -0.41732  -0.41264
 Alpha  occ. eigenvalues --   -0.40980  -0.40442  -0.39483  -0.39205  -0.38504
 Alpha  occ. eigenvalues --   -0.38344  -0.37167  -0.36012  -0.35574  -0.34399
 Alpha  occ. eigenvalues --   -0.34315  -0.32933  -0.32158  -0.31536  -0.30865
 Alpha  occ. eigenvalues --   -0.30028  -0.27042
 Alpha virt. eigenvalues --   -0.14821  -0.13073  -0.11859  -0.10035  -0.09035
 Alpha virt. eigenvalues --   -0.08272  -0.07215  -0.06498  -0.05886  -0.05080
 Alpha virt. eigenvalues --   -0.04868  -0.03454  -0.03181  -0.03018  -0.01500

 Mulliken charges:
               1
     1  N   -0.770192
     2  H    0.443923
     3  H    0.426410
     4  H    0.404657
     5  C   -0.117129
     6  H    0.191546
     7  C    0.654549
     8  C   -0.296669
     9  H    0.212064
    10  H    0.209428
    11  O   -0.505374
    12  C   -0.365317
    13  H    0.163694
    14  H    0.197451
    15  C    0.579385
    16  O   -0.417669
    17  O   -0.559792
    18  N   -0.614655
    19  H    0.344003
    20  C   -0.088265
    21  H    0.229664
    22  C    0.636789
    23  C   -0.364473
    24  H    0.212719
    25  H    0.165566
    26  O   -0.529170
    27  C    0.111358
    28  C   -0.092873
    29  H    0.162098
    30  C    0.131904
    31  C    0.221284
    32  C   -0.197207
    33  H    0.151171
    34  N   -0.719483
    35  H    0.358245
    36  C   -0.141803
    37  H    0.160700
    38  C   -0.182289
    39  H    0.146108
    40  C   -0.131134
    41  H    0.159189
    42  N   -0.606406
    43  H    0.350594
    44  C   -0.063562
    45  H    0.163735
    46  C    0.635246
    47  C    0.103325
    48  H    0.183194
    49  O   -0.527068
    50  C   -0.485636
    51  H    0.192988
    52  H    0.177012
    53  H    0.140735
    54  O   -0.647533
    55  H    0.393031
    56  N   -0.614007
    57  H    0.375360
    58  C   -0.044065
    59  H    0.204040
    60  C    0.583782
    61  C   -0.272407
    62  H    0.179807
    63  H    0.180755
    64  O   -0.466428
    65  C   -0.281560
    66  H    0.139663
    67  H    0.138233
    68  C   -0.146338
    69  H    0.159911
    70  H    0.139713
    71  N   -0.582576
    72  H    0.310008
    73  N   -0.737318
    74  H    0.341153
    75  H    0.319132
    76  N   -0.627575
    77  H    0.264178
    78  C    0.552556
    79  O   -0.561047
    80  H    0.434207
    81  H    0.420754
 Sum of Mulliken charges =   1.00000

 Dipole moment (field-independent basis, Debye):
    X=            -21.5545    Y=              6.0440    Z=              7.8829  Tot=             23.7333
 Quadrupole moment (field-independent basis, Debye-Ang):
   XX=           -114.5942   YY=           -219.1676   ZZ=           -212.2039
   XY=              3.6743   XZ=            -25.7653   YZ=             -7.2622

 Normal termination of Gaussian 16 at Thu May 26 18:08:33 2022.
