 Gaussian 16, Revision C.01,
 Gaussian 16:  ES64L-G16RevC.01  3-Jul-2019

 -------------------------------------------------------------------
 # B3LYP/6-31G* guess=read geom=check nosymm integral(ultrafinegrid)
 -------------------------------------------------------------------

 ------------------------------------------------------
 Candidate Structure: Conf:617 Charge calc in gas phase
 ------------------------------------------------------
 Structure from the checkpoint file:  "conf-617.chk"
 Charge =  1 Multiplicity = 1

                          Input orientation:
 ---------------------------------------------------------------------
 Center     Atomic      Atomic             Coordinates (Angstroms)
 Number     Number       Type             X           Y           Z
 ---------------------------------------------------------------------
      1          7           0       -3.263216    3.757904    2.234447
      2          1           0       -1.491470    4.317456    1.499870
      3          1           0       -4.035498    3.713342    1.566806
      4          1           0       -3.519247    4.513416    2.871679
      5          6           0       -3.217533    2.500139    3.027350
      6          1           0       -2.564612    2.701669    3.883290
      7          6           0       -2.543058    1.327847    2.292269
      8          6           0       -4.585914    2.044859    3.585040
      9          1           0       -4.411355    1.218883    4.279492
     10          1           0       -5.017994    2.863155    4.172676
     11          8           0       -2.298606    0.293010    2.894661
     12          6           0       -5.576812    1.596002    2.506384
     13          1           0       -5.239081    0.675054    2.016194
     14          1           0       -5.687187    2.335971    1.701405
     15          6           0       -6.962737    1.343154    3.061000
     16          8           0       -7.290278    1.427349    4.220597
     17          8           0       -7.836245    1.004533    2.073279
     18          7           0       -2.269830    1.495214    0.961076
     19          1           0       -2.487117    2.378061    0.523743
     20          6           0       -1.736966    0.425747    0.146655
     21          1           0       -1.860607   -0.484868    0.741486
     22          6           0       -0.226611    0.613743   -0.103537
     23          6           0       -2.541409    0.284987   -1.183077
     24          1           0       -2.065007   -0.483942   -1.804638
     25          1           0       -2.455366    1.222440   -1.749803
     26          8           0        0.385779    1.658145    0.191033
     27          6           0       -3.981954   -0.046895   -0.940644
     28          6           0       -5.058804    0.794410   -1.091947
     29          1           0       -5.093775    1.809811   -1.465606
     30          6           0       -4.504767   -1.293389   -0.432507
     31          6           0       -5.908992   -1.128341   -0.291167
     32          6           0       -3.930656   -2.531720   -0.089669
     33          1           0       -2.862443   -2.702347   -0.200220
     34          7           0       -6.218634    0.148389   -0.718831
     35          1           0       -7.124213    0.582225   -0.621398
     36          6           0       -6.139354   -3.352134    0.531796
     37          1           0       -6.752985   -4.164105    0.910573
     38          6           0       -6.738291   -2.145473    0.194066
     39          1           0       -7.809102   -1.997515    0.300055
     40          6           0       -4.749574   -3.545583    0.387099
     41          1           0       -4.316909   -4.505051    0.654386
     42          7           0        0.407578   -0.436122   -0.648320
     43          1           0       -0.116785   -1.207694   -1.049016
     44          6           0        1.831648   -0.452771   -0.951627
     45          1           0        2.398356   -0.301080   -0.026479
     46          6           0        2.193788    0.619832   -1.989918
     47          6           0        2.157539   -1.848892   -1.568655
     48          1           0        3.155734   -1.781111   -2.027040
     49          8           0        1.605640    0.668596   -3.074001
     50          6           0        2.158894   -2.970271   -0.537630
     51          1           0        2.953354   -2.818472    0.200002
     52          1           0        2.329797   -3.924335   -1.043492
     53          1           0        1.201869   -3.032098   -0.009176
     54          8           0        1.175355   -2.155669   -2.548754
     55          1           0        1.176753   -1.420024   -3.192619
     56          7           0        3.215091    1.440239   -1.647797
     57          1           0        3.705197    1.290333   -0.772234
     58          6           0        3.866537    2.374942   -2.555266
     59          1           0        3.702640    2.037216   -3.583410
     60          6           0        5.361207    2.331754   -2.241521
     61          6           0        3.333344    3.819906   -2.384184
     62          1           0        4.035420    4.517642   -2.852254
     63          1           0        3.335717    4.041234   -1.309194
     64          8           0        5.826553    1.851931   -1.231202
     65          6           0        1.923078    4.017916   -2.982596
     66          1           0        2.009052    4.408504   -4.002016
     67          1           0        1.401445    3.058732   -3.074459
     68          6           0        1.044140    4.982522   -2.181263
     69          1           0        1.596184    5.904715   -1.952582
     70          1           0        0.160705    5.252863   -2.774925
     71          7           0        0.615023    4.344436   -0.929793
     72          1           0        0.814320    3.351733   -0.799033
     73          7           0       -0.724905    6.117856   -0.220096
     74          1           0       -1.128134    6.596394    0.572864
     75          1           0       -0.356641    6.707697   -0.951494
     76          7           0       -0.574873    4.171902    1.046410
     77          1           0       -0.271994    3.190502    1.042606
     78          6           0       -0.224059    4.875157   -0.034935
     79          8           0        6.086521    2.925279   -3.202753
     80          1           0       -8.693447    0.847822    2.514069
     81          1           0        7.023705    2.888074   -2.928971
 ---------------------------------------------------------------------

 SCF Done:  E(RB3LYP) =  -2053.97645495     A.U. after    1 cycles

 Alpha  occ. eigenvalues --  -19.30040 -19.27437 -19.24611 -19.24170 -19.23413
 Alpha  occ. eigenvalues --  -19.22566 -19.21736 -19.20411 -14.50973 -14.49997
 Alpha  occ. eigenvalues --  -14.47299 -14.47277 -14.47070 -14.46007 -14.45545
 Alpha  occ. eigenvalues --  -14.45344 -10.46103 -10.42628 -10.40485 -10.39983
 Alpha  occ. eigenvalues --  -10.39685 -10.38080 -10.35682 -10.34794 -10.33953
 Alpha  occ. eigenvalues --  -10.33828 -10.33620 -10.32981 -10.30421 -10.30391
 Alpha  occ. eigenvalues --  -10.29955 -10.29760 -10.28950 -10.28788 -10.27954
 Alpha  occ. eigenvalues --  -10.26411 -10.26132 -10.25677 -10.25605 -10.25563
 Alpha  occ. eigenvalues --  -10.25022 -10.24687  -1.21110  -1.18118  -1.15691
 Alpha  occ. eigenvalues --   -1.14764  -1.14267  -1.12702  -1.12291  -1.11090
 Alpha  occ. eigenvalues --   -1.09267  -1.05334  -1.04499  -1.03686  -1.03447
 Alpha  occ. eigenvalues --   -1.02951  -1.02210  -1.00859  -0.91745  -0.90831
 Alpha  occ. eigenvalues --   -0.89615  -0.88270  -0.87991  -0.86351  -0.84343
 Alpha  occ. eigenvalues --   -0.81330  -0.81038  -0.80374  -0.79846  -0.78944
 Alpha  occ. eigenvalues --   -0.77028  -0.75840  -0.73791  -0.73073  -0.72297
 Alpha  occ. eigenvalues --   -0.71448  -0.69993  -0.69282  -0.69246  -0.68987
 Alpha  occ. eigenvalues --   -0.68711  -0.67854  -0.66731  -0.66134  -0.64674
 Alpha  occ. eigenvalues --   -0.63424  -0.63312  -0.62755  -0.61823  -0.61514
 Alpha  occ. eigenvalues --   -0.61001  -0.60463  -0.60341  -0.59875  -0.59538
 Alpha  occ. eigenvalues --   -0.58744  -0.58465  -0.58186  -0.57385  -0.57022
 Alpha  occ. eigenvalues --   -0.56459  -0.55884  -0.55712  -0.55552  -0.55105
 Alpha  occ. eigenvalues --   -0.54536  -0.54171  -0.53903  -0.53714  -0.53606
 Alpha  occ. eigenvalues --   -0.52521  -0.52181  -0.51928  -0.51368  -0.51272
 Alpha  occ. eigenvalues --   -0.50631  -0.50508  -0.49968  -0.49747  -0.49539
 Alpha  occ. eigenvalues --   -0.48921  -0.48894  -0.48363  -0.47810  -0.47612
 Alpha  occ. eigenvalues --   -0.47059  -0.46979  -0.46722  -0.46353  -0.46058
 Alpha  occ. eigenvalues --   -0.45793  -0.45646  -0.45227  -0.45165  -0.44035
 Alpha  occ. eigenvalues --   -0.43597  -0.42533  -0.42202  -0.42122  -0.41653
 Alpha  occ. eigenvalues --   -0.40546  -0.40108  -0.39668  -0.39532  -0.38675
 Alpha  occ. eigenvalues --   -0.38295  -0.38146  -0.37972  -0.36630  -0.36399
 Alpha  occ. eigenvalues --   -0.35400  -0.35252  -0.35213  -0.34373  -0.34055
 Alpha  occ. eigenvalues --   -0.29282  -0.27699
 Alpha virt. eigenvalues --   -0.10812  -0.10106  -0.09659  -0.08515  -0.08237
 Alpha virt. eigenvalues --   -0.07164  -0.06902  -0.06101  -0.04635  -0.04068
 Alpha virt. eigenvalues --   -0.02929  -0.02064  -0.01931  -0.01108  -0.01049

 Mulliken charges:
               1
     1  N   -0.781170
     2  H    0.388952
     3  H    0.319969
     4  H    0.334796
     5  C   -0.091597
     6  H    0.189698
     7  C    0.620363
     8  C   -0.264075
     9  H    0.203531
    10  H    0.160875
    11  O   -0.501974
    12  C   -0.383702
    13  H    0.225101
    14  H    0.143866
    15  C    0.588273
    16  O   -0.440387
    17  O   -0.583757
    18  N   -0.612000
    19  H    0.322657
    20  C   -0.074900
    21  H    0.222739
    22  C    0.661117
    23  C   -0.391640
    24  H    0.172070
    25  H    0.143738
    26  O   -0.589887
    27  C    0.091446
    28  C   -0.019338
    29  H    0.139303
    30  C    0.090286
    31  C    0.299895
    32  C   -0.204063
    33  H    0.113766
    34  N   -0.675503
    35  H    0.341422
    36  C   -0.149371
    37  H    0.143157
    38  C   -0.158199
    39  H    0.135951
    40  C   -0.134873
    41  H    0.138789
    42  N   -0.589916
    43  H    0.367623
    44  C   -0.059455
    45  H    0.171503
    46  C    0.640305
    47  C    0.089364
    48  H    0.152082
    49  O   -0.553238
    50  C   -0.451109
    51  H    0.160311
    52  H    0.189179
    53  H    0.157859
    54  O   -0.630425
    55  H    0.420604
    56  N   -0.603142
    57  H    0.361103
    58  C   -0.055112
    59  H    0.211849
    60  C    0.584318
    61  C   -0.280155
    62  H    0.184904
    63  H    0.160373
    64  O   -0.453764
    65  C   -0.329789
    66  H    0.180510
    67  H    0.203549
    68  C   -0.154031
    69  H    0.173828
    70  H    0.176997
    71  N   -0.626109
    72  H    0.403897
    73  N   -0.756897
    74  H    0.375418
    75  H    0.377898
    76  N   -0.806323
    77  H    0.410025
    78  C    0.762858
    79  O   -0.555104
    80  H    0.420212
    81  H    0.432674
 Sum of Mulliken charges =   1.00000

 Dipole moment (field-independent basis, Debye):
    X=             -3.0713    Y=             19.3614    Z=             -4.1079  Tot=             20.0293
 Quadrupole moment (field-independent basis, Debye-Ang):
   XX=           -144.2288   YY=           -125.9920   ZZ=           -245.3620
   XY=            -10.6719   XZ=            -20.3565   YZ=            -12.5174

 Normal termination of Gaussian 16 at Thu May 26 18:08:07 2022.
