 Gaussian 16, Revision C.01,
 Gaussian 16:  ES64L-G16RevC.01  3-Jul-2019

 -------------------------------------------------------------------
 # B3LYP/6-31G* guess=read geom=check nosymm integral(ultrafinegrid)
 -------------------------------------------------------------------

 ------------------------------------------------------
 Candidate Structure: Conf:879 Charge calc in gas phase
 ------------------------------------------------------
 Structure from the checkpoint file:  "conf-879.chk"
 Charge =  1 Multiplicity = 1

                          Input orientation:
 ---------------------------------------------------------------------
 Center     Atomic      Atomic             Coordinates (Angstroms)
 Number     Number       Type             X           Y           Z
 ---------------------------------------------------------------------
      1          7           0       -5.456677    2.916746    2.111729
      2          1           0       -6.210526    3.108834    1.447165
      3          1           0       -5.338536    1.861085    2.211011
      4          1           0       -5.687426    3.355254    3.006652
      5          6           0       -4.084533    3.315000    1.584956
      6          1           0       -4.198643    3.978111    0.728852
      7          6           0       -3.499010    1.944099    1.150579
      8          6           0       -3.308214    4.028925    2.710283
      9          1           0       -3.875862    4.932546    2.971906
     10          1           0       -3.301894    3.378592    3.596249
     11          8           0       -4.073836    0.918915    1.570839
     12          6           0       -1.857587    4.431840    2.380807
     13          1           0       -1.227737    3.537669    2.297539
     14          1           0       -1.473140    5.027617    3.212987
     15          6           0       -1.698075    5.213211    1.064777
     16          8           0       -2.221850    4.726412    0.028392
     17          8           0       -1.025876    6.288878    1.105276
     18          7           0       -2.425949    1.984543    0.373882
     19          1           0       -2.084226    2.924540    0.106210
     20          6           0       -1.711714    0.788159   -0.051989
     21          1           0       -1.997702   -0.020828    0.625543
     22          6           0       -0.200246    1.057187    0.088551
     23          6           0       -2.121595    0.383586   -1.506708
     24          1           0       -1.624823    1.054075   -2.217744
     25          1           0       -3.197151    0.582901   -1.586718
     26          8           0        0.242774    2.155931    0.424701
     27          6           0       -1.853129   -1.051313   -1.855864
     28          6           0       -0.944134   -1.527351   -2.774715
     29          1           0       -0.232406   -0.982927   -3.380757
     30          6           0       -2.536255   -2.206776   -1.318792
     31          6           0       -1.985885   -3.349446   -1.958992
     32          6           0       -3.557671   -2.385058   -0.367243
     33          1           0       -4.000042   -1.531528    0.140660
     34          7           0       -1.027885   -2.899751   -2.846919
     35          1           0       -0.422095   -3.488692   -3.397411
     36          6           0       -3.422906   -4.793609   -0.724716
     37          1           0       -3.781247   -5.788549   -0.477326
     38          6           0       -2.417081   -4.648512   -1.672183
     39          1           0       -1.983876   -5.511484   -2.170193
     40          6           0       -3.988035   -3.674010   -0.080182
     41          1           0       -4.774269   -3.826578    0.653691
     42          7           0        0.591813   -0.008898   -0.181013
     43          1           0        0.197793   -0.844601   -0.606439
     44          6           0        2.041112    0.082221   -0.178302
     45          1           0        2.346992    0.687017    0.680699
     46          6           0        2.551605    0.707675   -1.487471
     47          6           0        2.640179   -1.349700   -0.074833
     48          1           0        3.726999   -1.256340   -0.233453
     49          8           0        2.305197    0.190772   -2.580358
     50          6           0        2.385799   -2.002853    1.276796
     51          1           0        2.873238   -1.440305    2.080186
     52          1           0        2.789557   -3.019083    1.268576
     53          1           0        1.314015   -2.062033    1.487940
     54          8           0        2.061399   -2.176060   -1.075378
     55          1           0        2.186469   -1.708782   -1.924307
     56          7           0        3.317985    1.821925   -1.351812
     57          1           0        3.510420    2.148991   -0.415783
     58          6           0        4.048284    2.416176   -2.459956
     59          1           0        3.723551    1.853443   -3.343850
     60          6           0        5.562586    2.194467   -2.352094
     61          6           0        3.717472    3.904908   -2.673745
     62          1           0        2.646337    3.968380   -2.895472
     63          1           0        4.266860    4.244734   -3.558139
     64          8           0        6.388784    2.940474   -2.826543
     65          6           0        4.060048    4.808930   -1.482624
     66          1           0        3.546744    4.444007   -0.582294
     67          1           0        5.136935    4.770609   -1.281745
     68          6           0        3.682922    6.284192   -1.705718
     69          1           0        4.012046    6.897367   -0.859078
     70          1           0        4.198103    6.677448   -2.586780
     71          7           0        2.249821    6.506874   -1.923550
     72          1           0        1.946634    6.664112   -2.873719
     73          7           0        1.607351    6.452273    0.328989
     74          1           0        0.804390    6.381509    0.969594
     75          1           0        2.491549    6.054926    0.600930
     76          7           0        0.040038    6.883955   -1.287372
     77          1           0       -0.243456    7.005211   -2.247488
     78          6           0        1.300559    6.601100   -0.968684
     79          8           0        5.874426    1.055590   -1.699430
     80          1           0       -0.673715    6.761049   -0.510340
     81          1           0        6.847056    0.972615   -1.734020
 ---------------------------------------------------------------------

 SCF Done:  E(RB3LYP) =  -2053.97074665     A.U. after    1 cycles

 Alpha  occ. eigenvalues --  -19.28787 -19.24080 -19.23049 -19.21486 -19.21281
 Alpha  occ. eigenvalues --  -19.20297 -19.18272 -19.17785 -14.57319 -14.48829
 Alpha  occ. eigenvalues --  -14.46467 -14.46297 -14.45812 -14.45590 -14.44273
 Alpha  occ. eigenvalues --  -14.44047 -10.43635 -10.41191 -10.40424 -10.38329
 Alpha  occ. eigenvalues --  -10.37394 -10.37169 -10.36109 -10.34306 -10.33560
 Alpha  occ. eigenvalues --  -10.32235 -10.32083 -10.31897 -10.31485 -10.29695
 Alpha  occ. eigenvalues --  -10.28979 -10.28580 -10.27881 -10.27739 -10.27411
 Alpha  occ. eigenvalues --  -10.25119 -10.24643 -10.24616 -10.24550 -10.24345
 Alpha  occ. eigenvalues --  -10.24085 -10.23755  -1.19697  -1.16287  -1.13483
 Alpha  occ. eigenvalues --   -1.12410  -1.11987  -1.11151  -1.10970  -1.10692
 Alpha  occ. eigenvalues --   -1.09035  -1.04218  -1.03317  -1.02737  -1.02487
 Alpha  occ. eigenvalues --   -1.01704  -1.00597  -0.99354  -0.91179  -0.90436
 Alpha  occ. eigenvalues --   -0.89720  -0.88228  -0.86249  -0.84593  -0.83702
 Alpha  occ. eigenvalues --   -0.81667  -0.79630  -0.79334  -0.78458  -0.77852
 Alpha  occ. eigenvalues --   -0.75283  -0.74895  -0.73908  -0.72236  -0.71188
 Alpha  occ. eigenvalues --   -0.70539  -0.70090  -0.69105  -0.68337  -0.68167
 Alpha  occ. eigenvalues --   -0.67912  -0.67183  -0.66446  -0.65268  -0.64668
 Alpha  occ. eigenvalues --   -0.63902  -0.62739  -0.62364  -0.61216  -0.60636
 Alpha  occ. eigenvalues --   -0.60170  -0.59862  -0.59659  -0.59270  -0.58624
 Alpha  occ. eigenvalues --   -0.57560  -0.57374  -0.57203  -0.56733  -0.56677
 Alpha  occ. eigenvalues --   -0.56329  -0.55517  -0.54437  -0.53705  -0.53450
 Alpha  occ. eigenvalues --   -0.53314  -0.53011  -0.52745  -0.52400  -0.51792
 Alpha  occ. eigenvalues --   -0.51494  -0.51062  -0.50760  -0.50488  -0.49966
 Alpha  occ. eigenvalues --   -0.49815  -0.49745  -0.48991  -0.48764  -0.48574
 Alpha  occ. eigenvalues --   -0.48434  -0.48202  -0.47904  -0.47413  -0.46564
 Alpha  occ. eigenvalues --   -0.46380  -0.45956  -0.45709  -0.45307  -0.45251
 Alpha  occ. eigenvalues --   -0.44900  -0.44430  -0.44286  -0.43917  -0.43744
 Alpha  occ. eigenvalues --   -0.43503  -0.41158  -0.40910  -0.40801  -0.39381
 Alpha  occ. eigenvalues --   -0.39150  -0.38664  -0.38200  -0.37934  -0.36943
 Alpha  occ. eigenvalues --   -0.36617  -0.36014  -0.34924  -0.34559  -0.34175
 Alpha  occ. eigenvalues --   -0.33845  -0.33137  -0.32876  -0.32762  -0.31996
 Alpha  occ. eigenvalues --   -0.28213  -0.26605
 Alpha virt. eigenvalues --   -0.09332  -0.08814  -0.08727  -0.07721  -0.07346
 Alpha virt. eigenvalues --   -0.06995  -0.06097  -0.05002  -0.04191  -0.03511
 Alpha virt. eigenvalues --   -0.03303  -0.03054  -0.01482  -0.00661  -0.00230

 Mulliken charges:
               1
     1  N   -0.762260
     2  H    0.410405
     3  H    0.427505
     4  H    0.405265
     5  C   -0.106237
     6  H    0.242257
     7  C    0.617684
     8  C   -0.299151
     9  H    0.170162
    10  H    0.164057
    11  O   -0.561546
    12  C   -0.374238
    13  H    0.193534
    14  H    0.171792
    15  C    0.624485
    16  O   -0.584730
    17  O   -0.614879
    18  N   -0.592852
    19  H    0.408663
    20  C   -0.088591
    21  H    0.210255
    22  C    0.618579
    23  C   -0.346269
    24  H    0.159802
    25  H    0.167750
    26  O   -0.546621
    27  C    0.009464
    28  C   -0.002197
    29  H    0.176188
    30  C    0.088195
    31  C    0.315095
    32  C   -0.224383
    33  H    0.138915
    34  N   -0.678727
    35  H    0.339025
    36  C   -0.148852
    37  H    0.137530
    38  C   -0.157625
    39  H    0.136682
    40  C   -0.140357
    41  H    0.128483
    42  N   -0.604917
    43  H    0.378150
    44  C   -0.080893
    45  H    0.156552
    46  C    0.651166
    47  C    0.114108
    48  H    0.140128
    49  O   -0.546935
    50  C   -0.449544
    51  H    0.145355
    52  H    0.179154
    53  H    0.164493
    54  O   -0.640565
    55  H    0.418078
    56  N   -0.594567
    57  H    0.343947
    58  C   -0.076303
    59  H    0.228997
    60  C    0.591989
    61  C   -0.258690
    62  H    0.155369
    63  H    0.176060
    64  O   -0.453653
    65  C   -0.287572
    66  H    0.131772
    67  H    0.183421
    68  C   -0.178421
    69  H    0.183349
    70  H    0.190624
    71  N   -0.603985
    72  H    0.352101
    73  N   -0.776292
    74  H    0.412315
    75  H    0.358089
    76  N   -0.780801
    77  H    0.348203
    78  C    0.806799
    79  O   -0.559791
    80  H    0.423680
    81  H    0.426772
 Sum of Mulliken charges =   1.00000

 Dipole moment (field-independent basis, Debye):
    X=             -3.7539    Y=             16.7549    Z=              0.5328  Tot=             17.1786
 Quadrupole moment (field-independent basis, Debye-Ang):
   XX=           -124.7065   YY=           -144.9481   ZZ=           -205.9463
   XY=            -10.9795   XZ=            -38.2557   YZ=             -2.3468

 Normal termination of Gaussian 16 at Thu May 26 18:08:12 2022.
