 Gaussian 16, Revision C.01,
 Gaussian 16:  ES64L-G16RevC.01  3-Jul-2019

 -------------------------------------------------------------------
 # B3LYP/6-31G* guess=read geom=check nosymm integral(ultrafinegrid)
 -------------------------------------------------------------------

 ------------------------------------------------------
 Candidate Structure: Conf:535 Charge calc in gas phase
 ------------------------------------------------------
 Structure from the checkpoint file:  "conf-535.chk"
 Charge =  1 Multiplicity = 1

                          Input orientation:
 ---------------------------------------------------------------------
 Center     Atomic      Atomic             Coordinates (Angstroms)
 Number     Number       Type             X           Y           Z
 ---------------------------------------------------------------------
      1          7           0       -2.439737    1.408787    4.316229
      2          1           0       -2.934116    1.629824    5.182944
      3          1           0       -2.430051    0.374591    4.125239
      4          1           0       -1.461638    1.712300    4.397456
      5          6           0       -3.080473    2.001320    3.071523
      6          1           0       -4.142414    2.140369    3.298669
      7          6           0       -2.939981    0.840014    2.038649
      8          6           0       -2.419074    3.343672    2.702007
      9          1           0       -2.781362    3.663210    1.719148
     10          1           0       -2.788166    4.105295    3.397094
     11          8           0       -2.528235   -0.252047    2.451205
     12          6           0       -0.879496    3.305093    2.677793
     13          1           0       -0.498321    2.287728    2.531440
     14          1           0       -0.461062    3.655947    3.630229
     15          6           0       -0.218289    4.172520    1.572096
     16          8           0        0.988764    3.975017    1.352075
     17          8           0       -0.986217    5.007506    0.980376
     18          7           0       -3.292738    1.090393    0.767330
     19          1           0       -3.433279    2.063682    0.517495
     20          6           0       -2.691094    0.302042   -0.346174
     21          1           0       -2.599785   -0.729715   -0.002565
     22          6           0       -1.311995    0.993860   -0.484297
     23          6           0       -3.582697    0.363609   -1.597891
     24          1           0       -3.582866    1.397289   -1.970067
     25          1           0       -4.604039    0.135949   -1.276146
     26          8           0       -1.319257    2.218166   -0.662830
     27          6           0       -3.170413   -0.592883   -2.676089
     28          6           0       -3.788010   -1.788908   -2.953953
     29          1           0       -4.650984   -2.240418   -2.482516
     30          6           0       -2.092246   -0.455781   -3.625704
     31          6           0       -2.116174   -1.615292   -4.447480
     32          6           0       -1.125416    0.533325   -3.881044
     33          1           0       -1.080314    1.432052   -3.269835
     34          7           0       -3.154583   -2.409871   -4.004701
     35          1           0       -3.437841   -3.283890   -4.419116
     36          6           0       -0.272909   -0.814898   -5.724124
     37          1           0        0.442652   -0.931959   -6.532343
     38          6           0       -1.212310   -1.811440   -5.496076
     39          1           0       -1.246048   -2.705126   -6.112604
     40          6           0       -0.232679    0.345986   -4.926373
     41          1           0        0.513441    1.105784   -5.138802
     42          7           0       -0.198737    0.288497   -0.183150
     43          1           0       -0.206176   -0.716335   -0.305603
     44          6           0        1.003050    0.942604    0.333300
     45          1           0        0.698492    1.934116    0.665014
     46          6           0        2.128447    1.089133   -0.697538
     47          6           0        1.495117    0.171593    1.589346
     48          1           0        1.791158   -0.843546    1.283976
     49          8           0        2.540645    0.130858   -1.338341
     50          6           0        2.668384    0.876003    2.256391
     51          1           0        3.543129    0.891935    1.601635
     52          1           0        2.931615    0.347267    3.176881
     53          1           0        2.396423    1.908349    2.501403
     54          8           0        0.444314    0.095858    2.563906
     55          1           0       -0.273857   -0.454908    2.214710
     56          7           0        2.612045    2.363083   -0.793237
     57          1           0        2.227258    3.072924   -0.170460
     58          6           0        3.719688    2.709909   -1.668246
     59          1           0        3.900152    1.810033   -2.272530
     60          6           0        5.024491    2.972055   -0.898549
     61          6           0        3.383354    3.902997   -2.580513
     62          1           0        4.302147    4.204394   -3.089781
     63          1           0        3.099762    4.745513   -1.936853
     64          8           0        5.849447    3.797536   -1.217331
     65          6           0        2.265959    3.606442   -3.587054
     66          1           0        2.661450    3.023587   -4.428398
     67          1           0        1.503512    2.983694   -3.104738
     68          6           0        1.591479    4.864773   -4.168573
     69          1           0        2.309853    5.452441   -4.746963
     70          1           0        0.799642    4.585169   -4.873973
     71          7           0        1.048274    5.795460   -3.163818
     72          1           0        1.640450    6.584345   -2.945903
     73          7           0       -0.695961    4.455520   -2.410322
     74          1           0       -1.044112    3.880965   -1.644868
     75          1           0       -0.699078    4.029072   -3.324721
     76          7           0        0.219914    6.019868   -0.980650
     77          1           0        1.002830    6.630638   -0.781899
     78          6           0        0.214275    5.424913   -2.155127
     79          8           0        5.189310    2.137073    0.147634
     80          1           0       -0.342576    5.607133   -0.041002
     81          1           0        6.062691    2.345806    0.529055
 ---------------------------------------------------------------------

 SCF Done:  E(RB3LYP) =  -2053.93613142     A.U. after    1 cycles

 Alpha  occ. eigenvalues --  -19.27922 -19.27116 -19.24056 -19.23442 -19.21345
 Alpha  occ. eigenvalues --  -19.19537 -19.19112 -19.18012 -14.59719 -14.50399
 Alpha  occ. eigenvalues --  -14.47493 -14.46400 -14.45802 -14.45010 -14.43674
 Alpha  occ. eigenvalues --  -14.42472 -10.44548 -10.41263 -10.40770 -10.40556
 Alpha  occ. eigenvalues --  -10.39446 -10.37079 -10.36401 -10.35413 -10.32891
 Alpha  occ. eigenvalues --  -10.32571 -10.32279 -10.31722 -10.31304 -10.30080
 Alpha  occ. eigenvalues --  -10.29623 -10.29405 -10.29131 -10.27716 -10.27243
 Alpha  occ. eigenvalues --  -10.26639 -10.26227 -10.26176 -10.26097 -10.25563
 Alpha  occ. eigenvalues --  -10.25471 -10.24515  -1.20090  -1.18078  -1.15332
 Alpha  occ. eigenvalues --   -1.13852  -1.12261  -1.11386  -1.10795  -1.09920
 Alpha  occ. eigenvalues --   -1.08950  -1.06792  -1.05791  -1.03544  -1.03118
 Alpha  occ. eigenvalues --   -1.00355  -0.99754  -0.97107  -0.93436  -0.91410
 Alpha  occ. eigenvalues --   -0.90168  -0.88585  -0.86776  -0.85730  -0.84114
 Alpha  occ. eigenvalues --   -0.83107  -0.81033  -0.80257  -0.78943  -0.77134
 Alpha  occ. eigenvalues --   -0.76589  -0.75378  -0.73938  -0.73259  -0.72900
 Alpha  occ. eigenvalues --   -0.71019  -0.70277  -0.69806  -0.69700  -0.68529
 Alpha  occ. eigenvalues --   -0.67805  -0.67121  -0.66787  -0.66530  -0.65627
 Alpha  occ. eigenvalues --   -0.64428  -0.64069  -0.62871  -0.62071  -0.61606
 Alpha  occ. eigenvalues --   -0.61239  -0.60391  -0.59888  -0.59740  -0.59151
 Alpha  occ. eigenvalues --   -0.58793  -0.58078  -0.57261  -0.56522  -0.56377
 Alpha  occ. eigenvalues --   -0.56157  -0.55663  -0.55325  -0.55150  -0.54800
 Alpha  occ. eigenvalues --   -0.54222  -0.54031  -0.53654  -0.52871  -0.52207
 Alpha  occ. eigenvalues --   -0.52093  -0.51196  -0.50845  -0.50563  -0.50475
 Alpha  occ. eigenvalues --   -0.49915  -0.49846  -0.49517  -0.49324  -0.49059
 Alpha  occ. eigenvalues --   -0.48828  -0.48029  -0.47920  -0.47665  -0.47283
 Alpha  occ. eigenvalues --   -0.47083  -0.46786  -0.46333  -0.46108  -0.45721
 Alpha  occ. eigenvalues --   -0.45221  -0.45082  -0.44157  -0.43701  -0.43105
 Alpha  occ. eigenvalues --   -0.42868  -0.42581  -0.42024  -0.41671  -0.41436
 Alpha  occ. eigenvalues --   -0.40794  -0.40746  -0.39146  -0.37527  -0.37218
 Alpha  occ. eigenvalues --   -0.36605  -0.36332  -0.36147  -0.35072  -0.34953
 Alpha  occ. eigenvalues --   -0.34403  -0.33940  -0.32507  -0.32379  -0.31988
 Alpha  occ. eigenvalues --   -0.29777  -0.28097
 Alpha virt. eigenvalues --   -0.14326  -0.10225  -0.10112  -0.08632  -0.07070
 Alpha virt. eigenvalues --   -0.06575  -0.05666  -0.05226  -0.04696  -0.04343
 Alpha virt. eigenvalues --   -0.04156  -0.03350  -0.02877  -0.02472  -0.02160

 Mulliken charges:
               1
     1  N   -0.748660
     2  H    0.413067
     3  H    0.432802
     4  H    0.432289
     5  C   -0.137237
     6  H    0.225701
     7  C    0.654036
     8  C   -0.282254
     9  H    0.210913
    10  H    0.180763
    11  O   -0.540295
    12  C   -0.443513
    13  H    0.190064
    14  H    0.174229
    15  C    0.633512
    16  O   -0.555755
    17  O   -0.620050
    18  N   -0.579174
    19  H    0.364520
    20  C   -0.056831
    21  H    0.185526
    22  C    0.632679
    23  C   -0.371141
    24  H    0.167089
    25  H    0.169390
    26  O   -0.557948
    27  C    0.044444
    28  C    0.007328
    29  H    0.161457
    30  C    0.076035
    31  C    0.313445
    32  C   -0.218076
    33  H    0.113652
    34  N   -0.684241
    35  H    0.341504
    36  C   -0.147112
    37  H    0.142067
    38  C   -0.155708
    39  H    0.142091
    40  C   -0.135947
    41  H    0.119213
    42  N   -0.596628
    43  H    0.353951
    44  C   -0.110027
    45  H    0.211093
    46  C    0.633734
    47  C    0.109345
    48  H    0.148538
    49  O   -0.522272
    50  C   -0.493677
    51  H    0.193977
    52  H    0.162286
    53  H    0.174575
    54  O   -0.653103
    55  H    0.406622
    56  N   -0.630668
    57  H    0.384048
    58  C   -0.073291
    59  H    0.217869
    60  C    0.599282
    61  C   -0.266988
    62  H    0.185313
    63  H    0.131860
    64  O   -0.453957
    65  C   -0.285359
    66  H    0.165858
    67  H    0.159279
    68  C   -0.177896
    69  H    0.181055
    70  H    0.171287
    71  N   -0.588462
    72  H    0.344451
    73  N   -0.777057
    74  H    0.413081
    75  H    0.357601
    76  N   -0.786174
    77  H    0.329764
    78  C    0.752398
    79  O   -0.555339
    80  H    0.467604
    81  H    0.422153
 Sum of Mulliken charges =   1.00000

 Dipole moment (field-independent basis, Debye):
    X=             -9.8519    Y=              7.6950    Z=              4.4055  Tot=             13.2545
 Quadrupole moment (field-independent basis, Debye-Ang):
   XX=           -194.4354   YY=           -191.2517   ZZ=           -146.7541
   XY=             10.9874   XZ=            -30.3905   YZ=              6.7887

 Normal termination of Gaussian 16 at Thu May 26 18:08:10 2022.
