 Gaussian 16, Revision C.01,
 Gaussian 16:  ES64L-G16RevC.01  3-Jul-2019

 -------------------------------------------------------------------
 # B3LYP/6-31G* guess=read geom=check nosymm integral(ultrafinegrid)
 -------------------------------------------------------------------

 ------------------------------------------------------
 Candidate Structure: Conf:746 Charge calc in gas phase
 ------------------------------------------------------
 Structure from the checkpoint file:  "conf-746.chk"
 Charge =  1 Multiplicity = 1

                          Input orientation:
 ---------------------------------------------------------------------
 Center     Atomic      Atomic             Coordinates (Angstroms)
 Number     Number       Type             X           Y           Z
 ---------------------------------------------------------------------
      1          7           0       -3.703393    4.254284   -1.106400
      2          1           0       -3.044876    4.231254   -2.037683
      3          1           0       -4.415778    3.516346   -1.211101
      4          1           0       -4.159448    5.161226   -0.985592
      5          6           0       -2.852125    3.870961    0.068588
      6          1           0       -1.918964    4.426916   -0.003134
      7          6           0       -2.625121    2.358349   -0.136178
      8          6           0       -3.572158    4.191979    1.390430
      9          1           0       -3.721144    5.278214    1.448129
     10          1           0       -4.565251    3.727002    1.370105
     11          8           0       -3.571502    1.679249   -0.549989
     12          6           0       -2.857044    3.710437    2.664487
     13          1           0       -2.791710    2.614100    2.675282
     14          1           0       -3.447356    3.985492    3.542709
     15          6           0       -1.444527    4.235920    2.833016
     16          8           0       -0.679456    4.499362    1.922160
     17          8           0       -1.105871    4.345517    4.125423
     18          7           0       -1.388665    1.913518    0.122076
     19          1           0       -0.678351    2.539405    0.505745
     20          6           0       -0.922496    0.549508   -0.121074
     21          1           0       -1.497250   -0.157515    0.488210
     22          6           0        0.558635    0.556849    0.315657
     23          6           0       -1.075897    0.145243   -1.626890
     24          1           0       -0.268831    0.622619   -2.199353
     25          1           0       -2.023586    0.574654   -1.966455
     26          8           0        1.058653    1.589123    0.786907
     27          6           0       -1.093200   -1.334291   -1.870929
     28          6           0       -0.131689   -2.093004   -2.503025
     29          1           0        0.818302   -1.790350   -2.922206
     30          6           0       -2.159136   -2.240466   -1.508449
     31          6           0       -1.766313   -3.535200   -1.940876
     32          6           0       -3.405763   -2.077838   -0.875982
     33          1           0       -3.743023   -1.092675   -0.563292
     34          7           0       -0.534161   -3.406992   -2.554359
     35          1           0        0.037303   -4.169897   -2.884925
     36          6           0       -3.786372   -4.476486   -1.100708
     37          1           0       -4.433578   -5.331577   -0.928984
     38          6           0       -2.567407   -4.664246   -1.740635
     39          1           0       -2.252145   -5.648930   -2.074189
     40          6           0       -4.203602   -3.197178   -0.677630
     41          1           0       -5.169344   -3.089206   -0.192209
     42          7           0        1.266111   -0.566790    0.090389
     43          1           0        0.834486   -1.338533   -0.416369
     44          6           0        2.735748   -0.576734    0.124470
     45          1           0        3.062676   -0.026573    1.011410
     46          6           0        3.218124    0.145358   -1.157377
     47          6           0        3.251486   -2.030658    0.175395
     48          1           0        4.348624   -1.977992    0.103427
     49          8           0        3.468368   -0.455793   -2.207209
     50          6           0        2.869284   -2.753822    1.459643
     51          1           0        3.291803   -2.248505    2.334625
     52          1           0        3.256438   -3.775864    1.427263
     53          1           0        1.782112   -2.804494    1.576321
     54          8           0        2.720229   -2.763587   -0.923533
     55          1           0        3.069645   -2.306473   -1.714753
     56          7           0        3.245571    1.496017   -1.063623
     57          1           0        2.903101    1.906251   -0.200835
     58          6           0        3.367446    2.350111   -2.231703
     59          1           0        2.880590    1.847994   -3.074948
     60          6           0        4.837932    2.546553   -2.614272
     61          6           0        2.680797    3.700463   -1.912201
     62          1           0        3.268560    4.204101   -1.134718
     63          1           0        1.708130    3.467678   -1.462556
     64          8           0        5.773794    2.491978   -1.857635
     65          6           0        2.474870    4.673819   -3.080220
     66          1           0        2.086903    5.607752   -2.654846
     67          1           0        3.431423    4.924610   -3.551462
     68          6           0        1.537722    4.178735   -4.199358
     69          1           0        1.391367    4.975183   -4.940402
     70          1           0        2.008907    3.354019   -4.740358
     71          7           0        0.228254    3.683397   -3.756674
     72          1           0        0.096376    2.682304   -3.752927
     73          7           0       -0.694309    5.764263   -3.220650
     74          1           0       -1.534171    6.313403   -3.339761
     75          1           0        0.141929    6.201537   -3.578270
     76          7           0       -2.036669    3.890463   -3.126683
     77          1           0       -2.077436    2.898136   -3.350112
     78          6           0       -0.858675    4.412245   -3.380864
     79          8           0        4.948509    2.838601   -3.934539
     80          1           0       -0.172758    4.633715    4.161661
     81          1           0        5.899646    2.969054   -4.115753
 ---------------------------------------------------------------------

 SCF Done:  E(RB3LYP) =  -2053.96345036     A.U. after    2 cycles

 Alpha  occ. eigenvalues --  -19.30167 -19.28415 -19.24931 -19.23794 -19.22829
 Alpha  occ. eigenvalues --  -19.22451 -19.21678 -19.21208 -14.53657 -14.48487
 Alpha  occ. eigenvalues --  -14.47692 -14.47374 -14.46117 -14.45389 -14.45229
 Alpha  occ. eigenvalues --  -14.42560 -10.43224 -10.42662 -10.40885 -10.40507
 Alpha  occ. eigenvalues --  -10.39652 -10.38337 -10.36733 -10.34339 -10.34303
 Alpha  occ. eigenvalues --  -10.33694 -10.32593 -10.32377 -10.31907 -10.31714
 Alpha  occ. eigenvalues --  -10.29917 -10.29843 -10.29799 -10.29623 -10.28819
 Alpha  occ. eigenvalues --  -10.26457 -10.25504 -10.25427 -10.25137 -10.24887
 Alpha  occ. eigenvalues --  -10.24651 -10.24536  -1.21325  -1.19048  -1.15917
 Alpha  occ. eigenvalues --   -1.14644  -1.13235  -1.12261  -1.11303  -1.10222
 Alpha  occ. eigenvalues --   -1.08947  -1.08705  -1.05235  -1.03954  -1.02712
 Alpha  occ. eigenvalues --   -1.02053  -1.01727  -0.97750  -0.92570  -0.90798
 Alpha  occ. eigenvalues --   -0.90553  -0.89619  -0.86502  -0.85604  -0.84406
 Alpha  occ. eigenvalues --   -0.83286  -0.80238  -0.79871  -0.79497  -0.78309
 Alpha  occ. eigenvalues --   -0.77569  -0.75542  -0.74708  -0.72625  -0.71075
 Alpha  occ. eigenvalues --   -0.70281  -0.69436  -0.69201  -0.69024  -0.68578
 Alpha  occ. eigenvalues --   -0.68126  -0.67349  -0.66801  -0.66321  -0.66173
 Alpha  occ. eigenvalues --   -0.64126  -0.63373  -0.62153  -0.61630  -0.61089
 Alpha  occ. eigenvalues --   -0.60764  -0.60671  -0.60157  -0.59954  -0.59608
 Alpha  occ. eigenvalues --   -0.59245  -0.58382  -0.58048  -0.57342  -0.56973
 Alpha  occ. eigenvalues --   -0.56873  -0.56279  -0.55711  -0.55531  -0.55235
 Alpha  occ. eigenvalues --   -0.54655  -0.54244  -0.54108  -0.53937  -0.53196
 Alpha  occ. eigenvalues --   -0.52818  -0.51669  -0.51578  -0.51321  -0.50789
 Alpha  occ. eigenvalues --   -0.50387  -0.50362  -0.50077  -0.49680  -0.49564
 Alpha  occ. eigenvalues --   -0.49475  -0.49013  -0.48864  -0.48253  -0.48140
 Alpha  occ. eigenvalues --   -0.47750  -0.47255  -0.47099  -0.46561  -0.46139
 Alpha  occ. eigenvalues --   -0.45792  -0.45471  -0.45203  -0.44967  -0.44608
 Alpha  occ. eigenvalues --   -0.43782  -0.42513  -0.42020  -0.41644  -0.41026
 Alpha  occ. eigenvalues --   -0.40348  -0.40284  -0.39988  -0.38717  -0.38483
 Alpha  occ. eigenvalues --   -0.38153  -0.37744  -0.37253  -0.36888  -0.36373
 Alpha  occ. eigenvalues --   -0.35443  -0.35048  -0.34829  -0.34288  -0.33327
 Alpha  occ. eigenvalues --   -0.29117  -0.27627
 Alpha virt. eigenvalues --   -0.10640  -0.10107  -0.09205  -0.08553  -0.08017
 Alpha virt. eigenvalues --   -0.07625  -0.07354  -0.06563  -0.05731  -0.04169
 Alpha virt. eigenvalues --   -0.03987  -0.02127  -0.01909  -0.00955  -0.00670

 Mulliken charges:
               1
     1  N   -0.779000
     2  H    0.440210
     3  H    0.395998
     4  H    0.377847
     5  C   -0.095864
     6  H    0.220195
     7  C    0.630213
     8  C   -0.284323
     9  H    0.169559
    10  H    0.180959
    11  O   -0.540639
    12  C   -0.377264
    13  H    0.209641
    14  H    0.208417
    15  C    0.601087
    16  O   -0.475767
    17  O   -0.540561
    18  N   -0.644743
    19  H    0.392793
    20  C   -0.031554
    21  H    0.208958
    22  C    0.609893
    23  C   -0.384329
    24  H    0.131105
    25  H    0.190399
    26  O   -0.561158
    27  C    0.010802
    28  C    0.001139
    29  H    0.166939
    30  C    0.089776
    31  C    0.310338
    32  C   -0.226025
    33  H    0.146968
    34  N   -0.678111
    35  H    0.344835
    36  C   -0.147540
    37  H    0.141758
    38  C   -0.158220
    39  H    0.140654
    40  C   -0.140160
    41  H    0.133679
    42  N   -0.609844
    43  H    0.381619
    44  C   -0.079896
    45  H    0.183376
    46  C    0.627933
    47  C    0.110213
    48  H    0.149719
    49  O   -0.551540
    50  C   -0.452959
    51  H    0.151900
    52  H    0.179102
    53  H    0.157951
    54  O   -0.652930
    55  H    0.423878
    56  N   -0.598444
    57  H    0.375572
    58  C   -0.024576
    59  H    0.169726
    60  C    0.603309
    61  C   -0.316353
    62  H    0.180077
    63  H    0.164397
    64  O   -0.436829
    65  C   -0.278542
    66  H    0.150096
    67  H    0.180183
    68  C   -0.180184
    69  H    0.173762
    70  H    0.194211
    71  N   -0.603631
    72  H    0.349431
    73  N   -0.747212
    74  H    0.355870
    75  H    0.357634
    76  N   -0.791146
    77  H    0.314795
    78  C    0.721341
    79  O   -0.574516
    80  H    0.428509
    81  H    0.425092
 Sum of Mulliken charges =   1.00000

 Dipole moment (field-independent basis, Debye):
    X=             -5.1509    Y=             17.6299    Z=             -6.7400  Tot=             19.5646
 Quadrupole moment (field-independent basis, Debye-Ang):
   XX=           -203.2677   YY=           -122.3786   ZZ=           -192.6078
   XY=            -29.4697   XZ=            -13.0643   YZ=            -28.1701

 Normal termination of Gaussian 16 at Thu May 26 18:08:28 2022.
