 Gaussian 16, Revision C.01,
 Gaussian 16:  ES64L-G16RevC.01  3-Jul-2019

 ----------------------------------------------------------------------
 # B3LYP/6-31G* empiricaldispersion=gd3 guess=read geom=check nosymm in
 tegral(ultrafinegrid)
 ----------------------------------------------------------------------

 ------------------------------------------------------
 Candidate Structure: Conf:112 Charge calc in gas phase
 ------------------------------------------------------
 Structure from the checkpoint file:  "conf-112.chk"
 Charge =  1 Multiplicity = 1

                          Input orientation:
 ---------------------------------------------------------------------
 Center     Atomic      Atomic             Coordinates (Angstroms)
 Number     Number       Type             X           Y           Z
 ---------------------------------------------------------------------
      1          7           0       -2.962115   -0.743881    4.283211
      2          1           0       -3.504425   -1.527828    3.923497
      3          1           0       -1.991723   -1.058356    4.308720
      4          6           0       -3.034642    0.357988    3.342856
      5          1           0       -4.060203    0.754423    3.345983
      6          6           0       -2.689305   -0.041859    1.891218
      7          6           0       -2.090521    1.507673    3.791116
      8          1           0       -2.376598    2.451654    3.313681
      9          1           0       -2.221384    1.625456    4.872405
     10          8           0       -2.210140   -1.140507    1.603588
     11          6           0       -0.625135    1.171190    3.512800
     12          7           0        0.133483    2.139851    2.944871
     13          1           0        1.129661    1.956903    2.785903
     14          1           0       -0.216994    3.076959    2.816406
     15          8           0       -0.179343    0.047314    3.755684
     16          7           0       -2.886864    0.919699    0.945606
     17          1           0       -3.399762    1.756065    1.191572
     18          6           0       -2.641929    0.668392   -0.474859
     19          1           0       -2.872690   -0.388180   -0.655501
     20          6           0       -1.144381    0.902290   -0.762371
     21          6           0       -3.529270    1.562975   -1.354503
     22          1           0       -3.185210    2.598380   -1.261723
     23          1           0       -3.355921    1.278381   -2.398402
     24          8           0       -0.750229    1.869575   -1.429192
     25          6           0       -4.992664    1.444034   -0.991538
     26          6           0       -5.709537    0.275626   -1.283000
     27          1           0       -5.218071   -0.536187   -1.815387
     28          6           0       -5.644093    2.477207   -0.306681
     29          1           0       -5.106113    3.398655   -0.089751
     30          6           0       -7.042313    0.142107   -0.896497
     31          1           0       -7.584346   -0.769714   -1.131656
     32          6           0       -6.979496    2.347696    0.083483
     33          1           0       -7.470153    3.161368    0.610519
     34          6           0       -7.681027    1.178136   -0.209224
     35          1           0       -8.719560    1.074188    0.091601
     36          7           0       -0.307564   -0.004808   -0.204896
     37          1           0       -0.739200   -0.707476    0.400345
     38          6           0        1.116023    0.290794   -0.005339
     39          1           0        1.198828    1.367816    0.190309
     40          6           0        1.960093    0.002490   -1.265230
     41          6           0        1.677260   -0.478318    1.194268
     42          1           0        1.878039   -1.515760    0.915709
     43          1           0        0.957850   -0.465940    2.019955
     44          8           0        2.949672   -0.730814   -1.267580
     45          6           0        2.926485    0.226731    1.710921
     46          7           0        4.094982   -0.448219    1.574969
     47          1           0        4.942535    0.040943    1.832144
     48          1           0        4.158835   -1.166381    0.866127
     49          8           0        2.862046    1.342566    2.232156
     50          7           0        1.558470    0.659416   -2.384370
     51          1           0        0.785076    1.326208   -2.298939
     52          6           0        2.316401    0.508675   -3.598709
     53          1           0        2.426266   -0.558788   -3.825344
     54          6           0        3.753051    1.012943   -3.455988
     55          6           0        1.579348    1.197210   -4.771582
     56          1           0        0.532869    0.886708   -4.690156
     57          1           0        1.587785    2.285945   -4.629718
     58          8           0        4.673672    0.654445   -4.183090
     59          6           0        2.103152    0.814619   -6.170770
     60          1           0        2.489074   -0.211516   -6.146850
     61          1           0        1.268536    0.808645   -6.880968
     62          6           0        3.189945    1.754283   -6.722172
     63          1           0        2.760576    2.717679   -7.009524
     64          1           0        3.967493    1.963299   -5.986869
     65          7           0        3.842835    1.207255   -7.923203
     66          1           0        3.370024    1.350391   -8.806401
     67          7           0        5.282735   -0.217309   -6.765285
     68          1           0        6.137791   -0.756254   -6.768255
     69          1           0        4.913168    0.033807   -5.837448
     70          7           0        5.309833   -0.155891   -9.082984
     71          1           0        5.988199   -0.903062   -9.116781
     72          1           0        5.158368    0.359579   -9.938047
     73          6           0        4.812523    0.280469   -7.907056
     74          8           0        3.915671    1.932623   -2.510139
     75          1           0        4.860603    2.178877   -2.486590
 ---------------------------------------------------------------------

 SCF Done:  E(RB3LYP) =  -1917.48481972     A.U. after    3 cycles

 Alpha  occ. eigenvalues --  -19.31574 -19.26737 -19.20561 -19.20340 -19.18608
 Alpha  occ. eigenvalues --  -19.18200 -19.16579 -14.53404 -14.53278 -14.51992
 Alpha  occ. eigenvalues --  -14.44013 -14.43342 -14.43307 -14.41795 -14.40328
 Alpha  occ. eigenvalues --  -14.35062 -10.49513 -10.44466 -10.36998 -10.36863
 Alpha  occ. eigenvalues --  -10.36678 -10.35574 -10.34987 -10.34861 -10.34377
 Alpha  occ. eigenvalues --  -10.32126 -10.31651 -10.31253 -10.30959 -10.28449
 Alpha  occ. eigenvalues --  -10.26293 -10.25961 -10.25736 -10.25374 -10.25054
 Alpha  occ. eigenvalues --  -10.24899 -10.24895 -10.24839 -10.24638  -1.23049
 Alpha  occ. eigenvalues --   -1.17843  -1.13763  -1.12516  -1.11626  -1.10311
 Alpha  occ. eigenvalues --   -1.09672  -1.08269  -1.07301  -1.05658  -1.01793
 Alpha  occ. eigenvalues --   -1.00286  -0.99402  -0.96738  -0.95200  -0.93398
 Alpha  occ. eigenvalues --   -0.92779  -0.91566  -0.87808  -0.86080  -0.84832
 Alpha  occ. eigenvalues --   -0.82100  -0.81507  -0.80328  -0.79548  -0.79397
 Alpha  occ. eigenvalues --   -0.75809  -0.75308  -0.74679  -0.72951  -0.71993
 Alpha  occ. eigenvalues --   -0.71390  -0.70575  -0.67612  -0.66765  -0.66708
 Alpha  occ. eigenvalues --   -0.66005  -0.65613  -0.65327  -0.64489  -0.63866
 Alpha  occ. eigenvalues --   -0.63158  -0.62895  -0.61867  -0.60621  -0.60542
 Alpha  occ. eigenvalues --   -0.59905  -0.59519  -0.59296  -0.58798  -0.58291
 Alpha  occ. eigenvalues --   -0.57457  -0.57294  -0.56564  -0.56324  -0.55682
 Alpha  occ. eigenvalues --   -0.55357  -0.54263  -0.53653  -0.52345  -0.52179
 Alpha  occ. eigenvalues --   -0.51858  -0.51649  -0.51464  -0.51102  -0.50491
 Alpha  occ. eigenvalues --   -0.50000  -0.49738  -0.49435  -0.48364  -0.47937
 Alpha  occ. eigenvalues --   -0.47759  -0.47699  -0.47130  -0.46915  -0.46480
 Alpha  occ. eigenvalues --   -0.46151  -0.45976  -0.45799  -0.45412  -0.44779
 Alpha  occ. eigenvalues --   -0.43859  -0.43801  -0.43716  -0.43253  -0.43081
 Alpha  occ. eigenvalues --   -0.42785  -0.42011  -0.41828  -0.41481  -0.40783
 Alpha  occ. eigenvalues --   -0.40509  -0.39938  -0.39841  -0.36277  -0.35413
 Alpha  occ. eigenvalues --   -0.34555  -0.33381  -0.33036  -0.32281  -0.32178
 Alpha  occ. eigenvalues --   -0.31973  -0.31481  -0.30926  -0.30454  -0.30271
 Alpha  occ. eigenvalues --   -0.28109
 Alpha virt. eigenvalues --   -0.13231  -0.11630  -0.09559  -0.07015  -0.06734
 Alpha virt. eigenvalues --   -0.06326  -0.06010  -0.05647  -0.04698  -0.04334
 Alpha virt. eigenvalues --   -0.03726  -0.03605  -0.02857  -0.02102  -0.00804

 Mulliken charges:
               1
     1  N   -0.705714
     2  H    0.305063
     3  H    0.342246
     4  C   -0.075918
     5  H    0.157428
     6  C    0.599488
     7  C   -0.353341
     8  H    0.128501
     9  H    0.208498
    10  O   -0.538638
    11  C    0.597726
    12  N   -0.784084
    13  H    0.401015
    14  H    0.331613
    15  O   -0.518899
    16  N   -0.598284
    17  H    0.338970
    18  C   -0.050210
    19  H    0.187224
    20  C    0.638394
    21  C   -0.390483
    22  H    0.171635
    23  H    0.162576
    24  O   -0.564567
    25  C    0.177356
    26  C   -0.176257
    27  H    0.127093
    28  C   -0.208460
    29  H    0.125251
    30  C   -0.127021
    31  H    0.143671
    32  C   -0.126213
    33  H    0.142924
    34  C   -0.128661
    35  H    0.145365
    36  N   -0.630782
    37  H    0.395319
    38  C   -0.064300
    39  H    0.198497
    40  C    0.647216
    41  C   -0.423313
    42  H    0.168561
    43  H    0.247991
    44  O   -0.549668
    45  C    0.596513
    46  N   -0.719454
    47  H    0.340809
    48  H    0.359941
    49  O   -0.524354
    50  N   -0.652625
    51  H    0.393276
    52  C   -0.000649
    53  H    0.193423
    54  C    0.628800
    55  C   -0.322539
    56  H    0.193511
    57  H    0.174536
    58  O   -0.522871
    59  C   -0.277724
    60  H    0.161873
    61  H    0.169507
    62  C   -0.191239
    63  H    0.196317
    64  H    0.199437
    65  N   -0.594412
    66  H    0.363530
    67  N   -0.788244
    68  H    0.374090
    69  H    0.445739
    70  N   -0.768018
    71  H    0.383636
    72  H    0.382737
    73  C    0.822586
    74  O   -0.522864
    75  H    0.429925
 Sum of Mulliken charges =   1.00000

 Dipole moment (field-independent basis, Debye):
    X=             15.4215    Y=              5.4637    Z=            -33.6944  Tot=             37.4565
 Quadrupole moment (field-independent basis, Debye-Ang):
   XX=            -89.3395   YY=           -208.1251   ZZ=             30.2236
   XY=             -4.6406   XZ=           -150.9959   YZ=             -3.5356

 Normal termination of Gaussian 16 at Tue May 31 12:10:03 2022.
