 Gaussian 16, Revision C.01,
 Gaussian 16:  ES64L-G16RevC.01  3-Jul-2019

 ----------------------------------------------------------------------
 # B3LYP/6-31G* empiricaldispersion=gd3 guess=read geom=check nosymm in
 tegral(ultrafinegrid)
 ----------------------------------------------------------------------

 ------------------------------------------------------
 Candidate Structure: Conf:746 Charge calc in gas phase
 ------------------------------------------------------
 Structure from the checkpoint file:  "conf-746.chk"
 Charge =  1 Multiplicity = 1

                          Input orientation:
 ---------------------------------------------------------------------
 Center     Atomic      Atomic             Coordinates (Angstroms)
 Number     Number       Type             X           Y           Z
 ---------------------------------------------------------------------
      1          7           0       -3.593407    4.457159    2.335576
      2          1           0       -4.239148    4.417836    1.547923
      3          1           0       -4.079192    3.944113    3.073640
      4          6           0       -2.391454    3.708381    1.988969
      5          1           0       -2.032606    4.073703    1.017065
      6          6           0       -2.640664    2.195939    1.783874
      7          6           0       -1.284904    4.023247    3.021528
      8          1           0       -1.711099    3.993523    4.030233
      9          1           0       -0.474871    3.289279    2.985543
     10          8           0       -3.765182    1.708196    1.851108
     11          6           0       -0.667005    5.369174    2.670348
     12          7           0       -0.971437    6.413196    3.479444
     13          1           0       -0.687203    7.335755    3.175600
     14          1           0       -1.772204    6.358192    4.092868
     15          8           0        0.073359    5.481805    1.689780
     16          7           0       -1.527093    1.505736    1.437025
     17          1           0       -0.635452    1.985197    1.367355
     18          6           0       -1.505854    0.207858    0.795500
     19          1           0       -1.824594   -0.577912    1.493519
     20          6           0       -0.030014   -0.037241    0.436293
     21          6           0       -2.443483    0.144791   -0.444900
     22          1           0       -2.242196   -0.780515   -0.995990
     23          1           0       -3.466007    0.082661   -0.068858
     24          8           0        0.837247    0.790691    0.737036
     25          6           0       -2.320427    1.347102   -1.359263
     26          6           0       -3.364780    2.283724   -1.394635
     27          1           0       -4.215745    2.148014   -0.733507
     28          6           0       -1.201229    1.546129   -2.183777
     29          1           0       -0.371076    0.845250   -2.168532
     30          6           0       -3.331189    3.363869   -2.275031
     31          1           0       -4.167308    4.056172   -2.319835
     32          6           0       -1.161674    2.630115   -3.068334
     33          1           0       -0.316050    2.741300   -3.743477
     34          6           0       -2.240101    3.521221   -3.131772
     35          1           0       -2.286506    4.297187   -3.895980
     36          7           0        0.253516   -1.152750   -0.259978
     37          1           0       -0.420106   -1.908865   -0.396321
     38          6           0        1.617621   -1.466525   -0.669997
     39          1           0        2.199473   -1.816300    0.194073
     40          6           0        2.275585   -0.202318   -1.265923
     41          6           0        1.597855   -2.553665   -1.764674
     42          1           0        2.631782   -2.796408   -2.031775
     43          1           0        1.123863   -2.116152   -2.651071
     44          8           0        1.803830    0.348881   -2.257041
     45          6           0        0.798855   -3.796161   -1.377360
     46          7           0        1.405387   -4.989268   -1.574026
     47          1           0        0.877367   -5.831616   -1.386546
     48          1           0        2.320385   -5.078370   -1.988933
     49          8           0       -0.345219   -3.710031   -0.925201
     50          7           0        3.420768    0.211065   -0.664503
     51          1           0        3.654453   -0.133781    0.259755
     52          6           0        3.946835    1.543028   -0.942163
     53          1           0        4.078096    1.667497   -2.020395
     54          6           0        5.298883    1.631195   -0.251676
     55          6           0        2.985483    2.632611   -0.405539
     56          1           0        2.025834    2.443500   -0.894956
     57          1           0        2.823643    2.456708    0.660647
     58          8           0        5.629972    0.948561    0.691739
     59          6           0        3.411391    4.086149   -0.627125
     60          1           0        4.238216    4.354917    0.039174
     61          1           0        3.787404    4.224226   -1.650940
     62          6           0        2.232072    5.032204   -0.350540
     63          1           0        1.719440    4.791081    0.583063
     64          1           0        2.546991    6.076218   -0.250966
     65          7           0        1.209869    4.972381   -1.414492
     66          1           0        0.450727    4.305134   -1.322205
     67          7           0        2.347701    6.388583   -2.876114
     68          1           0        2.267075    7.161360   -3.520465
     69          1           0        3.191851    6.337139   -2.328591
     70          7           0        0.193021    5.723734   -3.361363
     71          1           0        0.316871    5.946016   -4.339576
     72          1           0       -0.651031    5.224056   -3.102814
     73          6           0        1.256804    5.680666   -2.537176
     74          8           0        6.070271    2.602272   -0.783780
     75          1           0        6.899927    2.623082   -0.267732
 ---------------------------------------------------------------------

 SCF Done:  E(RB3LYP) =  -1917.48040662     A.U. after    1 cycles

 Alpha  occ. eigenvalues --  -19.29521 -19.23776 -19.21254 -19.20813 -19.20700
 Alpha  occ. eigenvalues --  -19.19937 -19.18786 -14.51963 -14.51453 -14.51068
 Alpha  occ. eigenvalues --  -14.44994 -14.44923 -14.44551 -14.43925 -14.42808
 Alpha  occ. eigenvalues --  -14.39005 -10.47832 -10.41705 -10.38587 -10.38028
 Alpha  occ. eigenvalues --  -10.37918 -10.37465 -10.35541 -10.33915 -10.33493
 Alpha  occ. eigenvalues --  -10.33383 -10.32023 -10.30367 -10.29796 -10.29493
 Alpha  occ. eigenvalues --  -10.28534 -10.28426 -10.28421 -10.28331 -10.27960
 Alpha  occ. eigenvalues --  -10.27755 -10.27182 -10.27115 -10.27109  -1.20353
 Alpha  occ. eigenvalues --   -1.16436  -1.13802  -1.12470  -1.12404  -1.11473
 Alpha  occ. eigenvalues --   -1.11447  -1.10476  -1.05523  -1.04615  -1.01790
 Alpha  occ. eigenvalues --   -1.01603  -1.00105  -0.99655  -0.98721  -0.96453
 Alpha  occ. eigenvalues --   -0.94256  -0.90859  -0.88644  -0.86763  -0.85507
 Alpha  occ. eigenvalues --   -0.84190  -0.83131  -0.81859  -0.80480  -0.77971
 Alpha  occ. eigenvalues --   -0.76837  -0.75485  -0.74079  -0.73166  -0.72308
 Alpha  occ. eigenvalues --   -0.70640  -0.69349  -0.69216  -0.68183  -0.67774
 Alpha  occ. eigenvalues --   -0.67578  -0.67030  -0.66313  -0.65198  -0.64478
 Alpha  occ. eigenvalues --   -0.64241  -0.63066  -0.62130  -0.61589  -0.61020
 Alpha  occ. eigenvalues --   -0.60244  -0.59761  -0.59244  -0.58859  -0.58285
 Alpha  occ. eigenvalues --   -0.58129  -0.57319  -0.56629  -0.56411  -0.55839
 Alpha  occ. eigenvalues --   -0.55524  -0.54757  -0.54437  -0.54152  -0.54024
 Alpha  occ. eigenvalues --   -0.53139  -0.52324  -0.52038  -0.51919  -0.51270
 Alpha  occ. eigenvalues --   -0.51184  -0.50813  -0.50285  -0.49767  -0.49416
 Alpha  occ. eigenvalues --   -0.48976  -0.48936  -0.48716  -0.48364  -0.47869
 Alpha  occ. eigenvalues --   -0.47480  -0.47058  -0.46680  -0.46235  -0.45735
 Alpha  occ. eigenvalues --   -0.45562  -0.44797  -0.44682  -0.44443  -0.44122
 Alpha  occ. eigenvalues --   -0.43674  -0.42936  -0.42594  -0.42111  -0.41539
 Alpha  occ. eigenvalues --   -0.41261  -0.40150  -0.37564  -0.36368  -0.35955
 Alpha  occ. eigenvalues --   -0.35562  -0.35531  -0.34805  -0.34436  -0.34061
 Alpha  occ. eigenvalues --   -0.34014  -0.33613  -0.33452  -0.33127  -0.32665
 Alpha  occ. eigenvalues --   -0.31259
 Alpha virt. eigenvalues --   -0.12108  -0.10271  -0.09407  -0.08971  -0.07898
 Alpha virt. eigenvalues --   -0.07375  -0.06680  -0.06453  -0.05810  -0.04891
 Alpha virt. eigenvalues --   -0.04219  -0.03357  -0.01645  -0.01500  -0.01143

 Mulliken charges:
               1
     1  N   -0.706699
     2  H    0.312058
     3  H    0.314723
     4  C   -0.100991
     5  H    0.165082
     6  C    0.600387
     7  C   -0.346194
     8  H    0.161900
     9  H    0.177789
    10  O   -0.530217
    11  C    0.598744
    12  N   -0.715937
    13  H    0.344490
    14  H    0.357944
    15  O   -0.545737
    16  N   -0.627618
    17  H    0.353666
    18  C   -0.021889
    19  H    0.194976
    20  C    0.630292
    21  C   -0.392108
    22  H    0.172877
    23  H    0.201389
    24  O   -0.562479
    25  C    0.164827
    26  C   -0.195395
    27  H    0.172470
    28  C   -0.202170
    29  H    0.199940
    30  C   -0.129704
    31  H    0.151366
    32  C   -0.179295
    33  H    0.139234
    34  C   -0.182241
    35  H    0.133891
    36  N   -0.641919
    37  H    0.395022
    38  C   -0.019390
    39  H    0.163274
    40  C    0.652350
    41  C   -0.400757
    42  H    0.164532
    43  H    0.216602
    44  O   -0.541364
    45  C    0.622340
    46  N   -0.738054
    47  H    0.363325
    48  H    0.354232
    49  O   -0.524184
    50  N   -0.596656
    51  H    0.356160
    52  C   -0.039567
    53  H    0.191508
    54  C    0.586313
    55  C   -0.278639
    56  H    0.175556
    57  H    0.180198
    58  O   -0.454472
    59  C   -0.278265
    60  H    0.170772
    61  H    0.138918
    62  C   -0.206395
    63  H    0.244104
    64  H    0.170204
    65  N   -0.574147
    66  H    0.379221
    67  N   -0.755546
    68  H    0.380712
    69  H    0.388862
    70  N   -0.773285
    71  H    0.373462
    72  H    0.380513
    73  C    0.808664
    74  O   -0.569088
    75  H    0.425512
 Sum of Mulliken charges =   1.00000

 Dipole moment (field-independent basis, Debye):
    X=              8.6197    Y=             17.8293    Z=             -8.4060  Tot=             21.5138
 Quadrupole moment (field-independent basis, Debye-Ang):
   XX=           -183.0582   YY=            -49.5070   ZZ=           -179.5884
   XY=             13.7376   XZ=            -20.5485   YZ=            -29.7106

 Normal termination of Gaussian 16 at Tue May 31 12:09:42 2022.
