 Gaussian 16, Revision C.01,
 Gaussian 16:  ES64L-G16RevC.01  3-Jul-2019

 ----------------------------------------------------------------------
 # B3LYP/6-31G* empiricaldispersion=gd3 guess=read geom=check nosymm in
 tegral(ultrafinegrid)
 ----------------------------------------------------------------------

 ------------------------------------------------------
 Candidate Structure: Conf:950 Charge calc in gas phase
 ------------------------------------------------------
 Structure from the checkpoint file:  "conf-950.chk"
 Charge =  1 Multiplicity = 1

                          Input orientation:
 ---------------------------------------------------------------------
 Center     Atomic      Atomic             Coordinates (Angstroms)
 Number     Number       Type             X           Y           Z
 ---------------------------------------------------------------------
      1          7           0       -3.861791   -1.246170    3.194364
      2          1           0       -4.698701   -1.364852    2.625104
      3          1           0       -3.250705   -2.028173    2.955676
      4          6           0       -3.180244   -0.004427    2.828678
      5          1           0       -3.919834    0.805889    2.845347
      6          6           0       -2.535484   -0.086296    1.437424
      7          6           0       -2.060146    0.326783    3.844128
      8          1           0       -1.404038   -0.550260    3.934871
      9          1           0       -1.444319    1.151853    3.477025
     10          8           0       -2.167050   -1.167880    0.965131
     11          6           0       -2.525283    0.747698    5.249034
     12          7           0       -3.581648    0.054182    5.741448
     13          1           0       -3.904148    0.272894    6.673443
     14          1           0       -4.007678   -0.686205    5.189234
     15          8           0       -1.943809    1.639873    5.850680
     16          7           0       -2.333252    1.091812    0.793894
     17          1           0       -2.724280    1.937981    1.187336
     18          6           0       -1.811523    1.154043   -0.571542
     19          1           0       -2.223015    0.291582   -1.109683
     20          6           0       -0.272844    1.022245   -0.551130
     21          6           0       -2.247686    2.457236   -1.259892
     22          1           0       -1.711725    3.289297   -0.787570
     23          1           0       -1.901122    2.407487   -2.298370
     24          8           0        0.479508    1.985733   -0.771363
     25          6           0       -3.742416    2.675810   -1.196217
     26          6           0       -4.610396    1.890064   -1.966511
     27          1           0       -4.200939    1.145403   -2.646549
     28          6           0       -4.288207    3.627983   -0.326210
     29          1           0       -3.626613    4.257578    0.267007
     30          6           0       -5.991841    2.049610   -1.866139
     31          1           0       -6.652434    1.435222   -2.471434
     32          6           0       -5.672275    3.790178   -0.222080
     33          1           0       -6.079340    4.535738    0.454995
     34          6           0       -6.526547    2.999493   -0.990931
     35          1           0       -7.602585    3.124872   -0.914226
     36          7           0        0.179018   -0.208161   -0.250412
     37          1           0       -0.521113   -0.899528    0.025955
     38          6           0        1.596538   -0.469020    0.000609
     39          1           0        2.024447    0.414180    0.480161
     40          6           0        2.341936   -0.737164   -1.327508
     41          6           0        1.767613   -1.677038    0.916120
     42          1           0        1.430409   -2.582187    0.398204
     43          1           0        1.162166   -1.554759    1.822515
     44          8           0        2.407112   -1.852248   -1.827791
     45          6           0        3.248695   -1.825248    1.278074
     46          7           0        3.542603   -2.858955    2.108285
     47          1           0        4.510798   -3.023005    2.348683
     48          1           0        2.851106   -3.530147    2.408813
     49          8           0        4.096952   -1.049593    0.849790
     50          7           0        2.889248    0.367852   -1.905573
     51          1           0        2.849704    1.239477   -1.395661
     52          6           0        3.894213    0.230722   -2.947705
     53          1           0        4.607664   -0.549932   -2.662985
     54          6           0        4.650377    1.544175   -3.023836
     55          6           0        3.292093   -0.181833   -4.329901
     56          1           0        4.082309   -0.134798   -5.089151
     57          1           0        3.011411   -1.230011   -4.209812
     58          8           0        4.170457    2.642150   -2.775660
     59          6           0        2.045006    0.608081   -4.756639
     60          1           0        1.457607    0.006636   -5.459005
     61          1           0        1.419661    0.756167   -3.871748
     62          6           0        2.347735    1.970102   -5.412851
     63          1           0        3.208999    2.463516   -4.958341
     64          1           0        2.588585    1.847168   -6.471436
     65          7           0        1.194832    2.890471   -5.353387
     66          1           0        0.754913    3.164245   -6.221074
     67          7           0        1.299984    3.289927   -3.056303
     68          1           0        0.792824    3.097774   -2.182884
     69          1           0        2.294928    3.059624   -3.026757
     70          7           0       -0.623009    3.791019   -4.221007
     71          1           0       -0.925699    4.419845   -3.491034
     72          1           0       -1.209323    3.710498   -5.038262
     73          6           0        0.642971    3.320867   -4.209950
     74          8           0        5.905888    1.379569   -3.439741
     75          1           0        6.331821    2.258337   -3.490739
 ---------------------------------------------------------------------

 SCF Done:  E(RB3LYP) =  -1917.48606327     A.U. after    1 cycles

 Alpha  occ. eigenvalues --  -19.31749 -19.26744 -19.23398 -19.22424 -19.20487
 Alpha  occ. eigenvalues --  -19.19207 -19.16050 -14.51883 -14.51660 -14.48686
 Alpha  occ. eigenvalues --  -14.46916 -14.46144 -14.45261 -14.43399 -14.41137
 Alpha  occ. eigenvalues --  -14.40015 -10.47236 -10.44486 -10.39726 -10.38766
 Alpha  occ. eigenvalues --  -10.37639 -10.37117 -10.35533 -10.34418 -10.34398
 Alpha  occ. eigenvalues --  -10.34225 -10.32667 -10.32035 -10.30141 -10.30134
 Alpha  occ. eigenvalues --  -10.29627 -10.29166 -10.28535 -10.28071 -10.27993
 Alpha  occ. eigenvalues --  -10.27789 -10.27748 -10.27499 -10.27121  -1.23059
 Alpha  occ. eigenvalues --   -1.15874  -1.14870  -1.14001  -1.13860  -1.12576
 Alpha  occ. eigenvalues --   -1.10917  -1.07950  -1.05513  -1.03585  -1.03211
 Alpha  occ. eigenvalues --   -1.02625  -1.02137  -0.98468  -0.98160  -0.94875
 Alpha  occ. eigenvalues --   -0.94689  -0.91298  -0.89547  -0.87872  -0.86228
 Alpha  occ. eigenvalues --   -0.84397  -0.83307  -0.82454  -0.81478  -0.77821
 Alpha  occ. eigenvalues --   -0.77506  -0.75837  -0.74002  -0.73505  -0.72956
 Alpha  occ. eigenvalues --   -0.71270  -0.69743  -0.69626  -0.68774  -0.68373
 Alpha  occ. eigenvalues --   -0.67306  -0.66876  -0.66329  -0.64718  -0.64375
 Alpha  occ. eigenvalues --   -0.64174  -0.63608  -0.62484  -0.61792  -0.61403
 Alpha  occ. eigenvalues --   -0.60753  -0.60416  -0.60218  -0.59737  -0.59188
 Alpha  occ. eigenvalues --   -0.58765  -0.58483  -0.58369  -0.57045  -0.56504
 Alpha  occ. eigenvalues --   -0.55726  -0.55064  -0.54630  -0.54416  -0.54059
 Alpha  occ. eigenvalues --   -0.53589  -0.53321  -0.52943  -0.52266  -0.52188
 Alpha  occ. eigenvalues --   -0.51924  -0.51229  -0.50931  -0.50820  -0.50547
 Alpha  occ. eigenvalues --   -0.50016  -0.49489  -0.49073  -0.48029  -0.47837
 Alpha  occ. eigenvalues --   -0.47236  -0.46984  -0.46735  -0.46521  -0.46201
 Alpha  occ. eigenvalues --   -0.45702  -0.45128  -0.44790  -0.44706  -0.44567
 Alpha  occ. eigenvalues --   -0.44160  -0.43760  -0.43004  -0.42893  -0.42133
 Alpha  occ. eigenvalues --   -0.41665  -0.40768  -0.39712  -0.39036  -0.37720
 Alpha  occ. eigenvalues --   -0.36807  -0.35576  -0.34961  -0.34429  -0.33970
 Alpha  occ. eigenvalues --   -0.33854  -0.33488  -0.33217  -0.33119  -0.31479
 Alpha  occ. eigenvalues --   -0.29911
 Alpha virt. eigenvalues --   -0.12446  -0.11799  -0.09683  -0.09450  -0.09195
 Alpha virt. eigenvalues --   -0.07923  -0.07769  -0.06500  -0.04949  -0.04471
 Alpha virt. eigenvalues --   -0.03367  -0.02616  -0.01496  -0.01401  -0.01035

 Mulliken charges:
               1
     1  N   -0.716204
     2  H    0.321944
     3  H    0.327248
     4  C   -0.093095
     5  H    0.163560
     6  C    0.613177
     7  C   -0.355451
     8  H    0.171310
     9  H    0.171153
    10  O   -0.550135
    11  C    0.576813
    12  N   -0.750141
    13  H    0.342494
    14  H    0.376236
    15  O   -0.503190
    16  N   -0.596606
    17  H    0.349599
    18  C   -0.045657
    19  H    0.188742
    20  C    0.646594
    21  C   -0.417278
    22  H    0.166840
    23  H    0.151780
    24  O   -0.579145
    25  C    0.170001
    26  C   -0.182000
    27  H    0.127216
    28  C   -0.213504
    29  H    0.135714
    30  C   -0.128251
    31  H    0.151191
    32  C   -0.126606
    33  H    0.154834
    34  C   -0.128451
    35  H    0.155034
    36  N   -0.626710
    37  H    0.394765
    38  C   -0.037110
    39  H    0.189271
    40  C    0.655359
    41  C   -0.415580
    42  H    0.203578
    43  H    0.179081
    44  O   -0.521702
    45  C    0.638277
    46  N   -0.754427
    47  H    0.357158
    48  H    0.347963
    49  O   -0.518012
    50  N   -0.629041
    51  H    0.355745
    52  C   -0.005605
    53  H    0.217713
    54  C    0.582680
    55  C   -0.299557
    56  H    0.164677
    57  H    0.213340
    58  O   -0.495468
    59  C   -0.284026
    60  H    0.168500
    61  H    0.172856
    62  C   -0.182387
    63  H    0.189645
    64  H    0.188668
    65  N   -0.594175
    66  H    0.359315
    67  N   -0.789115
    68  H    0.410558
    69  H    0.418690
    70  N   -0.758694
    71  H    0.386017
    72  H    0.372330
    73  C    0.769339
    74  O   -0.533484
    75  H    0.433803
 Sum of Mulliken charges =   1.00000

 Dipole moment (field-independent basis, Debye):
    X=             -1.6881    Y=              7.8591    Z=            -15.9032  Tot=             17.8193
 Quadrupole moment (field-independent basis, Debye-Ang):
   XX=           -150.5366   YY=           -179.6546   ZZ=           -136.9329
   XY=             -6.6040   XZ=            -24.6550   YZ=            -74.6594

 Normal termination of Gaussian 16 at Tue May 31 12:28:05 2022.
