 Gaussian 16, Revision C.01,
 Gaussian 16:  ES64L-G16RevC.01  3-Jul-2019

 ----------------------------------------------------------------------
 # B3LYP/6-31G* empiricaldispersion=gd3 guess=read geom=check nosymm in
 tegral(ultrafinegrid)
 ----------------------------------------------------------------------

 -----------------------------------------------------
 Candidate Structure: Conf:34 Charge calc in gas phase
 -----------------------------------------------------
 Structure from the checkpoint file:  "conf-34.chk"
 Charge =  1 Multiplicity = 1

                          Input orientation:
 ---------------------------------------------------------------------
 Center     Atomic      Atomic             Coordinates (Angstroms)
 Number     Number       Type             X           Y           Z
 ---------------------------------------------------------------------
      1          7           0       -5.477237    1.183745    3.334764
      2          1           0       -6.107058    0.778321    2.643052
      3          1           0       -5.203036    0.403486    3.934769
      4          6           0       -4.288064    1.675690    2.653623
      5          1           0       -4.626558    2.235827    1.771404
      6          6           0       -3.352773    0.579178    2.115655
      7          6           0       -3.512875    2.642626    3.594405
      8          1           0       -3.610055    2.284857    4.624170
      9          1           0       -2.449946    2.685352    3.351794
     10          8           0       -3.504876   -0.603288    2.372843
     11          6           0       -4.095677    4.024982    3.418816
     12          7           0       -5.328300    4.202034    3.917768
     13          1           0       -5.819306    5.068152    3.737399
     14          1           0       -5.852096    3.384399    4.220913
     15          8           0       -3.483268    4.903767    2.777148
     16          7           0       -2.347051    1.079923    1.321416
     17          1           0       -2.457244    2.043571    1.032669
     18          6           0       -1.676281    0.238241    0.351823
     19          1           0       -1.770339   -0.784967    0.721868
     20          6           0       -0.210367    0.652837    0.242959
     21          6           0       -2.325144    0.347937   -1.081415
     22          1           0       -1.797329    1.122369   -1.650373
     23          1           0       -2.160976   -0.599193   -1.605138
     24          8           0        0.122203    1.858140    0.291177
     25          6           0       -3.792493    0.700165   -1.004406
     26          6           0       -4.748656   -0.249262   -0.622046
     27          1           0       -4.444491   -1.277625   -0.448572
     28          6           0       -4.204083    2.026567   -1.195635
     29          1           0       -3.472941    2.768884   -1.509662
     30          6           0       -6.079999    0.121903   -0.424074
     31          1           0       -6.809067   -0.629084   -0.132847
     32          6           0       -5.533527    2.404195   -0.996283
     33          1           0       -5.831472    3.437880   -1.150080
     34          6           0       -6.476083    1.450750   -0.603488
     35          1           0       -7.513237    1.736530   -0.452788
     36          7           0        0.634258   -0.355635    0.000531
     37          1           0        0.332109   -1.313684    0.206571
     38          6           0        2.087855   -0.218422   -0.154492
     39          1           0        2.452401    0.469818    0.617804
     40          6           0        2.396365    0.364573   -1.562084
     41          6           0        2.779230   -1.589284   -0.033181
     42          1           0        3.855732   -1.416485    0.054802
     43          1           0        2.622975   -2.121828   -0.977919
     44          8           0        2.692750   -0.340575   -2.515532
     45          6           0        2.238477   -2.477308    1.080106
     46          7           0        3.141817   -2.979352    1.953996
     47          1           0        2.819584   -3.648903    2.640796
     48          1           0        4.136243   -2.849740    1.842629
     49          8           0        1.034548   -2.740108    1.161140
     50          7           0        2.273700    1.713441   -1.635770
     51          1           0        1.878109    2.188669   -0.832741
     52          6           0        2.351902    2.408315   -2.905854
     53          1           0        1.834571    1.814844   -3.669916
     54          6           0        3.777052    2.576575   -3.444564
     55          6           0        1.696093    3.793411   -2.785028
     56          1           0        2.215177    4.341420   -1.984313
     57          1           0        1.884725    4.341769   -3.712056
     58          8           0        3.995838    3.046752   -4.537343
     59          6           0        0.187009    3.729383   -2.485890
     60          1           0       -0.376247    3.565087   -3.412535
     61          1           0       -0.039978    2.893887   -1.817351
     62          6           0       -0.267170    5.024172   -1.811494
     63          1           0        0.292162    5.181713   -0.883882
     64          1           0       -0.064908    5.887948   -2.454385
     65          7           0       -1.698817    5.068853   -1.470783
     66          1           0       -2.331358    5.418902   -2.178585
     67          7           0       -1.544989    4.277472    0.723681
     68          1           0       -1.915160    4.368746    1.674056
     69          1           0       -0.857011    3.543544    0.517724
     70          7           0       -3.404423    5.481301    0.050213
     71          1           0       -3.739315    5.399226    1.015841
     72          1           0       -3.709172    6.290855   -0.473078
     73          6           0       -2.201854    4.942952   -0.230044
     74          8           0        4.734736    2.184771   -2.583887
     75          1           0        5.586665    2.320894   -3.041533
 ---------------------------------------------------------------------

 SCF Done:  E(RB3LYP) =  -1917.50399838     A.U. after    1 cycles

 Alpha  occ. eigenvalues --  -19.27389 -19.24300 -19.23818 -19.21570 -19.21321
 Alpha  occ. eigenvalues --  -19.20875 -19.20345 -14.51480 -14.49928 -14.49395
 Alpha  occ. eigenvalues --  -14.46918 -14.46466 -14.45580 -14.45061 -14.44584
 Alpha  occ. eigenvalues --  -14.42161 -10.46946 -10.41134 -10.39999 -10.39684
 Alpha  occ. eigenvalues --  -10.38656 -10.38221 -10.37398 -10.35435 -10.33844
 Alpha  occ. eigenvalues --  -10.33641 -10.33266 -10.32829 -10.30438 -10.29836
 Alpha  occ. eigenvalues --  -10.29609 -10.29600 -10.29405 -10.29115 -10.28809
 Alpha  occ. eigenvalues --  -10.28749 -10.28443 -10.28333 -10.28124  -1.18243
 Alpha  occ. eigenvalues --   -1.15641  -1.14997  -1.14799  -1.13370  -1.12637
 Alpha  occ. eigenvalues --   -1.12285  -1.09187  -1.05054  -1.03315  -1.02986
 Alpha  occ. eigenvalues --   -1.02680  -1.02317  -1.01694  -0.99726  -0.99266
 Alpha  occ. eigenvalues --   -0.95102  -0.91245  -0.89629  -0.87826  -0.86817
 Alpha  occ. eigenvalues --   -0.85634  -0.83930  -0.83269  -0.80078  -0.77698
 Alpha  occ. eigenvalues --   -0.77366  -0.76343  -0.74199  -0.72637  -0.71925
 Alpha  occ. eigenvalues --   -0.70775  -0.70273  -0.69935  -0.68855  -0.68271
 Alpha  occ. eigenvalues --   -0.68022  -0.67932  -0.67607  -0.67126  -0.65374
 Alpha  occ. eigenvalues --   -0.64043  -0.63614  -0.63364  -0.62451  -0.62093
 Alpha  occ. eigenvalues --   -0.61517  -0.60599  -0.59893  -0.59566  -0.59096
 Alpha  occ. eigenvalues --   -0.58565  -0.58076  -0.57206  -0.57190  -0.57022
 Alpha  occ. eigenvalues --   -0.55992  -0.55585  -0.55116  -0.54875  -0.54651
 Alpha  occ. eigenvalues --   -0.54470  -0.53592  -0.53276  -0.52633  -0.52371
 Alpha  occ. eigenvalues --   -0.51520  -0.51495  -0.51289  -0.50750  -0.50420
 Alpha  occ. eigenvalues --   -0.49880  -0.49810  -0.49615  -0.48883  -0.48809
 Alpha  occ. eigenvalues --   -0.48382  -0.48336  -0.48129  -0.47619  -0.46914
 Alpha  occ. eigenvalues --   -0.46445  -0.45690  -0.45469  -0.44891  -0.44819
 Alpha  occ. eigenvalues --   -0.44466  -0.44255  -0.43449  -0.43200  -0.41783
 Alpha  occ. eigenvalues --   -0.39977  -0.39193  -0.39027  -0.38516  -0.38181
 Alpha  occ. eigenvalues --   -0.38044  -0.36656  -0.36486  -0.35956  -0.35850
 Alpha  occ. eigenvalues --   -0.34941  -0.34465  -0.34135  -0.33829  -0.33386
 Alpha  occ. eigenvalues --   -0.33051
 Alpha virt. eigenvalues --   -0.12111  -0.10780  -0.10215  -0.09901  -0.08423
 Alpha virt. eigenvalues --   -0.07433  -0.07217  -0.07048  -0.06592  -0.05953
 Alpha virt. eigenvalues --   -0.02726  -0.02093  -0.01641  -0.01229  -0.01119

 Mulliken charges:
               1
     1  N   -0.721594
     2  H    0.325514
     3  H    0.330878
     4  C   -0.118025
     5  H    0.177192
     6  C    0.608114
     7  C   -0.352868
     8  H    0.195764
     9  H    0.180150
    10  O   -0.502565
    11  C    0.587583
    12  N   -0.702234
    13  H    0.354054
    14  H    0.384267
    15  O   -0.571185
    16  N   -0.604836
    17  H    0.332739
    18  C   -0.064108
    19  H    0.212370
    20  C    0.642436
    21  C   -0.395093
    22  H    0.161146
    23  H    0.187181
    24  O   -0.591804
    25  C    0.172290
    26  C   -0.168764
    27  H    0.159868
    28  C   -0.205543
    29  H    0.112474
    30  C   -0.139938
    31  H    0.158165
    32  C   -0.132513
    33  H    0.131226
    34  C   -0.138989
    35  H    0.151352
    36  N   -0.606324
    37  H    0.394842
    38  C   -0.063438
    39  H    0.180671
    40  C    0.637307
    41  C   -0.403842
    42  H    0.171029
    43  H    0.231459
    44  O   -0.505309
    45  C    0.620318
    46  N   -0.738883
    47  H    0.361871
    48  H    0.355241
    49  O   -0.528546
    50  N   -0.617775
    51  H    0.357062
    52  C   -0.023589
    53  H    0.200971
    54  C    0.603213
    55  C   -0.321678
    56  H    0.152925
    57  H    0.198107
    58  O   -0.456097
    59  C   -0.291914
    60  H    0.161904
    61  H    0.180477
    62  C   -0.170521
    63  H    0.185895
    64  H    0.189111
    65  N   -0.593320
    66  H    0.358396
    67  N   -0.813889
    68  H    0.403775
    69  H    0.415312
    70  N   -0.771647
    71  H    0.410591
    72  H    0.360694
    73  C    0.754965
    74  O   -0.556801
    75  H    0.422735
 Sum of Mulliken charges =   1.00000

 Dipole moment (field-independent basis, Debye):
    X=             -8.9797    Y=             15.9436    Z=              3.7732  Tot=             18.6834
 Quadrupole moment (field-independent basis, Debye-Ang):
   XX=           -123.0028   YY=           -127.1082   ZZ=           -213.7083
   XY=            -66.9610   XZ=             -1.8044   YZ=            -10.2342

 Normal termination of Gaussian 16 at Tue May 31 12:09:42 2022.
