 Gaussian 16, Revision C.01,
 Gaussian 16:  ES64L-G16RevC.01  3-Jul-2019

 ----------------------------------------------------------------------
 # B3LYP/6-31G* empiricaldispersion=gd3 guess=read geom=check nosymm in
 tegral(ultrafinegrid)
 ----------------------------------------------------------------------

 ------------------------------------------------------
 Candidate Structure: Conf:883 Charge calc in gas phase
 ------------------------------------------------------
 Structure from the checkpoint file:  "conf-883.chk"
 Charge =  1 Multiplicity = 1

                          Input orientation:
 ---------------------------------------------------------------------
 Center     Atomic      Atomic             Coordinates (Angstroms)
 Number     Number       Type             X           Y           Z
 ---------------------------------------------------------------------
      1          7           0       -0.894859   -2.240509    4.021087
      2          1           0       -0.959821   -3.144616    3.556779
      3          1           0        0.049120   -1.898297    3.847388
      4          6           0       -1.845997   -1.323187    3.425943
      5          1           0       -2.856381   -1.606637    3.752816
      6          6           0       -1.829636   -1.319684    1.879003
      7          6           0       -1.593126    0.118564    3.949251
      8          1           0       -2.456365    0.760695    3.748129
      9          1           0       -1.466900    0.049975    5.033903
     10          8           0       -0.924147   -1.855314    1.242343
     11          6           0       -0.323922    0.735359    3.378780
     12          7           0       -0.479453    1.805065    2.564553
     13          1           0        0.347736    2.175800    2.114434
     14          1           0       -1.345781    1.985860    2.070325
     15          8           0        0.794030    0.272724    3.654153
     16          7           0       -2.852718   -0.658564    1.258941
     17          1           0       -3.532620   -0.153092    1.811619
     18          6           0       -2.810851   -0.374339   -0.178542
     19          1           0       -2.647663   -1.319371   -0.705594
     20          6           0       -1.625646    0.584264   -0.406284
     21          6           0       -4.127459    0.261309   -0.647169
     22          1           0       -4.950949   -0.393449   -0.338899
     23          1           0       -4.246023    1.222105   -0.132431
     24          8           0       -1.684657    1.760638   -0.037900
     25          6           0       -4.140696    0.461748   -2.148037
     26          6           0       -3.663040    1.650705   -2.715282
     27          1           0       -3.309791    2.445534   -2.064011
     28          6           0       -4.581352   -0.563453   -2.994477
     29          1           0       -4.959159   -1.489082   -2.564831
     30          6           0       -3.629789    1.810420   -4.101362
     31          1           0       -3.263032    2.740067   -4.528388
     32          6           0       -4.549414   -0.405268   -4.380413
     33          1           0       -4.901976   -1.206506   -5.023999
     34          6           0       -4.073145    0.783630   -4.937214
     35          1           0       -4.053932    0.910789   -6.016053
     36          7           0       -0.521879    0.025357   -0.958917
     37          1           0       -0.508758   -0.981926   -1.064554
     38          6           0        0.774270    0.667447   -0.865901
     39          1           0        0.584418    1.720143   -0.641835
     40          6           0        1.523337    0.491700   -2.185961
     41          6           0        1.614001    0.003733    0.263987
     42          1           0        1.989200   -0.955655   -0.111358
     43          1           0        0.970570   -0.215602    1.115533
     44          8           0        1.629082   -0.615764   -2.699877
     45          6           0        2.792651    0.870103    0.656812
     46          7           0        2.882011    1.201790    1.953217
     47          1           0        3.682822    1.745947    2.251587
     48          1           0        2.222440    0.843422    2.660705
     49          8           0        3.604592    1.295729   -0.192663
     50          7           0        2.123619    1.594205   -2.723370
     51          1           0        2.220933    2.412325   -2.135887
     52          6           0        3.097736    1.398810   -3.787283
     53          1           0        2.588942    1.209941   -4.736273
     54          6           0        4.016051    0.198927   -3.550288
     55          6           0        3.971195    2.676710   -3.885042
     56          1           0        3.287017    3.508179   -4.087332
     57          1           0        4.401518    2.867942   -2.891223
     58          8           0        4.421239   -0.482851   -4.476163
     59          6           0        5.089787    2.660814   -4.958292
     60          1           0        4.922024    1.853867   -5.680211
     61          1           0        5.047078    3.599157   -5.522118
     62          6           0        6.529258    2.555931   -4.412385
     63          1           0        7.233422    2.785550   -5.215126
     64          1           0        6.692459    3.290762   -3.617109
     65          7           0        6.860432    1.225121   -3.875577
     66          1           0        6.271258    0.884079   -3.116218
     67          7           0        8.531942    0.580393   -5.363761
     68          1           0        8.914666   -0.100290   -6.003847
     69          1           0        9.047362    1.439309   -5.235818
     70          7           0        7.143862   -1.010349   -4.377993
     71          1           0        7.732200   -1.768046   -4.696785
     72          1           0        6.144265   -1.188860   -4.213125
     73          6           0        7.509405    0.262990   -4.548276
     74          8           0        4.594981    0.089283   -2.346071
     75          1           0        4.113451    0.553970   -1.590580
 ---------------------------------------------------------------------

 SCF Done:  E(RB3LYP) =  -1917.50218685     A.U. after    1 cycles

 Alpha  occ. eigenvalues --  -19.28887 -19.24628 -19.22832 -19.22054 -19.21272
 Alpha  occ. eigenvalues --  -19.20737 -19.20238 -14.51758 -14.50345 -14.49844
 Alpha  occ. eigenvalues --  -14.46831 -14.45173 -14.45135 -14.44953 -14.44445
 Alpha  occ. eigenvalues --  -14.37523 -10.47203 -10.42751 -10.39861 -10.38861
 Alpha  occ. eigenvalues --  -10.38468 -10.37671 -10.36726 -10.35844 -10.34784
 Alpha  occ. eigenvalues --  -10.33687 -10.31958 -10.31575 -10.31104 -10.30733
 Alpha  occ. eigenvalues --  -10.29005 -10.28338 -10.27046 -10.26032 -10.24978
 Alpha  occ. eigenvalues --  -10.24888 -10.24843 -10.24761 -10.24749  -1.20369
 Alpha  occ. eigenvalues --   -1.15594  -1.14441  -1.13767  -1.12931  -1.12516
 Alpha  occ. eigenvalues --   -1.11734  -1.11668  -1.05059  -1.03681  -1.03424
 Alpha  occ. eigenvalues --   -1.02027  -1.01057  -1.00263  -0.99439  -0.95782
 Alpha  occ. eigenvalues --   -0.91958  -0.91754  -0.88554  -0.86609  -0.85946
 Alpha  occ. eigenvalues --   -0.83968  -0.80749  -0.80281  -0.80244  -0.78105
 Alpha  occ. eigenvalues --   -0.77272  -0.74443  -0.73852  -0.72562  -0.72368
 Alpha  occ. eigenvalues --   -0.71741  -0.69857  -0.68949  -0.68305  -0.67694
 Alpha  occ. eigenvalues --   -0.67308  -0.66578  -0.66385  -0.65644  -0.64782
 Alpha  occ. eigenvalues --   -0.64005  -0.63908  -0.63440  -0.62608  -0.61977
 Alpha  occ. eigenvalues --   -0.61012  -0.59976  -0.59141  -0.58575  -0.58499
 Alpha  occ. eigenvalues --   -0.57979  -0.57512  -0.57186  -0.56616  -0.55902
 Alpha  occ. eigenvalues --   -0.55578  -0.55568  -0.54796  -0.53896  -0.53272
 Alpha  occ. eigenvalues --   -0.52893  -0.52753  -0.51915  -0.51802  -0.51522
 Alpha  occ. eigenvalues --   -0.51463  -0.50791  -0.50163  -0.49971  -0.49071
 Alpha  occ. eigenvalues --   -0.48939  -0.48583  -0.48381  -0.47870  -0.47587
 Alpha  occ. eigenvalues --   -0.47146  -0.47036  -0.46841  -0.46521  -0.46269
 Alpha  occ. eigenvalues --   -0.46125  -0.45779  -0.45336  -0.44960  -0.44306
 Alpha  occ. eigenvalues --   -0.42793  -0.42731  -0.41946  -0.41550  -0.40267
 Alpha  occ. eigenvalues --   -0.39885  -0.39781  -0.39169  -0.37775  -0.37501
 Alpha  occ. eigenvalues --   -0.36707  -0.36546  -0.35925  -0.35662  -0.35009
 Alpha  occ. eigenvalues --   -0.34535  -0.33789  -0.32765  -0.30873  -0.30719
 Alpha  occ. eigenvalues --   -0.30175
 Alpha virt. eigenvalues --   -0.12739  -0.10533  -0.09192  -0.07778  -0.07609
 Alpha virt. eigenvalues --   -0.07064  -0.06946  -0.06333  -0.06050  -0.05683
 Alpha virt. eigenvalues --   -0.03277  -0.02703  -0.01963  -0.01418  -0.00669

 Mulliken charges:
               1
     1  N   -0.697370
     2  H    0.313072
     3  H    0.329663
     4  C   -0.082635
     5  H    0.167549
     6  C    0.590851
     7  C   -0.353653
     8  H    0.149172
     9  H    0.218319
    10  O   -0.534320
    11  C    0.596243
    12  N   -0.730156
    13  H    0.338981
    14  H    0.372059
    15  O   -0.538951
    16  N   -0.607740
    17  H    0.338235
    18  C   -0.018588
    19  H    0.173835
    20  C    0.638237
    21  C   -0.391213
    22  H    0.166187
    23  H    0.167910
    24  O   -0.566899
    25  C    0.149037
    26  C   -0.180814
    27  H    0.147828
    28  C   -0.181006
    29  H    0.131304
    30  C   -0.131604
    31  H    0.133636
    32  C   -0.127290
    33  H    0.142528
    34  C   -0.126571
    35  H    0.139304
    36  N   -0.561384
    37  H    0.367186
    38  C   -0.071868
    39  H    0.178227
    40  C    0.629789
    41  C   -0.404179
    42  H    0.210056
    43  H    0.210639
    44  O   -0.512523
    45  C    0.616594
    46  N   -0.768869
    47  H    0.350596
    48  H    0.415143
    49  O   -0.594734
    50  N   -0.612219
    51  H    0.346573
    52  C   -0.006069
    53  H    0.204163
    54  C    0.634640
    55  C   -0.347179
    56  H    0.188611
    57  H    0.162016
    58  O   -0.497165
    59  C   -0.281049
    60  H    0.187549
    61  H    0.178222
    62  C   -0.176537
    63  H    0.171359
    64  H    0.190680
    65  N   -0.601903
    66  H    0.398598
    67  N   -0.742923
    68  H    0.379069
    69  H    0.381971
    70  N   -0.751057
    71  H    0.365990
    72  H    0.416733
    73  C    0.768922
    74  O   -0.642299
    75  H    0.483491
 Sum of Mulliken charges =   1.00000

 Dipole moment (field-independent basis, Debye):
    X=             21.5399    Y=              6.7152    Z=            -14.3930  Tot=             26.7623
 Quadrupole moment (field-independent basis, Debye-Ang):
   XX=             -1.1609   YY=           -203.1357   ZZ=           -136.6431
   XY=             30.2075   XZ=           -130.8222   YZ=            -13.3971

 Normal termination of Gaussian 16 at Tue May 31 12:28:05 2022.
