 Gaussian 16, Revision C.01,
 Gaussian 16:  ES64L-G16RevC.01  3-Jul-2019

 ----------------------------------------------------------------------
 # B3LYP/6-31G* empiricaldispersion=gd3 guess=read geom=check nosymm in
 tegral(ultrafinegrid)
 ----------------------------------------------------------------------

 ------------------------------------------------------
 Candidate Structure: Conf:772 Charge calc in gas phase
 ------------------------------------------------------
 Structure from the checkpoint file:  "conf-772.chk"
 Charge =  1 Multiplicity = 1

                          Input orientation:
 ---------------------------------------------------------------------
 Center     Atomic      Atomic             Coordinates (Angstroms)
 Number     Number       Type             X           Y           Z
 ---------------------------------------------------------------------
      1          7           0       -2.387477    4.047127    2.059558
      2          1           0       -3.294443    4.123708    1.593237
      3          1           0       -2.311591    4.902801    2.618699
      4          6           0       -2.488412    2.946200    3.056319
      5          1           0       -1.578130    3.014619    3.666087
      6          6           0       -2.475735    1.584251    2.328419
      7          6           0       -3.703283    3.049412    3.982614
      8          1           0       -4.623576    3.051103    3.382731
      9          1           0       -3.760748    2.150271    4.605603
     10          8           0       -3.379834    0.766443    2.415436
     11          6           0       -3.656910    4.314714    4.839884
     12          7           0       -4.445830    4.298335    5.942416
     13          1           0       -4.461554    5.116122    6.536563
     14          1           0       -4.980711    3.489069    6.219731
     15          8           0       -2.967097    5.290650    4.544015
     16          7           0       -1.372845    1.436203    1.547955
     17          1           0       -0.598892    2.075221    1.667066
     18          6           0       -1.079066    0.333707    0.661938
     19          1           0       -1.538284   -0.580615    1.051248
     20          6           0        0.451183    0.250777    0.604437
     21          6           0       -1.557852    0.594074   -0.803738
     22          1           0       -1.030767    1.490188   -1.151298
     23          1           0       -1.191437   -0.221156   -1.436345
     24          8           0        1.137482    1.257109    0.817212
     25          6           0       -3.050266    0.753377   -0.976327
     26          6           0       -3.809036   -0.256740   -1.576958
     27          1           0       -3.318688   -1.169384   -1.907439
     28          6           0       -3.712983    1.920717   -0.566442
     29          1           0       -3.150237    2.685920   -0.039471
     30          6           0       -5.184781   -0.106809   -1.764329
     31          1           0       -5.753616   -0.904683   -2.233247
     32          6           0       -5.086080    2.078522   -0.751550
     33          1           0       -5.578849    2.987799   -0.417036
     34          6           0       -5.828192    1.062235   -1.355899
     35          1           0       -6.897655    1.178911   -1.503769
     36          7           0        0.996198   -0.937015    0.246167
     37          1           0        0.369448   -1.653811   -0.096886
     38          6           0        2.380194   -0.957442   -0.216344
     39          1           0        3.011735   -0.623057    0.608768
     40          6           0        2.508584    0.066323   -1.378381
     41          6           0        2.801821   -2.373107   -0.615952
     42          1           0        2.346841   -2.659572   -1.572946
     43          1           0        2.446296   -3.085764    0.140599
     44          8           0        1.550701    0.325732   -2.106059
     45          6           0        4.329830   -2.487415   -0.696884
     46          7           0        4.794342   -3.660044   -1.193058
     47          1           0        5.794402   -3.806701   -1.221003
     48          1           0        4.188181   -4.425992   -1.446990
     49          8           0        5.075036   -1.584206   -0.328107
     50          7           0        3.701590    0.693627   -1.451532
     51          1           0        4.474143    0.348994   -0.889084
     52          6           0        3.842624    1.912145   -2.228860
     53          1           0        3.422326    1.747762   -3.228099
     54          6           0        5.297356    2.310073   -2.426832
     55          6           0        3.025515    3.046455   -1.553080
     56          1           0        2.023250    2.626895   -1.422873
     57          1           0        3.431014    3.221596   -0.548035
     58          8           0        5.635109    3.292426   -3.048346
     59          6           0        2.934265    4.364953   -2.324489
     60          1           0        3.880818    4.908963   -2.280490
     61          1           0        2.753325    4.172766   -3.390940
     62          6           0        1.817716    5.264671   -1.783267
     63          1           0        1.863629    5.356241   -0.694790
     64          1           0        1.906359    6.275404   -2.197304
     65          7           0        0.477117    4.767685   -2.142191
     66          1           0        0.271880    4.749805   -3.133825
     67          7           0       -0.311222    4.057514   -0.055123
     68          1           0       -1.081677    4.032376    0.654285
     69          1           0        0.559359    3.600751    0.196985
     70          7           0       -1.778990    4.408429   -1.810794
     71          1           0       -2.475531    3.766465   -1.449609
     72          1           0       -1.997502    4.892527   -2.669416
     73          6           0       -0.521391    4.401461   -1.325656
     74          8           0        6.167937    1.466160   -1.835714
     75          1           0        7.066798    1.803709   -2.013550
 ---------------------------------------------------------------------

 SCF Done:  E(RB3LYP) =  -1917.48665822     A.U. after    1 cycles

 Alpha  occ. eigenvalues --  -19.28613 -19.22639 -19.22524 -19.20953 -19.20224
 Alpha  occ. eigenvalues --  -19.19954 -19.19846 -14.50708 -14.49940 -14.48167
 Alpha  occ. eigenvalues --  -14.46524 -14.44956 -14.44319 -14.44061 -14.43923
 Alpha  occ. eigenvalues --  -14.43151 -10.46258 -10.41015 -10.39223 -10.38847
 Alpha  occ. eigenvalues --  -10.37578 -10.37255 -10.37129 -10.34435 -10.33242
 Alpha  occ. eigenvalues --  -10.33044 -10.32952 -10.32069 -10.30315 -10.28736
 Alpha  occ. eigenvalues --  -10.28677 -10.28522 -10.28390 -10.28158 -10.27769
 Alpha  occ. eigenvalues --  -10.27699 -10.27205 -10.27150 -10.27046  -1.19442
 Alpha  occ. eigenvalues --   -1.14645  -1.14522  -1.12798  -1.12029  -1.11775
 Alpha  occ. eigenvalues --   -1.11497  -1.10362  -1.04138  -1.02940  -1.02251
 Alpha  occ. eigenvalues --   -1.01676  -1.01278  -0.99760  -0.99173  -0.98603
 Alpha  occ. eigenvalues --   -0.94081  -0.90348  -0.89045  -0.87282  -0.85093
 Alpha  occ. eigenvalues --   -0.84942  -0.82961  -0.82763  -0.79746  -0.77241
 Alpha  occ. eigenvalues --   -0.76611  -0.76189  -0.73283  -0.72558  -0.71477
 Alpha  occ. eigenvalues --   -0.70316  -0.69444  -0.68548  -0.68135  -0.67875
 Alpha  occ. eigenvalues --   -0.67277  -0.66839  -0.66617  -0.66231  -0.63711
 Alpha  occ. eigenvalues --   -0.63551  -0.63198  -0.62846  -0.62434  -0.61452
 Alpha  occ. eigenvalues --   -0.60098  -0.59858  -0.59541  -0.58794  -0.57580
 Alpha  occ. eigenvalues --   -0.57460  -0.57227  -0.56665  -0.56298  -0.55985
 Alpha  occ. eigenvalues --   -0.55317  -0.54955  -0.54503  -0.54051  -0.53800
 Alpha  occ. eigenvalues --   -0.53302  -0.53060  -0.52540  -0.52207  -0.51623
 Alpha  occ. eigenvalues --   -0.51193  -0.50749  -0.50421  -0.50324  -0.50107
 Alpha  occ. eigenvalues --   -0.49478  -0.49295  -0.48711  -0.48538  -0.48064
 Alpha  occ. eigenvalues --   -0.47586  -0.47501  -0.46985  -0.46585  -0.46401
 Alpha  occ. eigenvalues --   -0.45412  -0.45126  -0.44798  -0.44638  -0.44082
 Alpha  occ. eigenvalues --   -0.43763  -0.43161  -0.42628  -0.42377  -0.41003
 Alpha  occ. eigenvalues --   -0.40468  -0.39163  -0.37669  -0.37173  -0.36503
 Alpha  occ. eigenvalues --   -0.36337  -0.36069  -0.35060  -0.35004  -0.34571
 Alpha  occ. eigenvalues --   -0.34030  -0.33646  -0.33467  -0.33385  -0.33200
 Alpha  occ. eigenvalues --   -0.32150
 Alpha virt. eigenvalues --   -0.11548  -0.09854  -0.09096  -0.08327  -0.07933
 Alpha virt. eigenvalues --   -0.07074  -0.06557  -0.06019  -0.05738  -0.05405
 Alpha virt. eigenvalues --   -0.02640  -0.02104  -0.01456  -0.01035  -0.00839

 Mulliken charges:
               1
     1  N   -0.775399
     2  H    0.314616
     3  H    0.365208
     4  C   -0.092998
     5  H    0.178915
     6  C    0.629663
     7  C   -0.379715
     8  H    0.187134
     9  H    0.185938
    10  O   -0.511300
    11  C    0.615801
    12  N   -0.743493
    13  H    0.357860
    14  H    0.352397
    15  O   -0.523876
    16  N   -0.621642
    17  H    0.345735
    18  C   -0.046196
    19  H    0.186461
    20  C    0.652359
    21  C   -0.372514
    22  H    0.151850
    23  H    0.169284
    24  O   -0.561458
    25  C    0.202693
    26  C   -0.184816
    27  H    0.133556
    28  C   -0.212616
    29  H    0.111336
    30  C   -0.118802
    31  H    0.152506
    32  C   -0.131198
    33  H    0.133139
    34  C   -0.125992
    35  H    0.151579
    36  N   -0.610691
    37  H    0.341788
    38  C   -0.020027
    39  H    0.205819
    40  C    0.621317
    41  C   -0.427048
    42  H    0.186200
    43  H    0.193994
    44  O   -0.552126
    45  C    0.628549
    46  N   -0.743797
    47  H    0.362380
    48  H    0.352000
    49  O   -0.512264
    50  N   -0.623649
    51  H    0.397102
    52  C   -0.039880
    53  H    0.200907
    54  C    0.592472
    55  C   -0.292200
    56  H    0.175123
    57  H    0.156913
    58  O   -0.455205
    59  C   -0.268700
    60  H    0.194964
    61  H    0.151264
    62  C   -0.170979
    63  H    0.183668
    64  H    0.190135
    65  N   -0.587538
    66  H    0.355246
    67  N   -0.809158
    68  H    0.439246
    69  H    0.385488
    70  N   -0.771394
    71  H    0.380538
    72  H    0.366700
    73  C    0.780632
    74  O   -0.562586
    75  H    0.428781
 Sum of Mulliken charges =   1.00000

 Dipole moment (field-independent basis, Debye):
    X=             -1.4712    Y=              8.5429    Z=             -2.5685  Tot=              9.0412
 Quadrupole moment (field-independent basis, Debye-Ang):
   XX=           -151.9621   YY=           -133.9142   ZZ=           -178.9444
   XY=            -42.1524   XZ=            -26.1813   YZ=             -0.3938

 Normal termination of Gaussian 16 at Tue May 31 12:09:40 2022.
