 Gaussian 16, Revision C.01,
 Gaussian 16:  ES64L-G16RevC.01  3-Jul-2019

 ----------------------------------------------------------------------
 # B3LYP/6-31G* empiricaldispersion=gd3 guess=read geom=check nosymm in
 tegral(ultrafinegrid)
 ----------------------------------------------------------------------

 ------------------------------------------------------
 Candidate Structure: Conf:433 Charge calc in gas phase
 ------------------------------------------------------
 Structure from the checkpoint file:  "conf-433.chk"
 Charge =  1 Multiplicity = 1

                          Input orientation:
 ---------------------------------------------------------------------
 Center     Atomic      Atomic             Coordinates (Angstroms)
 Number     Number       Type             X           Y           Z
 ---------------------------------------------------------------------
      1          7           0       -3.846158    2.154909    2.338656
      2          1           0       -4.678449    1.594515    2.166349
      3          1           0       -4.134028    3.028003    2.772055
      4          6           0       -2.915409    1.415748    3.191079
      5          1           0       -2.188612    2.139079    3.584405
      6          6           0       -2.087772    0.434046    2.341371
      7          6           0       -3.522116    0.686291    4.402731
      8          1           0       -2.721447    0.200686    4.972336
      9          1           0       -3.999412    1.416386    5.067161
     10          8           0       -1.493756   -0.527871    2.855170
     11          6           0       -4.531385   -0.382584    3.992286
     12          7           0       -5.231975   -0.947970    4.998628
     13          1           0       -5.920099   -1.656312    4.780363
     14          1           0       -5.125040   -0.664071    5.961993
     15          8           0       -4.685533   -0.721289    2.812421
     16          7           0       -2.017811    0.743007    1.031263
     17          1           0       -2.586532    1.542905    0.757036
     18          6           0       -1.386929   -0.099832    0.023476
     19          1           0       -1.365691   -1.116209    0.429232
     20          6           0        0.105685    0.209811   -0.228465
     21          6           0       -2.180128   -0.108262   -1.301260
     22          1           0       -2.513893    0.915699   -1.521330
     23          1           0       -1.475354   -0.380656   -2.090274
     24          8           0        0.694975   -0.374551   -1.136841
     25          6           0       -3.356054   -1.065637   -1.318422
     26          6           0       -3.462403   -2.025922   -2.333999
     27          1           0       -2.702472   -2.068504   -3.110297
     28          6           0       -4.352845   -1.028173   -0.331797
     29          1           0       -4.298467   -0.304715    0.471468
     30          6           0       -4.534473   -2.922795   -2.369052
     31          1           0       -4.605029   -3.647714   -3.175353
     32          6           0       -5.416628   -1.933339   -0.349146
     33          1           0       -6.170255   -1.880974    0.432001
     34          6           0       -5.514751   -2.885353   -1.371745
     35          1           0       -6.351990   -3.577109   -1.399566
     36          7           0        0.704667    1.062418    0.632728
     37          1           0        0.169929    1.414984    1.413917
     38          6           0        2.159406    1.259395    0.667172
     39          1           0        2.508431    1.308211   -0.368318
     40          6           0        2.765825    0.031308    1.388004
     41          6           0        2.491742    2.562471    1.395856
     42          1           0        2.217224    2.465469    2.451827
     43          1           0        1.923519    3.376856    0.940185
     44          8           0        3.019270    0.039923    2.593720
     45          6           0        3.977734    2.911949    1.230946
     46          7           0        4.787781    2.454106    2.227933
     47          1           0        5.785129    2.551329    2.089645
     48          1           0        4.456648    1.725453    2.848326
     49          8           0        4.370939    3.548330    0.265926
     50          7           0        2.908102   -1.055944    0.595176
     51          1           0        2.607510   -1.003445   -0.374253
     52          6           0        3.278931   -2.355224    1.113196
     53          1           0        3.810319   -2.204362    2.055982
     54          6           0        4.196263   -3.038231    0.105179
     55          6           0        2.045948   -3.261985    1.354016
     56          1           0        1.558614   -3.416382    0.380339
     57          1           0        2.405215   -4.238694    1.703589
     58          8           0        4.244294   -2.765240   -1.071461
     59          6           0        1.047966   -2.672341    2.358051
     60          1           0        1.563036   -2.437110    3.296589
     61          1           0        0.632553   -1.729523    1.992015
     62          6           0       -0.103281   -3.628674    2.685209
     63          1           0        0.280902   -4.565498    3.106166
     64          1           0       -0.764960   -3.186733    3.430921
     65          7           0       -0.913606   -3.986536    1.505247
     66          1           0       -0.452601   -4.547737    0.801922
     67          7           0       -2.852513   -2.835150    2.081075
     68          1           0       -3.812618   -2.587711    1.869612
     69          1           0       -2.330783   -2.078015    2.533882
     70          7           0       -2.859886   -4.289744    0.278968
     71          1           0       -3.691205   -3.861021   -0.117087
     72          1           0       -2.414260   -5.003496   -0.278587
     73          6           0       -2.202072   -3.687248    1.285407
     74          8           0        4.898086   -4.034118    0.684543
     75          1           0        5.436574   -4.453057   -0.014427
 ---------------------------------------------------------------------

 SCF Done:  E(RB3LYP) =  -1917.51262353     A.U. after    1 cycles

 Alpha  occ. eigenvalues --  -19.28367 -19.24268 -19.24072 -19.22691 -19.21758
 Alpha  occ. eigenvalues --  -19.20521 -19.16805 -14.51089 -14.50113 -14.48285
 Alpha  occ. eigenvalues --  -14.47981 -14.47897 -14.46604 -14.44568 -14.43851
 Alpha  occ. eigenvalues --  -14.40903 -10.46535 -10.41729 -10.40950 -10.40716
 Alpha  occ. eigenvalues --  -10.39058 -10.37608 -10.34855 -10.34821 -10.34778
 Alpha  occ. eigenvalues --  -10.34726 -10.32949 -10.32692 -10.31449 -10.30266
 Alpha  occ. eigenvalues --  -10.29725 -10.29636 -10.29524 -10.29480 -10.29441
 Alpha  occ. eigenvalues --  -10.29236 -10.29039 -10.28967 -10.27115  -1.19239
 Alpha  occ. eigenvalues --   -1.16140  -1.15417  -1.14983  -1.13866  -1.12254
 Alpha  occ. eigenvalues --   -1.10413  -1.08707  -1.05134  -1.04613  -1.02838
 Alpha  occ. eigenvalues --   -1.02692  -1.02538  -1.01552  -1.00666  -0.96033
 Alpha  occ. eigenvalues --   -0.95873  -0.90763  -0.89853  -0.87879  -0.87295
 Alpha  occ. eigenvalues --   -0.85568  -0.84747  -0.84091  -0.79793  -0.78913
 Alpha  occ. eigenvalues --   -0.77156  -0.76730  -0.74820  -0.72453  -0.71668
 Alpha  occ. eigenvalues --   -0.71541  -0.70630  -0.70335  -0.69657  -0.68640
 Alpha  occ. eigenvalues --   -0.68564  -0.67983  -0.67206  -0.65873  -0.64485
 Alpha  occ. eigenvalues --   -0.64021  -0.63717  -0.63420  -0.62623  -0.61622
 Alpha  occ. eigenvalues --   -0.61110  -0.60368  -0.59807  -0.59445  -0.59002
 Alpha  occ. eigenvalues --   -0.58763  -0.58167  -0.57827  -0.56890  -0.56550
 Alpha  occ. eigenvalues --   -0.56414  -0.56027  -0.55791  -0.55503  -0.55048
 Alpha  occ. eigenvalues --   -0.54506  -0.53469  -0.53312  -0.52996  -0.52693
 Alpha  occ. eigenvalues --   -0.52184  -0.51844  -0.51718  -0.51393  -0.51002
 Alpha  occ. eigenvalues --   -0.50740  -0.49780  -0.49621  -0.48597  -0.48198
 Alpha  occ. eigenvalues --   -0.48126  -0.47990  -0.47719  -0.47493  -0.46967
 Alpha  occ. eigenvalues --   -0.46061  -0.45645  -0.45506  -0.45011  -0.44530
 Alpha  occ. eigenvalues --   -0.44363  -0.44107  -0.44000  -0.42980  -0.41380
 Alpha  occ. eigenvalues --   -0.40432  -0.39733  -0.39405  -0.39207  -0.38991
 Alpha  occ. eigenvalues --   -0.38053  -0.37436  -0.36362  -0.35924  -0.35590
 Alpha  occ. eigenvalues --   -0.35375  -0.34661  -0.34285  -0.33301  -0.32329
 Alpha  occ. eigenvalues --   -0.30490
 Alpha virt. eigenvalues --   -0.11689  -0.10903  -0.10497  -0.10127  -0.09886
 Alpha virt. eigenvalues --   -0.08759  -0.07913  -0.06806  -0.06206  -0.04085
 Alpha virt. eigenvalues --   -0.03442  -0.02906  -0.01815  -0.01173  -0.00531

 Mulliken charges:
               1
     1  N   -0.754707
     2  H    0.340021
     3  H    0.331709
     4  C   -0.072500
     5  H    0.189056
     6  C    0.627352
     7  C   -0.383375
     8  H    0.208366
     9  H    0.178463
    10  O   -0.581506
    11  C    0.618415
    12  N   -0.736378
    13  H    0.360313
    14  H    0.363454
    15  O   -0.551839
    16  N   -0.617814
    17  H    0.377338
    18  C   -0.030905
    19  H    0.178438
    20  C    0.627309
    21  C   -0.393740
    22  H    0.176061
    23  H    0.208798
    24  O   -0.535558
    25  C    0.164226
    26  C   -0.193801
    27  H    0.156368
    28  C   -0.194282
    29  H    0.162496
    30  C   -0.146017
    31  H    0.159358
    32  C   -0.171657
    33  H    0.157055
    34  C   -0.165255
    35  H    0.159326
    36  N   -0.607446
    37  H    0.348269
    38  C   -0.057102
    39  H    0.209685
    40  C    0.628506
    41  C   -0.374589
    42  H    0.164183
    43  H    0.183026
    44  O   -0.549967
    45  C    0.563250
    46  N   -0.739006
    47  H    0.344701
    48  H    0.362970
    49  O   -0.490133
    50  N   -0.593653
    51  H    0.380709
    52  C   -0.050714
    53  H    0.207280
    54  C    0.585595
    55  C   -0.289609
    56  H    0.140211
    57  H    0.165626
    58  O   -0.446108
    59  C   -0.269589
    60  H    0.182527
    61  H    0.178003
    62  C   -0.170208
    63  H    0.182891
    64  H    0.193841
    65  N   -0.600816
    66  H    0.354377
    67  N   -0.797405
    68  H    0.385805
    69  H    0.428073
    70  N   -0.770224
    71  H    0.393201
    72  H    0.364188
    73  C    0.783728
    74  O   -0.564199
    75  H    0.425536
 Sum of Mulliken charges =   1.00000

 Dipole moment (field-independent basis, Debye):
    X=            -14.7319    Y=            -12.2824    Z=             12.3094  Tot=             22.7905
 Quadrupole moment (field-independent basis, Debye-Ang):
   XX=           -147.3181   YY=           -162.9812   ZZ=           -170.4128
   XY=             -2.8104   XZ=            -32.2011   YZ=              6.2063

 Normal termination of Gaussian 16 at Tue May 31 12:09:42 2022.
