 Gaussian 16, Revision C.01,
 Gaussian 16:  ES64L-G16RevC.01  3-Jul-2019

 ----------------------------------------------------------------------
 # B3LYP/6-31G* empiricaldispersion=gd3 guess=read geom=check nosymm in
 tegral(ultrafinegrid)
 ----------------------------------------------------------------------

 ------------------------------------------------------
 Candidate Structure: Conf:123 Charge calc in gas phase
 ------------------------------------------------------
 Structure from the checkpoint file:  "conf-123.chk"
 Charge =  1 Multiplicity = 1

                          Input orientation:
 ---------------------------------------------------------------------
 Center     Atomic      Atomic             Coordinates (Angstroms)
 Number     Number       Type             X           Y           Z
 ---------------------------------------------------------------------
      1          7           0       -6.028678    2.366667    2.429359
      2          1           0       -6.050965    3.037166    1.662986
      3          1           0       -6.515404    1.539608    2.080151
      4          6           0       -4.646511    1.985852    2.702786
      5          1           0       -4.029958    2.892389    2.720638
      6          6           0       -4.080765    1.015515    1.653020
      7          6           0       -4.556496    1.369604    4.111088
      8          1           0       -5.315013    0.585683    4.220550
      9          1           0       -3.575392    0.904170    4.263995
     10          8           0       -4.808463    0.356668    0.908673
     11          6           0       -4.690245    2.482080    5.153931
     12          7           0       -5.567122    2.247423    6.171892
     13          1           0       -5.738095    3.009999    6.814468
     14          1           0       -6.284992    1.542897    6.087986
     15          8           0       -3.997884    3.488251    5.088897
     16          7           0       -2.723987    0.930159    1.604533
     17          1           0       -2.143493    1.585609    2.117887
     18          6           0       -2.034618    0.138134    0.611330
     19          1           0       -2.336188   -0.911726    0.703842
     20          6           0       -0.529659    0.284281    0.850344
     21          6           0       -2.358827    0.579242   -0.864518
     22          1           0       -1.610909    0.136289   -1.532864
     23          1           0       -3.333895    0.156440   -1.110951
     24          8           0       -0.062589    1.268454    1.414877
     25          6           0       -2.404340    2.081275   -1.021113
     26          6           0       -3.640376    2.748360   -1.063157
     27          1           0       -4.553321    2.163509   -0.989350
     28          6           0       -1.231819    2.856250   -1.046671
     29          1           0       -0.266541    2.368233   -0.956607
     30          6           0       -3.702824    4.146100   -1.133066
     31          1           0       -4.670098    4.642080   -1.145542
     32          6           0       -1.292182    4.253148   -1.116211
     33          1           0       -0.372560    4.832136   -1.108843
     34          6           0       -2.528788    4.903258   -1.167618
     35          1           0       -2.575765    5.987362   -1.208440
     36          7           0        0.232260   -0.715206    0.312050
     37          1           0       -0.249940   -1.364112   -0.302519
     38          6           0        1.597920   -0.445583   -0.113365
     39          1           0        1.858868    0.556972    0.235405
     40          6           0        1.592876   -0.467152   -1.661828
     41          6           0        2.605175   -1.439485    0.502092
     42          1           0        2.617556   -2.387254   -0.051740
     43          1           0        2.267381   -1.672900    1.518120
     44          8           0        0.617925   -0.914343   -2.277597
     45          6           0        4.023089   -0.865761    0.561505
     46          7           0        4.911705   -1.585226    1.284466
     47          1           0        5.862432   -1.247346    1.351738
     48          1           0        4.656266   -2.416281    1.796880
     49          8           0        4.336267    0.182128   -0.005060
     50          7           0        2.684275    0.044524   -2.268160
     51          1           0        3.491258    0.283754   -1.682764
     52          6           0        2.831091   -0.014801   -3.711124
     53          1           0        2.222602   -0.850573   -4.075581
     54          6           0        4.287845   -0.314688   -4.047869
     55          6           0        2.347286    1.272016   -4.425412
     56          1           0        3.020054    2.103393   -4.176703
     57          1           0        2.424752    1.104674   -5.505661
     58          8           0        5.178439   -0.431306   -3.240222
     59          6           0        0.910460    1.629795   -4.029433
     60          1           0        0.259455    0.755627   -4.123678
     61          1           0        0.897655    1.911747   -2.970618
     62          6           0        0.341465    2.782601   -4.858951
     63          1           0        1.009023    3.652977   -4.841973
     64          1           0        0.223334    2.467236   -5.900593
     65          7           0       -0.975011    3.171577   -4.327864
     66          1           0       -1.060272    3.197034   -3.311003
     67          7           0       -2.048801    3.636199   -6.345424
     68          1           0       -2.891072    3.587034   -6.899908
     69          1           0       -1.180948    3.807934   -6.829446
     70          7           0       -3.269380    3.454553   -4.388499
     71          1           0       -4.042209    3.966397   -4.790339
     72          1           0       -3.341150    3.231667   -3.397833
     73          6           0       -2.082541    3.424640   -5.016716
     74          8           0        4.457276   -0.428242   -5.383166
     75          1           0        5.402453   -0.619766   -5.536363
 ---------------------------------------------------------------------

 SCF Done:  E(RB3LYP) =  -1917.47753909     A.U. after    2 cycles

 Alpha  occ. eigenvalues --  -19.28707 -19.23085 -19.21341 -19.21078 -19.20596
 Alpha  occ. eigenvalues --  -19.18669 -19.15861 -14.52731 -14.52037 -14.51582
 Alpha  occ. eigenvalues --  -14.44644 -14.44623 -14.44456 -14.43125 -14.40535
 Alpha  occ. eigenvalues --  -14.37406 -10.48648 -10.41184 -10.38302 -10.38153
 Alpha  occ. eigenvalues --  -10.37840 -10.36419 -10.35205 -10.33794 -10.33465
 Alpha  occ. eigenvalues --  -10.32561 -10.32346 -10.30572 -10.30291 -10.30116
 Alpha  occ. eigenvalues --  -10.30071 -10.29863 -10.29825 -10.29749 -10.29474
 Alpha  occ. eigenvalues --  -10.29219 -10.28474 -10.28242 -10.25362  -1.19627
 Alpha  occ. eigenvalues --   -1.17057  -1.13534  -1.12666  -1.12228  -1.10803
 Alpha  occ. eigenvalues --   -1.10404  -1.07790  -1.06414  -1.05121  -1.01940
 Alpha  occ. eigenvalues --   -1.01456  -0.99966  -0.99266  -0.96367  -0.95215
 Alpha  occ. eigenvalues --   -0.94787  -0.91891  -0.88878  -0.87758  -0.86067
 Alpha  occ. eigenvalues --   -0.85365  -0.83422  -0.81236  -0.81084  -0.78427
 Alpha  occ. eigenvalues --   -0.77435  -0.75383  -0.74640  -0.71961  -0.71785
 Alpha  occ. eigenvalues --   -0.71173  -0.70483  -0.70198  -0.68672  -0.67948
 Alpha  occ. eigenvalues --   -0.67272  -0.66347  -0.66023  -0.65202  -0.64955
 Alpha  occ. eigenvalues --   -0.63544  -0.62872  -0.62362  -0.61802  -0.61441
 Alpha  occ. eigenvalues --   -0.60371  -0.59450  -0.58749  -0.58464  -0.57929
 Alpha  occ. eigenvalues --   -0.57188  -0.56851  -0.56665  -0.56408  -0.56004
 Alpha  occ. eigenvalues --   -0.55866  -0.55477  -0.54799  -0.54175  -0.53644
 Alpha  occ. eigenvalues --   -0.52937  -0.52734  -0.52389  -0.52180  -0.51653
 Alpha  occ. eigenvalues --   -0.51443  -0.51152  -0.50414  -0.50091  -0.49903
 Alpha  occ. eigenvalues --   -0.49102  -0.48488  -0.47902  -0.47503  -0.47287
 Alpha  occ. eigenvalues --   -0.47201  -0.46628  -0.46477  -0.46424  -0.45956
 Alpha  occ. eigenvalues --   -0.45475  -0.45260  -0.44655  -0.44388  -0.44229
 Alpha  occ. eigenvalues --   -0.43661  -0.43463  -0.42906  -0.41377  -0.41106
 Alpha  occ. eigenvalues --   -0.40827  -0.40475  -0.36910  -0.36551  -0.35857
 Alpha  occ. eigenvalues --   -0.35666  -0.35382  -0.35262  -0.34859  -0.34763
 Alpha  occ. eigenvalues --   -0.34000  -0.32892  -0.32683  -0.31674  -0.30179
 Alpha  occ. eigenvalues --   -0.29717
 Alpha virt. eigenvalues --   -0.12673  -0.11786  -0.11434  -0.08174  -0.08021
 Alpha virt. eigenvalues --   -0.07516  -0.07225  -0.06258  -0.04951  -0.04688
 Alpha virt. eigenvalues --   -0.02787  -0.02158  -0.01744  -0.01249  -0.00601

 Mulliken charges:
               1
     1  N   -0.697666
     2  H    0.295859
     3  H    0.312455
     4  C   -0.098828
     5  H    0.177819
     6  C    0.599315
     7  C   -0.341967
     8  H    0.147634
     9  H    0.174092
    10  O   -0.546850
    11  C    0.618694
    12  N   -0.740152
    13  H    0.346046
    14  H    0.339898
    15  O   -0.511342
    16  N   -0.622838
    17  H    0.361702
    18  C   -0.006926
    19  H    0.182210
    20  C    0.589171
    21  C   -0.403728
    22  H    0.181216
    23  H    0.196224
    24  O   -0.517781
    25  C    0.173457
    26  C   -0.237680
    27  H    0.181307
    28  C   -0.233501
    29  H    0.169405
    30  C   -0.159061
    31  H    0.158929
    32  C   -0.148934
    33  H    0.161695
    34  C   -0.126113
    35  H    0.161936
    36  N   -0.588534
    37  H    0.348074
    38  C   -0.083068
    39  H    0.216036
    40  C    0.593896
    41  C   -0.386572
    42  H    0.188979
    43  H    0.197356
    44  O   -0.547869
    45  C    0.633407
    46  N   -0.741077
    47  H    0.363850
    48  H    0.353910
    49  O   -0.522218
    50  N   -0.623302
    51  H    0.408784
    52  C   -0.046407
    53  H    0.206452
    54  C    0.580925
    55  C   -0.274772
    56  H    0.159239
    57  H    0.171723
    58  O   -0.440688
    59  C   -0.296613
    60  H    0.193150
    61  H    0.159468
    62  C   -0.155233
    63  H    0.188200
    64  H    0.168554
    65  N   -0.612535
    66  H    0.381653
    67  N   -0.758307
    68  H    0.383931
    69  H    0.386073
    70  N   -0.772452
    71  H    0.372633
    72  H    0.395491
    73  C    0.802022
    74  O   -0.567462
    75  H    0.427607
 Sum of Mulliken charges =   1.00000

 Dipole moment (field-independent basis, Debye):
    X=             -3.9029    Y=              8.8179    Z=            -18.9610  Tot=             21.2723
 Quadrupole moment (field-independent basis, Debye-Ang):
   XX=           -154.1012   YY=           -171.1378   ZZ=            -87.4583
   XY=            -47.9026   XZ=             16.9567   YZ=            -87.8295

 Normal termination of Gaussian 16 at Tue May 31 12:09:54 2022.
