 Gaussian 16, Revision C.01,
 Gaussian 16:  ES64L-G16RevC.01  3-Jul-2019

 ----------------------------------------------------------------------
 # B3LYP/6-31G* empiricaldispersion=gd3 guess=read geom=check nosymm in
 tegral(ultrafinegrid)
 ----------------------------------------------------------------------

 ------------------------------------------------------
 Candidate Structure: Conf:156 Charge calc in gas phase
 ------------------------------------------------------
 Structure from the checkpoint file:  "conf-156.chk"
 Charge =  1 Multiplicity = 1

                          Input orientation:
 ---------------------------------------------------------------------
 Center     Atomic      Atomic             Coordinates (Angstroms)
 Number     Number       Type             X           Y           Z
 ---------------------------------------------------------------------
      1          7           0       -5.777259    0.271701    3.325216
      2          1           0       -6.444385    0.773857    2.741210
      3          1           0       -5.774362   -0.688384    2.977731
      4          6           0       -4.435870    0.824717    3.135603
      5          1           0       -4.493935    1.913024    3.263334
      6          6           0       -3.862438    0.499204    1.747415
      7          6           0       -3.454551    0.252802    4.187607
      8          1           0       -3.510297   -0.843902    4.150390
      9          1           0       -2.425752    0.531616    3.943746
     10          8           0       -4.225056   -0.493552    1.118501
     11          6           0       -3.675158    0.710467    5.638726
     12          7           0       -4.972423    0.790971    6.028631
     13          1           0       -5.169823    1.062141    6.981544
     14          1           0       -5.716327    0.569409    5.370627
     15          8           0       -2.720198    0.953067    6.364178
     16          7           0       -2.900294    1.355648    1.290381
     17          1           0       -2.544149    2.074273    1.912336
     18          6           0       -2.015924    1.004767    0.196851
     19          1           0       -2.281846   -0.009373   -0.112755
     20          6           0       -0.558856    1.057424    0.669768
     21          6           0       -2.104491    1.988493   -0.994108
     22          1           0       -2.088320    3.006142   -0.586136
     23          1           0       -1.176798    1.891802   -1.577562
     24          8           0       -0.150516    1.957413    1.389544
     25          6           0       -3.261110    1.826585   -1.964892
     26          6           0       -4.180178    0.767348   -1.916691
     27          1           0       -4.182973    0.074582   -1.079847
     28          6           0       -3.347410    2.737908   -3.030652
     29          1           0       -2.651783    3.573397   -3.073568
     30          6           0       -5.130397    0.605401   -2.934015
     31          1           0       -5.831643   -0.222343   -2.878818
     32          6           0       -4.304121    2.586053   -4.036118
     33          1           0       -4.367599    3.319208   -4.836821
     34          6           0       -5.191522    1.502809   -4.001090
     35          1           0       -5.937641    1.379057   -4.780623
     36          7           0        0.243839    0.087588    0.133546
     37          1           0       -0.174109   -0.575375   -0.505615
     38          6           0        1.668341    0.291133   -0.044157
     39          1           0        1.876808    1.340414    0.190684
     40          6           0        1.979098    0.057951   -1.539246
     41          6           0        2.514738   -0.583356    0.916574
     42          1           0        2.678645   -1.584698    0.498259
     43          1           0        1.932853   -0.712625    1.834215
     44          8           0        1.097769   -0.382843   -2.311761
     45          6           0        3.872577    0.042703    1.235234
     46          7           0        4.414076   -0.298610    2.423073
     47          1           0        5.308096    0.101792    2.676581
     48          1           0        3.918236   -0.839909    3.115957
     49          8           0        4.448491    0.803286    0.450745
     50          7           0        3.209388    0.360850   -1.953240
     51          1           0        3.890800    0.650628   -1.235424
     52          6           0        3.569306    0.205393   -3.355891
     53          1           0        3.095898   -0.724668   -3.700153
     54          6           0        5.066271   -0.019798   -3.550040
     55          6           0        3.078859    1.383844   -4.237554
     56          1           0        2.212311    1.830394   -3.738543
     57          1           0        3.857036    2.150269   -4.259860
     58          8           0        5.641631    0.256615   -4.576077
     59          6           0        2.702629    0.962029   -5.680525
     60          1           0        3.222394    1.588522   -6.410408
     61          1           0        3.038792   -0.061692   -5.881227
     62          6           0        1.199541    1.071611   -5.969717
     63          1           0        0.886142    2.122870   -5.903550
     64          1           0        0.990455    0.716917   -6.986618
     65          7           0        0.425618    0.281678   -5.000548
     66          1           0        0.932419   -0.166618   -4.235889
     67          7           0       -1.675488    1.092867   -5.616514
     68          1           0       -2.626530    1.327458   -5.352728
     69          1           0       -1.338649    1.402777   -6.514978
     70          7           0       -1.407863   -0.141759   -3.669881
     71          1           0       -2.385594   -0.012082   -3.435877
     72          1           0       -0.765583   -0.391138   -2.921718
     73          6           0       -0.882977    0.423202   -4.766777
     74          8           0        5.645487   -0.592519   -2.478412
     75          1           0        6.592029   -0.712465   -2.688757
 ---------------------------------------------------------------------

 SCF Done:  E(RB3LYP) =  -1917.48825169     A.U. after    3 cycles

 Alpha  occ. eigenvalues --  -19.30227 -19.25870 -19.24420 -19.22900 -19.22437
 Alpha  occ. eigenvalues --  -19.20825 -19.15265 -14.50894 -14.49935 -14.49351
 Alpha  occ. eigenvalues --  -14.47778 -14.46941 -14.46487 -14.45315 -14.40157
 Alpha  occ. eigenvalues --  -14.39200 -10.46668 -10.42815 -10.41875 -10.40480
 Alpha  occ. eigenvalues --  -10.39382 -10.37389 -10.35664 -10.35600 -10.35514
 Alpha  occ. eigenvalues --  -10.33819 -10.33413 -10.31365 -10.30911 -10.30749
 Alpha  occ. eigenvalues --  -10.30736 -10.30462 -10.30309 -10.29874 -10.29640
 Alpha  occ. eigenvalues --  -10.29529 -10.29412 -10.28934 -10.26163  -1.21152
 Alpha  occ. eigenvalues --   -1.17037  -1.15295  -1.14495  -1.14448  -1.12518
 Alpha  occ. eigenvalues --   -1.12253  -1.07137  -1.05003  -1.04698  -1.03811
 Alpha  occ. eigenvalues --   -1.03352  -1.01999  -1.01326  -0.97477  -0.96229
 Alpha  occ. eigenvalues --   -0.94023  -0.92207  -0.90383  -0.88993  -0.86858
 Alpha  occ. eigenvalues --   -0.84990  -0.84559  -0.82436  -0.81131  -0.79297
 Alpha  occ. eigenvalues --   -0.77645  -0.76430  -0.74023  -0.72897  -0.72398
 Alpha  occ. eigenvalues --   -0.71250  -0.70889  -0.70569  -0.69813  -0.69013
 Alpha  occ. eigenvalues --   -0.68491  -0.68228  -0.67634  -0.66305  -0.64556
 Alpha  occ. eigenvalues --   -0.64249  -0.63678  -0.63289  -0.62933  -0.61379
 Alpha  occ. eigenvalues --   -0.60506  -0.60357  -0.60193  -0.59332  -0.58972
 Alpha  occ. eigenvalues --   -0.58509  -0.58230  -0.58012  -0.57500  -0.56940
 Alpha  occ. eigenvalues --   -0.56556  -0.56110  -0.55818  -0.55239  -0.54873
 Alpha  occ. eigenvalues --   -0.54621  -0.54136  -0.53386  -0.53063  -0.52817
 Alpha  occ. eigenvalues --   -0.52662  -0.52157  -0.51749  -0.51540  -0.51124
 Alpha  occ. eigenvalues --   -0.50446  -0.49821  -0.49548  -0.49495  -0.49055
 Alpha  occ. eigenvalues --   -0.48566  -0.48006  -0.47408  -0.46914  -0.46567
 Alpha  occ. eigenvalues --   -0.46352  -0.45874  -0.45740  -0.45496  -0.44360
 Alpha  occ. eigenvalues --   -0.44290  -0.44206  -0.43219  -0.42170  -0.41816
 Alpha  occ. eigenvalues --   -0.41135  -0.40270  -0.39380  -0.38816  -0.38033
 Alpha  occ. eigenvalues --   -0.37508  -0.37341  -0.37004  -0.36303  -0.35970
 Alpha  occ. eigenvalues --   -0.35483  -0.34927  -0.34289  -0.32791  -0.30682
 Alpha  occ. eigenvalues --   -0.29115
 Alpha virt. eigenvalues --   -0.11563  -0.11062  -0.10927  -0.10518  -0.09748
 Alpha virt. eigenvalues --   -0.08766  -0.08159  -0.06716  -0.05687  -0.03924
 Alpha virt. eigenvalues --   -0.02349  -0.01924  -0.01691  -0.01455  -0.01367

 Mulliken charges:
               1
     1  N   -0.718014
     2  H    0.318501
     3  H    0.327437
     4  C   -0.093235
     5  H    0.162626
     6  C    0.598159
     7  C   -0.357672
     8  H    0.176509
     9  H    0.168190
    10  O   -0.526552
    11  C    0.577809
    12  N   -0.750698
    13  H    0.340119
    14  H    0.376319
    15  O   -0.507538
    16  N   -0.587711
    17  H    0.354263
    18  C   -0.076352
    19  H    0.171365
    20  C    0.598939
    21  C   -0.349763
    22  H    0.191870
    23  H    0.147241
    24  O   -0.504097
    25  C    0.142508
    26  C   -0.240798
    27  H    0.202885
    28  C   -0.178937
    29  H    0.143579
    30  C   -0.140463
    31  H    0.165247
    32  C   -0.181212
    33  H    0.155999
    34  C   -0.139168
    35  H    0.161065
    36  N   -0.595776
    37  H    0.340397
    38  C   -0.070881
    39  H    0.223505
    40  C    0.619934
    41  C   -0.383552
    42  H    0.198006
    43  H    0.198137
    44  O   -0.601690
    45  C    0.639700
    46  N   -0.735422
    47  H    0.367956
    48  H    0.361940
    49  O   -0.531942
    50  N   -0.615912
    51  H    0.419203
    52  C   -0.045449
    53  H    0.193809
    54  C    0.579809
    55  C   -0.284869
    56  H    0.155804
    57  H    0.192847
    58  O   -0.439832
    59  C   -0.302224
    60  H    0.192121
    61  H    0.177762
    62  C   -0.161111
    63  H    0.172239
    64  H    0.181964
    65  N   -0.630042
    66  H    0.404624
    67  N   -0.772992
    68  H    0.383527
    69  H    0.379627
    70  N   -0.796250
    71  H    0.378224
    72  H    0.400883
    73  C    0.800393
    74  O   -0.556258
    75  H    0.433375
 Sum of Mulliken charges =   1.00000

 Dipole moment (field-independent basis, Debye):
    X=             -0.4914    Y=              1.8387    Z=            -15.5764  Tot=             15.6922
 Quadrupole moment (field-independent basis, Debye-Ang):
   XX=           -143.0883   YY=           -217.0528   ZZ=           -144.7905
   XY=            -21.8842   XZ=             18.7884   YZ=            -29.1197

 Normal termination of Gaussian 16 at Tue May 31 12:10:06 2022.
