 Gaussian 16, Revision C.01,
 Gaussian 16:  ES64L-G16RevC.01  3-Jul-2019

 ----------------------------------------------------------------------
 # B3LYP/6-31G* empiricaldispersion=gd3 guess=read geom=check nosymm in
 tegral(ultrafinegrid)
 ----------------------------------------------------------------------

 ------------------------------------------------------
 Candidate Structure: Conf:684 Charge calc in gas phase
 ------------------------------------------------------
 Structure from the checkpoint file:  "conf-684.chk"
 Charge =  1 Multiplicity = 1

                          Input orientation:
 ---------------------------------------------------------------------
 Center     Atomic      Atomic             Coordinates (Angstroms)
 Number     Number       Type             X           Y           Z
 ---------------------------------------------------------------------
      1          7           0       -4.041196    2.574380    2.087178
      2          1           0       -4.590159    3.399238    2.322258
      3          1           0       -4.150455    2.424819    1.085475
      4          6           0       -2.636478    2.779477    2.469432
      5          1           0       -2.168060    3.671274    2.015411
      6          6           0       -1.835704    1.548420    2.017193
      7          6           0       -2.546926    2.898914    3.990337
      8          1           0       -3.084703    3.798105    4.319202
      9          1           0       -3.043821    2.032935    4.435343
     10          8           0       -1.431073    0.686376    2.781307
     11          6           0       -1.109878    3.010773    4.474214
     12          7           0       -0.869096    2.561699    5.724397
     13          1           0        0.084948    2.570472    6.059905
     14          1           0       -1.540217    1.994015    6.220754
     15          8           0       -0.218610    3.540296    3.800832
     16          7           0       -1.617491    1.486353    0.662760
     17          1           0       -2.167198    2.102632    0.076854
     18          6           0       -1.204994    0.231308    0.062850
     19          1           0       -1.633307   -0.588147    0.652385
     20          6           0        0.327082    0.088875    0.126761
     21          6           0       -1.731665    0.134022   -1.398496
     22          1           0       -1.143728    0.797111   -2.044537
     23          1           0       -1.569124   -0.885007   -1.764517
     24          8           0        1.061551    1.009537    0.527844
     25          6           0       -3.194972    0.513191   -1.461428
     26          6           0       -4.168117   -0.315612   -0.886574
     27          1           0       -3.877930   -1.280464   -0.477567
     28          6           0       -3.588938    1.753576   -1.981607
     29          1           0       -2.848960    2.395869   -2.457210
     30          6           0       -5.499234    0.092179   -0.820528
     31          1           0       -6.241019   -0.560103   -0.369288
     32          6           0       -4.923464    2.167080   -1.916191
     33          1           0       -5.213325    3.128551   -2.330931
     34          6           0       -5.880100    1.338406   -1.328617
     35          1           0       -6.917606    1.654715   -1.274744
     36          7           0        0.788519   -1.084032   -0.324921
     37          1           0        0.152116   -1.783397   -0.721236
     38          6           0        2.203108   -1.442612   -0.469770
     39          1           0        2.722008   -1.184026    0.460210
     40          6           0        2.847781   -0.665443   -1.646848
     41          6           0        2.317450   -2.955768   -0.721012
     42          1           0        1.984784   -3.486160    0.177890
     43          1           0        3.367057   -3.206393   -0.890417
     44          8           0        3.020420   -1.179944   -2.744696
     45          6           0        1.421676   -3.435570   -1.866803
     46          7           0        2.017938   -4.145550   -2.851387
     47          1           0        1.439078   -4.384376   -3.647418
     48          1           0        3.001457   -4.003621   -3.035235
     49          8           0        0.200185   -3.244644   -1.831842
     50          7           0        3.181108    0.617918   -1.337394
     51          1           0        2.829338    0.972418   -0.450489
     52          6           0        3.592496    1.591693   -2.341332
     53          1           0        3.463246    1.111296   -3.317497
     54          6           0        5.080149    1.920598   -2.167968
     55          6           0        2.757982    2.874917   -2.215061
     56          1           0        2.971181    3.281803   -1.219134
     57          1           0        3.132379    3.612084   -2.933489
     58          8           0        5.511215    3.015304   -1.877060
     59          6           0        1.251759    2.641306   -2.390065
     60          1           0        0.976616    2.664884   -3.451079
     61          1           0        0.995978    1.643938   -2.024017
     62          6           0        0.375093    3.659229   -1.642757
     63          1           0        0.496093    4.670397   -2.040967
     64          1           0       -0.681363    3.399208   -1.777369
     65          7           0        0.632102    3.685507   -0.199162
     66          1           0        0.496773    2.790822    0.295371
     67          7           0        1.886634    5.659958   -0.194652
     68          1           0        2.255557    6.444188    0.323689
     69          1           0        2.306217    5.486501   -1.096620
     70          7           0        1.232136    4.668897    1.798454
     71          1           0        1.874606    5.251213    2.316084
     72          1           0        0.575896    4.109977    2.362892
     73          6           0        1.259425    4.656788    0.466841
     74          8           0        5.849055    0.835595   -2.365045
     75          1           0        6.776165    1.109035   -2.226705
 ---------------------------------------------------------------------

 SCF Done:  E(RB3LYP) =  -1917.49790129     A.U. after    1 cycles

 Alpha  occ. eigenvalues --  -19.28212 -19.23102 -19.22929 -19.21610 -19.21163
 Alpha  occ. eigenvalues --  -19.21010 -19.20638 -14.50209 -14.48864 -14.48267
 Alpha  occ. eigenvalues --  -14.45920 -14.45576 -14.45285 -14.45022 -14.43874
 Alpha  occ. eigenvalues --  -14.40841 -10.45840 -10.40854 -10.39413 -10.39083
 Alpha  occ. eigenvalues --  -10.38210 -10.38136 -10.37723 -10.34888 -10.33871
 Alpha  occ. eigenvalues --  -10.33595 -10.33383 -10.31901 -10.29883 -10.29866
 Alpha  occ. eigenvalues --  -10.29684 -10.29293 -10.29121 -10.28452 -10.28332
 Alpha  occ. eigenvalues --  -10.28062 -10.27716 -10.27663 -10.27609  -1.19298
 Alpha  occ. eigenvalues --   -1.14689  -1.14171  -1.13324  -1.12972  -1.12586
 Alpha  occ. eigenvalues --   -1.12122  -1.10414  -1.03777  -1.02976  -1.02592
 Alpha  occ. eigenvalues --   -1.02260  -1.02088  -0.99893  -0.98940  -0.97963
 Alpha  occ. eigenvalues --   -0.94624  -0.90950  -0.89323  -0.87451  -0.85747
 Alpha  occ. eigenvalues --   -0.85341  -0.83364  -0.82761  -0.80153  -0.77342
 Alpha  occ. eigenvalues --   -0.76593  -0.76271  -0.74079  -0.72653  -0.71403
 Alpha  occ. eigenvalues --   -0.70613  -0.69759  -0.68790  -0.68468  -0.67807
 Alpha  occ. eigenvalues --   -0.67570  -0.67328  -0.66805  -0.66589  -0.64065
 Alpha  occ. eigenvalues --   -0.63742  -0.62908  -0.62140  -0.61876  -0.60948
 Alpha  occ. eigenvalues --   -0.60203  -0.59865  -0.59323  -0.59295  -0.59021
 Alpha  occ. eigenvalues --   -0.58605  -0.57819  -0.57151  -0.56806  -0.56391
 Alpha  occ. eigenvalues --   -0.55815  -0.55700  -0.54746  -0.54561  -0.53974
 Alpha  occ. eigenvalues --   -0.53698  -0.53341  -0.53264  -0.52250  -0.51980
 Alpha  occ. eigenvalues --   -0.51411  -0.50812  -0.50714  -0.50571  -0.49906
 Alpha  occ. eigenvalues --   -0.49394  -0.49290  -0.48898  -0.48741  -0.48330
 Alpha  occ. eigenvalues --   -0.48170  -0.48003  -0.47537  -0.46960  -0.46184
 Alpha  occ. eigenvalues --   -0.46043  -0.45581  -0.45454  -0.45334  -0.45049
 Alpha  occ. eigenvalues --   -0.44504  -0.43907  -0.43062  -0.42708  -0.41090
 Alpha  occ. eigenvalues --   -0.40492  -0.38664  -0.38191  -0.37837  -0.37289
 Alpha  occ. eigenvalues --   -0.36700  -0.36005  -0.35601  -0.35476  -0.35005
 Alpha  occ. eigenvalues --   -0.34384  -0.34281  -0.34085  -0.33531  -0.33306
 Alpha  occ. eigenvalues --   -0.32262
 Alpha virt. eigenvalues --   -0.10598  -0.10048  -0.09535  -0.08795  -0.08062
 Alpha virt. eigenvalues --   -0.07579  -0.06744  -0.06695  -0.06325  -0.05985
 Alpha virt. eigenvalues --   -0.03889  -0.02431  -0.01171  -0.00618  -0.00506

 Mulliken charges:
               1
     1  N   -0.729550
     2  H    0.313130
     3  H    0.313200
     4  C   -0.068857
     5  H    0.131046
     6  C    0.643908
     7  C   -0.360786
     8  H    0.179472
     9  H    0.191732
    10  O   -0.506377
    11  C    0.648238
    12  N   -0.732870
    13  H    0.354530
    14  H    0.359267
    15  O   -0.568733
    16  N   -0.642623
    17  H    0.338109
    18  C   -0.053919
    19  H    0.202603
    20  C    0.670350
    21  C   -0.420170
    22  H    0.157711
    23  H    0.204789
    24  O   -0.583462
    25  C    0.164288
    26  C   -0.169648
    27  H    0.149014
    28  C   -0.228329
    29  H    0.132359
    30  C   -0.120639
    31  H    0.159371
    32  C   -0.132301
    33  H    0.149236
    34  C   -0.134387
    35  H    0.155863
    36  N   -0.624521
    37  H    0.401833
    38  C   -0.071751
    39  H    0.187975
    40  C    0.626939
    41  C   -0.382676
    42  H    0.199765
    43  H    0.177368
    44  O   -0.513612
    45  C    0.625801
    46  N   -0.718093
    47  H    0.353988
    48  H    0.359359
    49  O   -0.539212
    50  N   -0.616434
    51  H    0.368954
    52  C   -0.054967
    53  H    0.210407
    54  C    0.601038
    55  C   -0.297395
    56  H    0.144160
    57  H    0.171424
    58  O   -0.463369
    59  C   -0.281340
    60  H    0.169511
    61  H    0.170459
    62  C   -0.189365
    63  H    0.175092
    64  H    0.173548
    65  N   -0.609442
    66  H    0.424974
    67  N   -0.756473
    68  H    0.370763
    69  H    0.380465
    70  N   -0.784044
    71  H    0.360830
    72  H    0.437346
    73  C    0.771839
    74  O   -0.550049
    75  H    0.423337
 Sum of Mulliken charges =   1.00000

 Dipole moment (field-independent basis, Debye):
    X=              2.2090    Y=             13.4420    Z=              1.2286  Tot=             13.6775
 Quadrupole moment (field-independent basis, Debye-Ang):
   XX=           -166.5267   YY=           -132.4553   ZZ=           -176.3712
   XY=             -6.3830   XZ=            -10.4219   YZ=             16.6644

 Normal termination of Gaussian 16 at Tue May 31 12:09:42 2022.
