 Gaussian 16, Revision C.01,
 Gaussian 16:  ES64L-G16RevC.01  3-Jul-2019

 ----------------------------------------------------------------------
 # B3LYP/6-31G* empiricaldispersion=gd3 guess=read geom=check nosymm in
 tegral(ultrafinegrid)
 ----------------------------------------------------------------------

 ------------------------------------------------------
 Candidate Structure: Conf:472 Charge calc in gas phase
 ------------------------------------------------------
 Structure from the checkpoint file:  "conf-472.chk"
 Charge =  1 Multiplicity = 1

                          Input orientation:
 ---------------------------------------------------------------------
 Center     Atomic      Atomic             Coordinates (Angstroms)
 Number     Number       Type             X           Y           Z
 ---------------------------------------------------------------------
      1          7           0       -5.838416    2.526519    2.137926
      2          1           0       -6.132019    1.565390    2.297799
      3          1           0       -6.187395    3.110624    2.892417
      4          6           0       -4.392144    2.581526    2.049284
      5          1           0       -4.101139    3.531337    1.579063
      6          6           0       -3.931989    1.416099    1.162751
      7          6           0       -3.611830    2.489246    3.406152
      8          1           0       -2.563371    2.760754    3.250511
      9          1           0       -4.042595    3.217728    4.103813
     10          8           0       -4.630686    0.429873    0.966826
     11          6           0       -3.613348    1.072200    3.971529
     12          7           0       -4.651067    0.761904    4.804697
     13          1           0       -4.666423   -0.160808    5.218675
     14          1           0       -5.257286    1.467998    5.194095
     15          8           0       -2.769856    0.251359    3.633772
     16          7           0       -2.664773    1.529026    0.670859
     17          1           0       -2.071787    2.305665    0.939370
     18          6           0       -1.966325    0.360497    0.194661
     19          1           0       -2.360423   -0.522457    0.708308
     20          6           0       -0.463295    0.550959    0.435550
     21          6           0       -2.084567    0.190996   -1.346033
     22          1           0       -1.545873    1.047273   -1.773467
     23          1           0       -1.535357   -0.714774   -1.629252
     24          8           0        0.012166    1.687946    0.492570
     25          6           0       -3.482772    0.139656   -1.911435
     26          6           0       -4.131599   -1.090053   -2.113281
     27          1           0       -3.640562   -2.008028   -1.799270
     28          6           0       -4.141600    1.315201   -2.299454
     29          1           0       -3.659633    2.274293   -2.125916
     30          6           0       -5.403700   -1.141033   -2.689295
     31          1           0       -5.903266   -2.098414   -2.813716
     32          6           0       -5.414199    1.267304   -2.876016
     33          1           0       -5.913377    2.189467   -3.157820
     34          6           0       -6.045608    0.040419   -3.077820
     35          1           0       -7.037080    0.002213   -3.518757
     36          7           0        0.268552   -0.586525    0.404874
     37          1           0       -0.159102   -1.465744    0.700278
     38          6           0        1.730063   -0.560929    0.382966
     39          1           0        2.071927    0.223305    1.066222
     40          6           0        2.180793   -0.276229   -1.075216
     41          6           0        2.301006   -1.936375    0.782020
     42          1           0        3.371985   -1.821134    0.975296
     43          1           0        2.197920   -2.609566   -0.075375
     44          8           0        2.265157   -1.175903   -1.907044
     45          6           0        1.553299   -2.580322    1.942305
     46          7           0        2.273505   -2.852612    3.059651
     47          1           0        1.807274   -3.306443    3.834144
     48          1           0        3.258385   -2.650030    3.140672
     49          8           0        0.355529   -2.847386    1.847734
     50          7           0        2.439194    1.029329   -1.347358
     51          1           0        2.231312    1.729278   -0.640603
     52          6           0        2.823380    1.495218   -2.666789
     53          1           0        3.336925    0.674076   -3.175346
     54          6           0        3.787809    2.663373   -2.494087
     55          6           0        1.625660    1.961439   -3.535929
     56          1           0        1.123751    2.780998   -3.004451
     57          1           0        2.026670    2.376070   -4.468306
     58          8           0        3.918967    3.302339   -1.477096
     59          6           0        0.606733    0.853598   -3.840104
     60          1           0        1.098247    0.040785   -4.389614
     61          1           0        0.245046    0.406945   -2.911645
     62          6           0       -0.590533    1.411391   -4.630662
     63          1           0       -0.932300    2.346615   -4.178856
     64          1           0       -0.320394    1.653431   -5.665677
     65          7           0       -1.766161    0.531761   -4.629331
     66          1           0       -2.476604    0.716423   -3.923751
     67          7           0       -1.050308   -0.949375   -6.278335
     68          1           0       -1.258159   -1.653708   -6.969585
     69          1           0       -0.116680   -0.570937   -6.269177
     70          7           0       -3.151408   -1.171366   -5.320577
     71          1           0       -3.231391   -2.114163   -5.670228
     72          1           0       -3.804727   -0.914783   -4.581397
     73          6           0       -1.976626   -0.533267   -5.400170
     74          8           0        4.442231    2.924387   -3.644765
     75          1           0        5.015021    3.697762   -3.482152
 ---------------------------------------------------------------------

 SCF Done:  E(RB3LYP) =  -1917.46494942     A.U. after    1 cycles

 Alpha  occ. eigenvalues --  -19.28732 -19.23127 -19.20548 -19.20305 -19.19606
 Alpha  occ. eigenvalues --  -19.18119 -19.17028 -14.52609 -14.51791 -14.51478
 Alpha  occ. eigenvalues --  -14.44911 -14.43976 -14.43796 -14.42571 -14.41934
 Alpha  occ. eigenvalues --  -14.37317 -10.48454 -10.41164 -10.37464 -10.37457
 Alpha  occ. eigenvalues --  -10.37204 -10.36297 -10.35084 -10.34966 -10.33486
 Alpha  occ. eigenvalues --  -10.32536 -10.31455 -10.30568 -10.30059 -10.29911
 Alpha  occ. eigenvalues --  -10.29579 -10.29136 -10.29078 -10.28991 -10.28914
 Alpha  occ. eigenvalues --  -10.28862 -10.28786 -10.28096 -10.26273  -1.19664
 Alpha  occ. eigenvalues --   -1.17096  -1.12711  -1.11926  -1.11468  -1.10839
 Alpha  occ. eigenvalues --   -1.10215  -1.08817  -1.06264  -1.05264  -1.01632
 Alpha  occ. eigenvalues --   -1.00810  -0.99631  -0.98558  -0.96514  -0.95651
 Alpha  occ. eigenvalues --   -0.94882  -0.91744  -0.88694  -0.87294  -0.85986
 Alpha  occ. eigenvalues --   -0.84407  -0.83261  -0.81509  -0.81437  -0.78236
 Alpha  occ. eigenvalues --   -0.76681  -0.75248  -0.74411  -0.72469  -0.72216
 Alpha  occ. eigenvalues --   -0.70560  -0.70304  -0.70053  -0.67800  -0.67557
 Alpha  occ. eigenvalues --   -0.66920  -0.66607  -0.65784  -0.65385  -0.64756
 Alpha  occ. eigenvalues --   -0.64694  -0.62206  -0.61410  -0.60962  -0.60749
 Alpha  occ. eigenvalues --   -0.60425  -0.59830  -0.59377  -0.59069  -0.58355
 Alpha  occ. eigenvalues --   -0.57402  -0.57177  -0.56966  -0.56676  -0.55428
 Alpha  occ. eigenvalues --   -0.55246  -0.55000  -0.54158  -0.53618  -0.53078
 Alpha  occ. eigenvalues --   -0.52574  -0.52430  -0.51916  -0.51777  -0.51616
 Alpha  occ. eigenvalues --   -0.50878  -0.50547  -0.50093  -0.50071  -0.49236
 Alpha  occ. eigenvalues --   -0.48866  -0.48357  -0.47985  -0.47780  -0.47685
 Alpha  occ. eigenvalues --   -0.46827  -0.46397  -0.46107  -0.45898  -0.45549
 Alpha  occ. eigenvalues --   -0.45279  -0.44850  -0.44686  -0.44075  -0.43922
 Alpha  occ. eigenvalues --   -0.43633  -0.43323  -0.43240  -0.42983  -0.41898
 Alpha  occ. eigenvalues --   -0.40890  -0.40641  -0.36888  -0.36077  -0.35371
 Alpha  occ. eigenvalues --   -0.35292  -0.35035  -0.34709  -0.34322  -0.33680
 Alpha  occ. eigenvalues --   -0.33034  -0.32464  -0.32094  -0.31870  -0.30738
 Alpha  occ. eigenvalues --   -0.29250
 Alpha virt. eigenvalues --   -0.12232  -0.10819  -0.10680  -0.08357  -0.08119
 Alpha virt. eigenvalues --   -0.07190  -0.06033  -0.05239  -0.04960  -0.04350
 Alpha virt. eigenvalues --   -0.03929  -0.02951  -0.01901  -0.00943  -0.00432

 Mulliken charges:
               1
     1  N   -0.712383
     2  H    0.326628
     3  H    0.293635
     4  C   -0.074460
     5  H    0.152480
     6  C    0.650831
     7  C   -0.368481
     8  H    0.169196
     9  H    0.146956
    10  O   -0.530637
    11  C    0.597749
    12  N   -0.737826
    13  H    0.349715
    14  H    0.335921
    15  O   -0.510240
    16  N   -0.616914
    17  H    0.348580
    18  C   -0.024627
    19  H    0.205598
    20  C    0.608734
    21  C   -0.362944
    22  H    0.136167
    23  H    0.163277
    24  O   -0.550676
    25  C    0.156213
    26  C   -0.191245
    27  H    0.151083
    28  C   -0.205609
    29  H    0.148640
    30  C   -0.160179
    31  H    0.158247
    32  C   -0.113956
    33  H    0.161081
    34  C   -0.131156
    35  H    0.161149
    36  N   -0.628657
    37  H    0.387999
    38  C   -0.044236
    39  H    0.181805
    40  C    0.629901
    41  C   -0.398357
    42  H    0.161865
    43  H    0.220281
    44  O   -0.538754
    45  C    0.619062
    46  N   -0.742815
    47  H    0.360262
    48  H    0.351695
    49  O   -0.521953
    50  N   -0.598350
    51  H    0.369595
    52  C   -0.045648
    53  H    0.203412
    54  C    0.586373
    55  C   -0.280109
    56  H    0.162730
    57  H    0.171657
    58  O   -0.445610
    59  C   -0.287134
    60  H    0.155208
    61  H    0.192136
    62  C   -0.182669
    63  H    0.192823
    64  H    0.181136
    65  N   -0.605721
    66  H    0.378710
    67  N   -0.761177
    68  H    0.383639
    69  H    0.389710
    70  N   -0.765400
    71  H    0.371792
    72  H    0.394108
    73  C    0.808814
    74  O   -0.566033
    75  H    0.427360
 Sum of Mulliken charges =   1.00000

 Dipole moment (field-independent basis, Debye):
    X=             -5.3408    Y=              0.2756    Z=            -15.3155  Tot=             16.2224
 Quadrupole moment (field-independent basis, Debye-Ang):
   XX=           -159.1055   YY=           -197.8044   ZZ=            -66.9789
   XY=             -3.3896   XZ=             17.1062   YZ=              9.1915

 Normal termination of Gaussian 16 at Tue May 31 12:09:40 2022.
