 Gaussian 16, Revision C.01,
 Gaussian 16:  ES64L-G16RevC.01  3-Jul-2019

 ----------------------------------------------------------------------
 # B3LYP/6-31G* empiricaldispersion=gd3 guess=read geom=check nosymm in
 tegral(ultrafinegrid)
 ----------------------------------------------------------------------

 ------------------------------------------------------
 Candidate Structure: Conf:549 Charge calc in gas phase
 ------------------------------------------------------
 Structure from the checkpoint file:  "conf-549.chk"
 Charge =  1 Multiplicity = 1

                          Input orientation:
 ---------------------------------------------------------------------
 Center     Atomic      Atomic             Coordinates (Angstroms)
 Number     Number       Type             X           Y           Z
 ---------------------------------------------------------------------
      1          7           0       -3.570381   -1.907887    2.244708
      2          1           0       -4.294453   -2.007928    1.533500
      3          1           0       -2.768835   -2.416501    1.867973
      4          6           0       -3.199991   -0.506664    2.350639
      5          1           0       -4.101656    0.063662    2.615105
      6          6           0       -2.651583    0.072700    1.024854
      7          6           0       -2.152155   -0.365959    3.493698
      8          1           0       -2.594010   -0.825299    4.386744
      9          1           0       -1.255342   -0.927806    3.226216
     10          8           0       -2.396926   -0.626868    0.052928
     11          6           0       -1.710917    1.054933    3.819746
     12          7           0       -2.742879    1.936513    4.122759
     13          1           0       -2.442958    2.805439    4.553405
     14          1           0       -3.611591    1.559531    4.487296
     15          8           0       -0.553887    1.445503    3.757973
     16          7           0       -2.420741    1.428613    1.023077
     17          1           0       -2.682101    1.982422    1.833722
     18          6           0       -1.884115    2.105205   -0.137897
     19          1           0       -2.104708    1.461878   -1.001765
     20          6           0       -0.355478    2.227356   -0.067465
     21          6           0       -2.571170    3.478421   -0.343998
     22          1           0       -2.249720    4.165748    0.449510
     23          1           0       -2.227344    3.903981   -1.292130
     24          8           0        0.230515    3.213300   -0.609199
     25          6           0       -4.073683    3.325116   -0.353887
     26          6           0       -4.844464    3.636627    0.771306
     27          1           0       -4.361488    4.044238    1.657311
     28          6           0       -4.708538    2.797831   -1.487119
     29          1           0       -4.112454    2.541145   -2.362396
     30          6           0       -6.226931    3.430295    0.764302
     31          1           0       -6.815863    3.682113    1.642150
     32          6           0       -6.086415    2.587186   -1.496997
     33          1           0       -6.566601    2.176883   -2.381267
     34          6           0       -6.849977    2.905039   -0.369244
     35          1           0       -7.924355    2.744707   -0.376379
     36          7           0        0.283305    1.243636    0.543656
     37          1           0       -0.238888    0.426228    0.882681
     38          6           0        1.720805    1.198489    0.863834
     39          1           0        2.025198    2.215927    1.133626
     40          6           0        2.587035    0.750389   -0.347626
     41          6           0        1.936314    0.258614    2.058854
     42          1           0        1.377002    0.653846    2.913730
     43          1           0        2.999852    0.237703    2.305150
     44          8           0        3.259683   -0.272436   -0.338799
     45          6           0        1.392269   -1.140334    1.778354
     46          7           0        2.279405   -2.165831    1.828574
     47          1           0        1.929495   -3.068699    1.528783
     48          1           0        3.248031   -1.967926    1.611516
     49          8           0        0.186122   -1.306919    1.565159
     50          7           0        2.535155    1.619184   -1.391298
     51          1           0        2.012300    2.481360   -1.250299
     52          6           0        3.380221    1.473772   -2.551414
     53          1           0        3.477937    0.406241   -2.774724
     54          6           0        4.820828    1.977793   -2.391462
     55          6           0        2.728221    2.186926   -3.754049
     56          1           0        2.597524    3.245448   -3.482095
     57          1           0        3.425603    2.163598   -4.595470
     58          8           0        5.617851    1.858379   -3.295636
     59          6           0        1.367893    1.566501   -4.133100
     60          1           0        1.480794    0.839519   -4.943711
     61          1           0        0.956322    1.015574   -3.274105
     62          6           0        0.341180    2.625538   -4.558011
     63          1           0        0.760905    3.265801   -5.342988
     64          1           0       -0.571607    2.155920   -4.943983
     65          7           0        0.016639    3.463816   -3.396229
     66          1           0        0.082425    3.050148   -2.459001
     67          7           0       -0.532458    5.438277   -4.516081
     68          1           0       -0.584473    6.446321   -4.518146
     69          1           0       -0.717013    4.969828   -5.388947
     70          7           0       -0.257814    5.419373   -2.214666
     71          1           0       -0.795232    6.269631   -2.107651
     72          1           0       -0.071931    4.875358   -1.371028
     73          6           0       -0.272349    4.758979   -3.388611
     74          8           0        5.096306    2.559890   -1.209137
     75          1           0        6.040115    2.817857   -1.238096
 ---------------------------------------------------------------------

 SCF Done:  E(RB3LYP) =  -1917.49133157     A.U. after    1 cycles

 Alpha  occ. eigenvalues --  -19.28674 -19.25080 -19.22248 -19.21541 -19.21042
 Alpha  occ. eigenvalues --  -19.20420 -19.20000 -14.52391 -14.51177 -14.50296
 Alpha  occ. eigenvalues --  -14.47271 -14.45472 -14.44939 -14.44635 -14.43373
 Alpha  occ. eigenvalues --  -14.38290 -10.47898 -10.40865 -10.40676 -10.38463
 Alpha  occ. eigenvalues --  -10.38226 -10.37686 -10.36632 -10.36250 -10.34078
 Alpha  occ. eigenvalues --  -10.33952 -10.33547 -10.30892 -10.30832 -10.30046
 Alpha  occ. eigenvalues --  -10.29899 -10.28482 -10.28003 -10.27453 -10.27445
 Alpha  occ. eigenvalues --  -10.27206 -10.27200 -10.27073 -10.26935  -1.19269
 Alpha  occ. eigenvalues --   -1.16697  -1.15498  -1.13332  -1.12648  -1.12030
 Alpha  occ. eigenvalues --   -1.11832  -1.10168  -1.06037  -1.04509  -1.04071
 Alpha  occ. eigenvalues --   -1.02713  -1.01370  -0.99335  -0.98452  -0.96143
 Alpha  occ. eigenvalues --   -0.94012  -0.91776  -0.89059  -0.87898  -0.86237
 Alpha  occ. eigenvalues --   -0.83921  -0.82721  -0.82051  -0.80433  -0.78562
 Alpha  occ. eigenvalues --   -0.77301  -0.75445  -0.73882  -0.73381  -0.72686
 Alpha  occ. eigenvalues --   -0.70849  -0.69754  -0.69434  -0.69074  -0.68427
 Alpha  occ. eigenvalues --   -0.67433  -0.67231  -0.66474  -0.66234  -0.65162
 Alpha  occ. eigenvalues --   -0.64561  -0.63328  -0.62880  -0.62471  -0.61594
 Alpha  occ. eigenvalues --   -0.60802  -0.60044  -0.59568  -0.59447  -0.58882
 Alpha  occ. eigenvalues --   -0.58367  -0.57560  -0.57266  -0.56886  -0.56217
 Alpha  occ. eigenvalues --   -0.55710  -0.54935  -0.54369  -0.53898  -0.53747
 Alpha  occ. eigenvalues --   -0.53483  -0.53319  -0.52610  -0.52088  -0.51815
 Alpha  occ. eigenvalues --   -0.51535  -0.50750  -0.50405  -0.50133  -0.50049
 Alpha  occ. eigenvalues --   -0.49578  -0.49153  -0.48696  -0.48494  -0.48310
 Alpha  occ. eigenvalues --   -0.47975  -0.47826  -0.47452  -0.46597  -0.46243
 Alpha  occ. eigenvalues --   -0.45872  -0.45590  -0.45429  -0.44529  -0.44030
 Alpha  occ. eigenvalues --   -0.43958  -0.42998  -0.42635  -0.42469  -0.42341
 Alpha  occ. eigenvalues --   -0.40566  -0.40125  -0.39818  -0.39408  -0.38082
 Alpha  occ. eigenvalues --   -0.37077  -0.35602  -0.34664  -0.34557  -0.34152
 Alpha  occ. eigenvalues --   -0.33894  -0.33800  -0.33547  -0.33127  -0.32710
 Alpha  occ. eigenvalues --   -0.31209
 Alpha virt. eigenvalues --   -0.12015  -0.10849  -0.08759  -0.08530  -0.07861
 Alpha virt. eigenvalues --   -0.07819  -0.07663  -0.07420  -0.06241  -0.05661
 Alpha virt. eigenvalues --   -0.04156  -0.02534  -0.02051  -0.01761  -0.01103

 Mulliken charges:
               1
     1  N   -0.690025
     2  H    0.312344
     3  H    0.323956
     4  C   -0.096656
     5  H    0.150709
     6  C    0.593330
     7  C   -0.367634
     8  H    0.189369
     9  H    0.214447
    10  O   -0.515720
    11  C    0.539255
    12  N   -0.747872
    13  H    0.348093
    14  H    0.348782
    15  O   -0.485865
    16  N   -0.625912
    17  H    0.364365
    18  C   -0.048882
    19  H    0.205370
    20  C    0.660754
    21  C   -0.390089
    22  H    0.154396
    23  H    0.134958
    24  O   -0.638971
    25  C    0.189081
    26  C   -0.192336
    27  H    0.123673
    28  C   -0.174667
    29  H    0.113623
    30  C   -0.131276
    31  H    0.145850
    32  C   -0.126503
    33  H    0.147178
    34  C   -0.127916
    35  H    0.151497
    36  N   -0.608119
    37  H    0.443287
    38  C   -0.094361
    39  H    0.196515
    40  C    0.648748
    41  C   -0.398090
    42  H    0.240842
    43  H    0.173684
    44  O   -0.517224
    45  C    0.607020
    46  N   -0.716638
    47  H    0.349968
    48  H    0.363511
    49  O   -0.531376
    50  N   -0.635054
    51  H    0.358399
    52  C   -0.043222
    53  H    0.215820
    54  C    0.598771
    55  C   -0.306394
    56  H    0.143319
    57  H    0.203004
    58  O   -0.450254
    59  C   -0.305737
    60  H    0.187668
    61  H    0.177321
    62  C   -0.160505
    63  H    0.173906
    64  H    0.189222
    65  N   -0.624607
    66  H    0.398639
    67  N   -0.761570
    68  H    0.382802
    69  H    0.385090
    70  N   -0.776719
    71  H    0.364594
    72  H    0.423556
    73  C    0.792064
    74  O   -0.564411
    75  H    0.425823
 Sum of Mulliken charges =   1.00000

 Dipole moment (field-independent basis, Debye):
    X=             -4.4699    Y=             19.0981    Z=             -7.7208  Tot=             21.0791
 Quadrupole moment (field-independent basis, Debye-Ang):
   XX=           -184.6385   YY=           -125.6940   ZZ=           -145.6568
   XY=            -22.7014   XZ=             -0.4845   YZ=            -50.4191

 Normal termination of Gaussian 16 at Tue May 31 12:09:43 2022.
