 Gaussian 16, Revision C.01,
 Gaussian 16:  ES64L-G16RevC.01  3-Jul-2019

 ----------------------------------------------------------------------
 # B3LYP/6-31G* empiricaldispersion=gd3 guess=read geom=check nosymm in
 tegral(ultrafinegrid)
 ----------------------------------------------------------------------

 ------------------------------------------------------
 Candidate Structure: Conf:962 Charge calc in gas phase
 ------------------------------------------------------
 Structure from the checkpoint file:  "conf-962.chk"
 Charge =  1 Multiplicity = 1

                          Input orientation:
 ---------------------------------------------------------------------
 Center     Atomic      Atomic             Coordinates (Angstroms)
 Number     Number       Type             X           Y           Z
 ---------------------------------------------------------------------
      1          7           0       -3.870736    2.411469    2.497224
      2          1           0       -4.767580    1.930013    2.533540
      3          1           0       -3.866159    3.103211    3.242729
      4          6           0       -2.761404    1.474654    2.644086
      5          1           0       -1.846013    2.070600    2.750238
      6          6           0       -2.560470    0.684912    1.344549
      7          6           0       -2.794257    0.508102    3.841030
      8          1           0       -3.020319    1.084380    4.747277
      9          1           0       -3.581880   -0.242336    3.715191
     10          8           0       -2.210822   -0.506330    1.368892
     11          6           0       -1.433642   -0.152822    4.051818
     12          7           0       -1.441966   -1.403223    4.562840
     13          1           0       -0.559634   -1.876424    4.704412
     14          1           0       -2.287682   -1.950905    4.620824
     15          8           0       -0.386987    0.464424    3.826255
     16          7           0       -2.699591    1.409297    0.218177
     17          1           0       -3.023656    2.366292    0.330495
     18          6           0       -2.349848    0.944312   -1.126498
     19          1           0       -2.669162   -0.102247   -1.198995
     20          6           0       -0.804655    0.950957   -1.296122
     21          6           0       -3.080988    1.774580   -2.206207
     22          1           0       -2.531829    1.640353   -3.143371
     23          1           0       -4.074254    1.336832   -2.347238
     24          8           0       -0.210322    1.675729   -2.102727
     25          6           0       -3.235586    3.251543   -1.887217
     26          6           0       -4.469061    3.736600   -1.428976
     27          1           0       -5.309814    3.053471   -1.331129
     28          6           0       -2.163893    4.150182   -2.004299
     29          1           0       -1.201056    3.778746   -2.337301
     30          6           0       -4.634829    5.084256   -1.102027
     31          1           0       -5.600210    5.439710   -0.752830
     32          6           0       -2.329211    5.496742   -1.680507
     33          1           0       -1.490305    6.180645   -1.779692
     34          6           0       -3.564153    5.969126   -1.228745
     35          1           0       -3.689748    7.018700   -0.978080
     36          7           0       -0.182887    0.115836   -0.443553
     37          1           0       -0.781220   -0.427420    0.182558
     38          6           0        1.237718    0.177923   -0.162125
     39          1           0        1.546263    1.232387   -0.163546
     40          6           0        2.052873   -0.497152   -1.282153
     41          6           0        1.481549   -0.432811    1.242532
     42          1           0        1.721830   -1.500109    1.157217
     43          1           0        0.561745   -0.354039    1.826622
     44          8           0        1.490772   -0.879629   -2.323094
     45          6           0        2.625448    0.248590    1.989320
     46          7           0        2.400990    0.474437    3.294467
     47          1           0        3.126521    0.940737    3.823239
     48          1           0        1.471604    0.365232    3.700063
     49          8           0        3.691776    0.533690    1.424780
     50          7           0        3.372261   -0.598650   -1.058229
     51          1           0        3.738023   -0.220717   -0.167415
     52          6           0        4.264631   -1.116244   -2.078193
     53          1           0        3.674482   -1.842588   -2.650891
     54          6           0        5.417773   -1.928825   -1.499208
     55          6           0        4.797207   -0.006517   -3.025558
     56          1           0        4.055450    0.798807   -3.021328
     57          1           0        5.718361    0.413211   -2.610403
     58          8           0        6.422883   -2.177408   -2.126185
     59          6           0        5.057719   -0.447753   -4.474275
     60          1           0        5.386601    0.432776   -5.039454
     61          1           0        5.871604   -1.178676   -4.503303
     62          6           0        3.821359   -1.062970   -5.165615
     63          1           0        3.946875   -1.083520   -6.254137
     64          1           0        3.690016   -2.108615   -4.875397
     65          7           0        2.564296   -0.400237   -4.803629
     66          1           0        2.116031   -0.751075   -3.937104
     67          7           0        2.810252    1.477197   -6.170938
     68          1           0        2.414644    2.337724   -6.522339
     69          1           0        3.305251    0.928244   -6.859065
     70          7           0        1.249609    1.450786   -4.440775
     71          1           0        0.988007    2.392998   -4.685552
     72          1           0        0.961074    1.152081   -3.501861
     73          6           0        2.207527    0.835582   -5.138258
     74          8           0        5.183090   -2.364073   -0.246663
     75          1           0        5.970068   -2.874146    0.027137
 ---------------------------------------------------------------------

 SCF Done:  E(RB3LYP) =  -1917.51684311     A.U. after    1 cycles

 Alpha  occ. eigenvalues --  -19.28684 -19.22818 -19.22371 -19.21816 -19.21351
 Alpha  occ. eigenvalues --  -19.21335 -19.20376 -14.50007 -14.47974 -14.47839
 Alpha  occ. eigenvalues --  -14.45205 -14.45024 -14.45006 -14.44608 -14.43173
 Alpha  occ. eigenvalues --  -14.41543 -10.45267 -10.41202 -10.38984 -10.38839
 Alpha  occ. eigenvalues --  -10.38230 -10.37859 -10.37822 -10.33928 -10.33655
 Alpha  occ. eigenvalues --  -10.33482 -10.32737 -10.31716 -10.28939 -10.28761
 Alpha  occ. eigenvalues --  -10.28703 -10.28681 -10.27537 -10.26889 -10.25906
 Alpha  occ. eigenvalues --  -10.25752 -10.25736 -10.25625 -10.25467  -1.19588
 Alpha  occ. eigenvalues --   -1.14381  -1.13728  -1.13317  -1.12883  -1.12356
 Alpha  occ. eigenvalues --   -1.11772  -1.10590  -1.03252  -1.02480  -1.02379
 Alpha  occ. eigenvalues --   -1.01955  -1.01545  -1.00018  -0.98485  -0.98255
 Alpha  occ. eigenvalues --   -0.92442  -0.90225  -0.88175  -0.86576  -0.85207
 Alpha  occ. eigenvalues --   -0.84613  -0.81503  -0.81100  -0.80133  -0.77332
 Alpha  occ. eigenvalues --   -0.75985  -0.75922  -0.72922  -0.72091  -0.71017
 Alpha  occ. eigenvalues --   -0.69792  -0.68865  -0.68296  -0.67548  -0.67240
 Alpha  occ. eigenvalues --   -0.66940  -0.66335  -0.66207  -0.64807  -0.63332
 Alpha  occ. eigenvalues --   -0.63216  -0.62788  -0.62468  -0.61872  -0.61722
 Alpha  occ. eigenvalues --   -0.60440  -0.59544  -0.58663  -0.58182  -0.58070
 Alpha  occ. eigenvalues --   -0.57579  -0.57112  -0.56780  -0.56058  -0.55621
 Alpha  occ. eigenvalues --   -0.55427  -0.55148  -0.54885  -0.53320  -0.53185
 Alpha  occ. eigenvalues --   -0.52958  -0.52510  -0.52439  -0.52127  -0.51757
 Alpha  occ. eigenvalues --   -0.51588  -0.50680  -0.50477  -0.50060  -0.49234
 Alpha  occ. eigenvalues --   -0.49045  -0.48671  -0.48381  -0.48342  -0.48029
 Alpha  occ. eigenvalues --   -0.47890  -0.46966  -0.46455  -0.46226  -0.45572
 Alpha  occ. eigenvalues --   -0.45123  -0.45074  -0.44751  -0.44528  -0.44206
 Alpha  occ. eigenvalues --   -0.43870  -0.42447  -0.40860  -0.40767  -0.40641
 Alpha  occ. eigenvalues --   -0.40505  -0.37978  -0.37382  -0.37223  -0.36848
 Alpha  occ. eigenvalues --   -0.36572  -0.36271  -0.35410  -0.35180  -0.34867
 Alpha  occ. eigenvalues --   -0.34713  -0.34336  -0.33724  -0.32994  -0.31817
 Alpha  occ. eigenvalues --   -0.31361
 Alpha virt. eigenvalues --   -0.09712  -0.09061  -0.08294  -0.07859  -0.07352
 Alpha virt. eigenvalues --   -0.07134  -0.06874  -0.06395  -0.06126  -0.05817
 Alpha virt. eigenvalues --   -0.03007  -0.01179  -0.00666  -0.00170   0.00212

 Mulliken charges:
               1
     1  N   -0.731305
     2  H    0.315404
     3  H    0.324374
     4  C   -0.082304
     5  H    0.202083
     6  C    0.638365
     7  C   -0.367551
     8  H    0.182877
     9  H    0.160754
    10  O   -0.571812
    11  C    0.651195
    12  N   -0.735039
    13  H    0.350689
    14  H    0.357073
    15  O   -0.545550
    16  N   -0.602213
    17  H    0.382648
    18  C   -0.062345
    19  H    0.192516
    20  C    0.645570
    21  C   -0.359698
    22  H    0.170496
    23  H    0.162798
    24  O   -0.571032
    25  C    0.107586
    26  C   -0.183959
    27  H    0.132369
    28  C   -0.180829
    29  H    0.147615
    30  C   -0.121844
    31  H    0.143390
    32  C   -0.129007
    33  H    0.136478
    34  C   -0.128463
    35  H    0.144384
    36  N   -0.621117
    37  H    0.397630
    38  C   -0.040609
    39  H    0.199985
    40  C    0.620410
    41  C   -0.444548
    42  H    0.197481
    43  H    0.207285
    44  O   -0.577074
    45  C    0.628068
    46  N   -0.765681
    47  H    0.348858
    48  H    0.394016
    49  O   -0.545387
    50  N   -0.611162
    51  H    0.408857
    52  C   -0.051621
    53  H    0.186193
    54  C    0.586038
    55  C   -0.272741
    56  H    0.148508
    57  H    0.181842
    58  O   -0.450026
    59  C   -0.280968
    60  H    0.154041
    61  H    0.198947
    62  C   -0.189660
    63  H    0.168006
    64  H    0.194651
    65  N   -0.612274
    66  H    0.423991
    67  N   -0.750083
    68  H    0.369106
    69  H    0.375112
    70  N   -0.787815
    71  H    0.358512
    72  H    0.434253
    73  C    0.770424
    74  O   -0.554790
    75  H    0.427627
 Sum of Mulliken charges =   1.00000

 Dipole moment (field-independent basis, Debye):
    X=              1.8206    Y=              3.0312    Z=             -6.3334  Tot=              7.2536
 Quadrupole moment (field-independent basis, Debye-Ang):
   XX=           -169.8811   YY=           -193.2414   ZZ=            -95.6632
   XY=            -12.0814   XZ=            -54.8220   YZ=            -23.7224

 Normal termination of Gaussian 16 at Tue May 31 12:28:06 2022.
