 Gaussian 16, Revision C.01,
 Gaussian 16:  ES64L-G16RevC.01  3-Jul-2019

 ----------------------------------------------------------------------
 # B3LYP/6-31G* empiricaldispersion=gd3 guess=read geom=check nosymm in
 tegral(ultrafinegrid)
 ----------------------------------------------------------------------

 ------------------------------------------------------
 Candidate Structure: Conf:727 Charge calc in gas phase
 ------------------------------------------------------
 Structure from the checkpoint file:  "conf-727.chk"
 Charge =  1 Multiplicity = 1

                          Input orientation:
 ---------------------------------------------------------------------
 Center     Atomic      Atomic             Coordinates (Angstroms)
 Number     Number       Type             X           Y           Z
 ---------------------------------------------------------------------
      1          7           0       -4.616987    3.957672    0.982141
      2          1           0       -5.175613    3.830977    0.138954
      3          1           0       -4.966379    3.245939    1.626014
      4          6           0       -3.228509    3.640568    0.681262
      5          1           0       -2.920462    4.206688   -0.204850
      6          6           0       -3.004862    2.130279    0.404450
      7          6           0       -2.340041    4.122629    1.854138
      8          1           0       -2.564623    5.182434    2.014826
      9          1           0       -2.617295    3.587474    2.769968
     10          8           0       -3.822135    1.284128    0.750016
     11          6           0       -0.858464    3.975926    1.542534
     12          7           0       -0.083677    3.408394    2.493519
     13          1           0        0.807899    3.045422    2.180584
     14          1           0       -0.516351    2.905046    3.255258
     15          8           0       -0.392079    4.359147    0.458679
     16          7           0       -1.842745    1.830547   -0.243537
     17          1           0       -1.180071    2.578103   -0.407649
     18          6           0       -1.428855    0.479560   -0.554300
     19          1           0       -2.110365   -0.192257   -0.021610
     20          6           0        0.009646    0.271761   -0.027356
     21          6           0       -1.581661    0.243829   -2.091341
     22          1           0       -2.580263    0.619643   -2.340054
     23          1           0       -0.863490    0.887832   -2.614308
     24          8           0        0.557408    1.110761    0.694679
     25          6           0       -1.450068   -1.184154   -2.576697
     26          6           0       -0.363697   -1.583555   -3.371476
     27          1           0        0.409754   -0.864274   -3.629968
     28          6           0       -2.410975   -2.140930   -2.215715
     29          1           0       -3.260886   -1.842399   -1.605556
     30          6           0       -0.242879   -2.910184   -3.794064
     31          1           0        0.602337   -3.200922   -4.412048
     32          6           0       -2.290115   -3.464767   -2.637714
     33          1           0       -3.044330   -4.192654   -2.352399
     34          6           0       -1.205341   -3.852997   -3.428993
     35          1           0       -1.114243   -4.883568   -3.760174
     36          7           0        0.639512   -0.858751   -0.434668
     37          1           0        0.170045   -1.436435   -1.122408
     38          6           0        2.099722   -1.000973   -0.368476
     39          1           0        2.430344   -0.818932    0.655869
     40          6           0        2.688785    0.062379   -1.323148
     41          6           0        2.500672   -2.404673   -0.807142
     42          1           0        2.224571   -2.549595   -1.858736
     43          1           0        1.962156   -3.152055   -0.212289
     44          8           0        2.721504   -0.100172   -2.538820
     45          6           0        4.010661   -2.584809   -0.649501
     46          7           0        4.480607   -3.824598   -0.952057
     47          1           0        5.477049   -3.985450   -0.903419
     48          1           0        3.889880   -4.558813   -1.312451
     49          8           0        4.732914   -1.671704   -0.269050
     50          7           0        3.034379    1.230801   -0.707444
     51          1           0        2.695533    1.333675    0.241813
     52          6           0        3.130472    2.456000   -1.476591
     53          1           0        3.664087    2.233057   -2.404658
     54          6           0        3.936745    3.506893   -0.740735
     55          6           0        1.706800    2.981568   -1.830740
     56          1           0        1.242443    2.153437   -2.374692
     57          1           0        1.144788    3.118888   -0.901515
     58          8           0        4.401540    4.507939   -1.269375
     59          6           0        1.645857    4.255466   -2.692343
     60          1           0        2.544269    4.333793   -3.316180
     61          1           0        0.798397    4.186797   -3.384768
     62          6           0        1.470165    5.530961   -1.853119
     63          1           0        0.505228    5.528552   -1.343519
     64          1           0        2.225291    5.615077   -1.069664
     65          7           0        1.538591    6.753588   -2.675381
     66          1           0        0.676489    7.070918   -3.099150
     67          7           0        3.862649    6.792780   -2.842738
     68          1           0        4.700092    7.340121   -2.982941
     69          1           0        3.983891    5.891055   -2.370555
     70          7           0        2.593249    8.462443   -3.827602
     71          1           0        3.411078    8.857272   -4.267550
     72          1           0        1.748854    9.014784   -3.848722
     73          6           0        2.667637    7.324412   -3.106949
     74          8           0        4.052285    3.282032    0.571164
     75          1           0        4.576314    4.010076    0.958137
 ---------------------------------------------------------------------

 SCF Done:  E(RB3LYP) =  -1917.48165041     A.U. after    1 cycles

 Alpha  occ. eigenvalues --  -19.31766 -19.26444 -19.20876 -19.20568 -19.19729
 Alpha  occ. eigenvalues --  -19.18539 -19.18211 -14.52292 -14.52077 -14.51075
 Alpha  occ. eigenvalues --  -14.44451 -14.44128 -14.43838 -14.42872 -14.42545
 Alpha  occ. eigenvalues --  -14.37901 -10.48375 -10.44416 -10.37949 -10.37704
 Alpha  occ. eigenvalues --  -10.36695 -10.36123 -10.35291 -10.34516 -10.33897
 Alpha  occ. eigenvalues --  -10.31603 -10.31580 -10.30153 -10.29849 -10.29046
 Alpha  occ. eigenvalues --  -10.27595 -10.27508 -10.27448 -10.27338 -10.26277
 Alpha  occ. eigenvalues --  -10.26251 -10.26178 -10.26163 -10.26108  -1.22978
 Alpha  occ. eigenvalues --   -1.16736  -1.13646  -1.12868  -1.11981  -1.11463
 Alpha  occ. eigenvalues --   -1.10279  -1.10015  -1.06016  -1.04678  -1.01487
 Alpha  occ. eigenvalues --   -1.01170  -0.99818  -0.99123  -0.97290  -0.95614
 Alpha  occ. eigenvalues --   -0.92995  -0.91027  -0.87744  -0.86262  -0.85081
 Alpha  occ. eigenvalues --   -0.83682  -0.81647  -0.81376  -0.80828  -0.78283
 Alpha  occ. eigenvalues --   -0.76005  -0.74449  -0.74274  -0.73745  -0.71685
 Alpha  occ. eigenvalues --   -0.70851  -0.69960  -0.68604  -0.67849  -0.66838
 Alpha  occ. eigenvalues --   -0.66234  -0.65832  -0.65467  -0.65426  -0.64984
 Alpha  occ. eigenvalues --   -0.64875  -0.63335  -0.62139  -0.60955  -0.60684
 Alpha  occ. eigenvalues --   -0.59848  -0.59724  -0.58754  -0.58630  -0.58499
 Alpha  occ. eigenvalues --   -0.57958  -0.57907  -0.56744  -0.56179  -0.55973
 Alpha  occ. eigenvalues --   -0.54808  -0.54425  -0.53830  -0.53293  -0.52785
 Alpha  occ. eigenvalues --   -0.52464  -0.52373  -0.52036  -0.51589  -0.51168
 Alpha  occ. eigenvalues --   -0.50894  -0.50214  -0.49823  -0.49263  -0.49125
 Alpha  occ. eigenvalues --   -0.48932  -0.48427  -0.47888  -0.47716  -0.46997
 Alpha  occ. eigenvalues --   -0.46655  -0.46486  -0.46332  -0.45830  -0.45507
 Alpha  occ. eigenvalues --   -0.45139  -0.44617  -0.43913  -0.43549  -0.43365
 Alpha  occ. eigenvalues --   -0.43193  -0.42842  -0.42694  -0.41793  -0.41337
 Alpha  occ. eigenvalues --   -0.40944  -0.40652  -0.39856  -0.36274  -0.36084
 Alpha  occ. eigenvalues --   -0.35001  -0.34453  -0.34021  -0.33536  -0.33165
 Alpha  occ. eigenvalues --   -0.32734  -0.32417  -0.32242  -0.31644  -0.31366
 Alpha  occ. eigenvalues --   -0.30632
 Alpha virt. eigenvalues --   -0.12126  -0.11551  -0.08561  -0.08535  -0.07570
 Alpha virt. eigenvalues --   -0.07272  -0.07009  -0.05635  -0.04558  -0.04365
 Alpha virt. eigenvalues --   -0.03846  -0.03836  -0.03580  -0.01460  -0.00659

 Mulliken charges:
               1
     1  N   -0.695464
     2  H    0.308569
     3  H    0.317788
     4  C   -0.088382
     5  H    0.154462
     6  C    0.567001
     7  C   -0.333893
     8  H    0.201886
     9  H    0.154856
    10  O   -0.517673
    11  C    0.596326
    12  N   -0.708084
    13  H    0.355157
    14  H    0.351034
    15  O   -0.561965
    16  N   -0.604673
    17  H    0.360985
    18  C   -0.081655
    19  H    0.212156
    20  C    0.617918
    21  C   -0.350879
    22  H    0.182929
    23  H    0.146946
    24  O   -0.560438
    25  C    0.105442
    26  C   -0.217322
    27  H    0.165718
    28  C   -0.175267
    29  H    0.153156
    30  C   -0.132916
    31  H    0.147027
    32  C   -0.128017
    33  H    0.151564
    34  C   -0.129836
    35  H    0.147517
    36  N   -0.619349
    37  H    0.369705
    38  C   -0.034896
    39  H    0.185287
    40  C    0.648951
    41  C   -0.418103
    42  H    0.196973
    43  H    0.182087
    44  O   -0.540952
    45  C    0.631041
    46  N   -0.756202
    47  H    0.354048
    48  H    0.344808
    49  O   -0.508080
    50  N   -0.580852
    51  H    0.361055
    52  C   -0.063997
    53  H    0.215260
    54  C    0.627420
    55  C   -0.332973
    56  H    0.186132
    57  H    0.205969
    58  O   -0.518128
    59  C   -0.278598
    60  H    0.155690
    61  H    0.158139
    62  C   -0.198722
    63  H    0.230958
    64  H    0.182900
    65  N   -0.594629
    66  H    0.361638
    67  N   -0.794756
    68  H    0.371552
    69  H    0.452703
    70  N   -0.770791
    71  H    0.381339
    72  H    0.380979
    73  C    0.823029
    74  O   -0.538660
    75  H    0.430051
 Sum of Mulliken charges =   1.00000

 Dipole moment (field-independent basis, Debye):
    X=             10.2546    Y=             22.2871    Z=            -10.8685  Tot=             26.8328
 Quadrupole moment (field-independent basis, Debye-Ang):
   XX=           -188.9772   YY=             16.3443   ZZ=           -175.8566
   XY=             64.4791   XZ=            -21.7963   YZ=            -73.5200

 Normal termination of Gaussian 16 at Tue May 31 12:09:40 2022.
