 Gaussian 16, Revision C.01,
 Gaussian 16:  ES64L-G16RevC.01  3-Jul-2019

 ----------------------------------------------------------------------
 # B3LYP/6-31G* empiricaldispersion=gd3 guess=read geom=check nosymm in
 tegral(ultrafinegrid)
 ----------------------------------------------------------------------

 ------------------------------------------------------
 Candidate Structure: Conf:879 Charge calc in gas phase
 ------------------------------------------------------
 Structure from the checkpoint file:  "conf-879.chk"
 Charge =  1 Multiplicity = 1

                          Input orientation:
 ---------------------------------------------------------------------
 Center     Atomic      Atomic             Coordinates (Angstroms)
 Number     Number       Type             X           Y           Z
 ---------------------------------------------------------------------
      1          7           0       -3.937125   -1.769027    1.870311
      2          1           0       -4.213799   -2.039462    2.813414
      3          1           0       -4.744725   -1.320131    1.442454
      4          6           0       -2.806091   -0.823577    1.935894
      5          1           0       -2.966763   -0.051638    2.703986
      6          6           0       -2.624428   -0.116662    0.574599
      7          6           0       -1.491238   -1.551969    2.296749
      8          1           0       -0.684121   -0.820078    2.384000
      9          1           0       -1.610124   -2.026764    3.279304
     10          8           0       -2.047978   -0.658948   -0.374923
     11          6           0       -1.029592   -2.618806    1.308204
     12          7           0       -1.939677   -3.534009    0.950875
     13          1           0       -1.686808   -4.223448    0.254755
     14          1           0       -2.924094   -3.301893    1.105486
     15          8           0        0.160525   -2.671627    0.920647
     16          7           0       -3.116984    1.136869    0.519625
     17          1           0       -3.617359    1.503530    1.319472
     18          6           0       -3.031674    1.985507   -0.676525
     19          1           0       -3.321229    1.373576   -1.538024
     20          6           0       -1.556820    2.433674   -0.769923
     21          6           0       -3.963876    3.203793   -0.544820
     22          1           0       -3.529017    3.878499    0.199864
     23          1           0       -3.942162    3.733465   -1.504396
     24          8           0       -1.105914    3.275496   -0.005497
     25          6           0       -5.371095    2.805133   -0.165322
     26          6           0       -5.816294    2.948028    1.155850
     27          1           0       -5.178845    3.444755    1.886828
     28          6           0       -6.225200    2.209882   -1.102985
     29          1           0       -5.893120    2.095612   -2.132667
     30          6           0       -7.084677    2.499564    1.536221
     31          1           0       -7.420043    2.630161    2.561566
     32          6           0       -7.492274    1.765750   -0.729107
     33          1           0       -8.146149    1.313047   -1.469165
     34          6           0       -7.924081    1.905219    0.593488
     35          1           0       -8.914031    1.563694    0.882203
     36          7           0       -0.802457    1.755932   -1.682833
     37          1           0       -1.219390    0.920348   -2.079406
     38          6           0        0.634918    1.653746   -1.475761
     39          1           0        1.065862    2.653388   -1.394831
     40          6           0        1.248083    0.853532   -2.615859
     41          6           0        0.885467    0.862190   -0.147904
     42          1           0        0.219760   -0.004477   -0.146101
     43          1           0        0.569904    1.523188    0.667356
     44          8           0        0.592773   -0.050798   -3.157839
     45          6           0        2.322283    0.439279    0.114659
     46          7           0        2.455806   -0.809360    0.644188
     47          1           0        3.373215   -1.069341    0.983891
     48          1           0        1.654555   -1.360382    0.947992
     49          8           0        3.284428    1.157910   -0.149322
     50          7           0        2.556054    1.080496   -2.875947
     51          1           0        3.014085    1.742869   -2.256550
     52          6           0        3.395707   -0.067346   -3.239345
     53          1           0        3.112666   -0.884647   -2.572206
     54          6           0        4.869867    0.157753   -2.958446
     55          6           0        3.205738   -0.529182   -4.704356
     56          1           0        2.144660   -0.417840   -4.934602
     57          1           0        3.735393    0.151890   -5.379378
     58          8           0        5.644393   -0.767098   -2.837951
     59          6           0        3.667809   -1.980165   -4.964919
     60          1           0        3.260117   -2.307984   -5.928350
     61          1           0        4.757606   -2.021219   -5.051615
     62          6           0        3.289778   -2.989196   -3.865246
     63          1           0        3.495438   -4.008715   -4.209818
     64          1           0        3.913545   -2.793407   -2.985978
     65          7           0        1.871792   -2.868239   -3.480330
     66          1           0        1.290282   -2.300894   -4.081920
     67          7           0        2.106831   -3.620302   -1.282319
     68          1           0        1.825626   -3.523229   -0.316287
     69          1           0        2.905312   -4.195741   -1.497358
     70          7           0        0.194588   -2.503243   -1.910004
     71          1           0       -0.023461   -2.539146   -0.908074
     72          1           0       -0.103380   -1.651922   -2.385198
     73          6           0        1.400304   -2.982725   -2.230329
     74          8           0        5.216883    1.453465   -2.919480
     75          1           0        6.172025    1.501692   -2.720181
 ---------------------------------------------------------------------

 SCF Done:  E(RB3LYP) =  -1917.51117617     A.U. after    1 cycles

 Alpha  occ. eigenvalues --  -19.29673 -19.24438 -19.23911 -19.23734 -19.23410
 Alpha  occ. eigenvalues --  -19.20856 -19.20706 -14.49445 -14.49444 -14.47797
 Alpha  occ. eigenvalues --  -14.46786 -14.46419 -14.46119 -14.45069 -14.45055
 Alpha  occ. eigenvalues --  -14.44620 -10.45111 -10.42156 -10.41500 -10.40408
 Alpha  occ. eigenvalues --  -10.40234 -10.38541 -10.37857 -10.35363 -10.34353
 Alpha  occ. eigenvalues --  -10.34160 -10.33866 -10.33595 -10.31469 -10.29662
 Alpha  occ. eigenvalues --  -10.29420 -10.29242 -10.28240 -10.28073 -10.27168
 Alpha  occ. eigenvalues --  -10.27039 -10.26971 -10.26916 -10.26752  -1.20557
 Alpha  occ. eigenvalues --   -1.15608  -1.15393  -1.14958  -1.13907  -1.12825
 Alpha  occ. eigenvalues --   -1.12427  -1.11554  -1.03999  -1.03897  -1.03516
 Alpha  occ. eigenvalues --   -1.02595  -1.02080  -1.01405  -1.00691  -0.99429
 Alpha  occ. eigenvalues --   -0.93766  -0.91149  -0.89195  -0.88005  -0.87287
 Alpha  occ. eigenvalues --   -0.85180  -0.82717  -0.82403  -0.80016  -0.78207
 Alpha  occ. eigenvalues --   -0.77832  -0.76258  -0.73856  -0.73061  -0.71136
 Alpha  occ. eigenvalues --   -0.70853  -0.69905  -0.69409  -0.68775  -0.68553
 Alpha  occ. eigenvalues --   -0.67850  -0.66538  -0.66459  -0.66071  -0.65487
 Alpha  occ. eigenvalues --   -0.64838  -0.63977  -0.62811  -0.62619  -0.62152
 Alpha  occ. eigenvalues --   -0.61458  -0.59869  -0.59610  -0.59552  -0.59049
 Alpha  occ. eigenvalues --   -0.58529  -0.58472  -0.58299  -0.57502  -0.57361
 Alpha  occ. eigenvalues --   -0.56907  -0.56413  -0.55326  -0.54887  -0.54334
 Alpha  occ. eigenvalues --   -0.53963  -0.53582  -0.53413  -0.53091  -0.52720
 Alpha  occ. eigenvalues --   -0.52148  -0.51594  -0.51166  -0.50828  -0.50504
 Alpha  occ. eigenvalues --   -0.50440  -0.49999  -0.49862  -0.49495  -0.49324
 Alpha  occ. eigenvalues --   -0.49085  -0.48508  -0.48347  -0.47617  -0.47310
 Alpha  occ. eigenvalues --   -0.46319  -0.45858  -0.45452  -0.45193  -0.44861
 Alpha  occ. eigenvalues --   -0.44773  -0.43550  -0.41953  -0.41923  -0.41550
 Alpha  occ. eigenvalues --   -0.40507  -0.39345  -0.38969  -0.38785  -0.38295
 Alpha  occ. eigenvalues --   -0.37943  -0.37608  -0.37206  -0.36990  -0.36588
 Alpha  occ. eigenvalues --   -0.35700  -0.35356  -0.34115  -0.33684  -0.33107
 Alpha  occ. eigenvalues --   -0.32420
 Alpha virt. eigenvalues --   -0.11060  -0.11017  -0.09772  -0.09131  -0.08786
 Alpha virt. eigenvalues --   -0.08565  -0.08335  -0.07668  -0.06559  -0.04433
 Alpha virt. eigenvalues --   -0.03846  -0.01701  -0.01603  -0.00882  -0.00056

 Mulliken charges:
               1
     1  N   -0.743968
     2  H    0.334567
     3  H    0.338711
     4  C   -0.082745
     5  H    0.157396
     6  C    0.639273
     7  C   -0.370656
     8  H    0.185182
     9  H    0.193951
    10  O   -0.554164
    11  C    0.636359
    12  N   -0.712778
    13  H    0.345936
    14  H    0.398051
    15  O   -0.599032
    16  N   -0.593504
    17  H    0.351594
    18  C   -0.043019
    19  H    0.171170
    20  C    0.627673
    21  C   -0.407100
    22  H    0.194455
    23  H    0.182188
    24  O   -0.513944
    25  C    0.169910
    26  C   -0.221063
    27  H    0.138646
    28  C   -0.179310
    29  H    0.134864
    30  C   -0.130702
    31  H    0.147486
    32  C   -0.128997
    33  H    0.149259
    34  C   -0.132458
    35  H    0.149688
    36  N   -0.592131
    37  H    0.353135
    38  C   -0.044706
    39  H    0.207813
    40  C    0.614504
    41  C   -0.417840
    42  H    0.175714
    43  H    0.219356
    44  O   -0.582592
    45  C    0.593879
    46  N   -0.795026
    47  H    0.345058
    48  H    0.385960
    49  O   -0.529139
    50  N   -0.589234
    51  H    0.386484
    52  C   -0.034138
    53  H    0.174864
    54  C    0.598335
    55  C   -0.302849
    56  H    0.185776
    57  H    0.181963
    58  O   -0.462712
    59  C   -0.304835
    60  H    0.170885
    61  H    0.195516
    62  C   -0.178736
    63  H    0.185782
    64  H    0.189584
    65  N   -0.580329
    66  H    0.370990
    67  N   -0.770426
    68  H    0.394735
    69  H    0.375473
    70  N   -0.804542
    71  H    0.416344
    72  H    0.397555
    73  C    0.758357
    74  O   -0.555882
    75  H    0.434138
 Sum of Mulliken charges =   1.00000

 Dipole moment (field-independent basis, Debye):
    X=             -3.0599    Y=             -8.6198    Z=             -3.1307  Tot=              9.6678
 Quadrupole moment (field-independent basis, Debye-Ang):
   XX=           -141.9308   YY=           -195.2813   ZZ=           -175.5848
   XY=            -12.5353   XZ=            -39.5601   YZ=              6.1981

 Normal termination of Gaussian 16 at Tue May 31 12:09:41 2022.
