 Gaussian 16, Revision C.01,
 Gaussian 16:  ES64L-G16RevC.01  3-Jul-2019

 ----------------------------------------------------------------------
 # B3LYP/6-31G* empiricaldispersion=gd3 guess=read geom=check nosymm in
 tegral(ultrafinegrid)
 ----------------------------------------------------------------------

 ------------------------------------------------------
 Candidate Structure: Conf:102 Charge calc in gas phase
 ------------------------------------------------------
 Structure from the checkpoint file:  "conf-102.chk"
 Charge =  1 Multiplicity = 1

                          Input orientation:
 ---------------------------------------------------------------------
 Center     Atomic      Atomic             Coordinates (Angstroms)
 Number     Number       Type             X           Y           Z
 ---------------------------------------------------------------------
      1          7           0       -3.857544    4.472687    1.983048
      2          1           0       -4.739319    4.128258    1.596354
      3          1           0       -4.085802    5.171257    2.696296
      4          6           0       -3.219150    3.343224    2.697400
      5          1           0       -2.264648    3.711043    3.093760
      6          6           0       -3.002942    2.250434    1.644379
      7          6           0       -4.053653    2.792097    3.864820
      8          1           0       -5.015087    2.435102    3.474246
      9          1           0       -3.552975    1.918041    4.301517
     10          8           0       -3.963970    1.703866    1.111557
     11          6           0       -4.288515    3.852080    4.944663
     12          7           0       -4.764792    3.385441    6.123801
     13          1           0       -4.978676    4.051211    6.854540
     14          1           0       -4.967189    2.409993    6.286136
     15          8           0       -4.060799    5.045680    4.750925
     16          7           0       -1.711223    2.003570    1.309658
     17          1           0       -0.958922    2.439201    1.824521
     18          6           0       -1.313879    1.070022    0.268454
     19          1           0       -1.718706    0.078091    0.499537
     20          6           0        0.218092    1.041667    0.258730
     21          6           0       -1.839104    1.480015   -1.144728
     22          1           0       -2.900853    1.708767   -1.027603
     23          1           0       -1.325036    2.395399   -1.459304
     24          8           0        0.877029    2.049162    0.585251
     25          6           0       -1.639504    0.366916   -2.146528
     26          6           0       -0.537520    0.352760   -3.009443
     27          1           0        0.161941    1.184040   -3.004120
     28          6           0       -2.514690   -0.730041   -2.148954
     29          1           0       -3.375278   -0.727662   -1.483065
     30          6           0       -0.302554   -0.734051   -3.853099
     31          1           0        0.576651   -0.734848   -4.488675
     32          6           0       -2.288930   -1.814385   -2.997666
     33          1           0       -2.977291   -2.654724   -2.994415
     34          6           0       -1.180079   -1.819566   -3.849205
     35          1           0       -1.001368   -2.667196   -4.504388
     36          7           0        0.779772   -0.106629   -0.148328
     37          1           0        0.172840   -0.822124   -0.532025
     38          6           0        2.225203   -0.291214   -0.327563
     39          1           0        2.723797    0.162103    0.533816
     40          6           0        2.676945    0.397421   -1.637869
     41          6           0        2.559934   -1.782835   -0.380186
     42          1           0        2.109185   -2.223579   -1.275027
     43          1           0        2.164056   -2.274135    0.512271
     44          8           0        2.647635   -0.184557   -2.719043
     45          6           0        4.085871   -1.948334   -0.352457
     46          7           0        4.661797   -2.211421   -1.559695
     47          1           0        5.672494   -2.176533   -1.595526
     48          1           0        4.158229   -1.990278   -2.409325
     49          8           0        4.705262   -1.829436    0.693712
     50          7           0        3.066809    1.685819   -1.487542
     51          1           0        3.001211    2.099032   -0.565575
     52          6           0        3.460950    2.525941   -2.604518
     53          1           0        3.089963    2.023730   -3.507034
     54          6           0        4.984142    2.617390   -2.770786
     55          6           0        2.849653    3.928869   -2.482083
     56          1           0        3.260549    4.411903   -1.583822
     57          1           0        3.192051    4.528734   -3.329909
     58          8           0        5.551446    3.584663   -3.223505
     59          6           0        1.320422    3.891679   -2.398335
     60          1           0        0.893886    3.526365   -3.341625
     61          1           0        1.018101    3.182848   -1.621231
     62          6           0        0.739613    5.268116   -2.063013
     63          1           0        1.241308    5.693549   -1.188414
     64          1           0        0.882924    5.969806   -2.890403
     65          7           0       -0.700375    5.235394   -1.763684
     66          1           0       -1.346835    5.322685   -2.536545
     67          7           0       -0.432903    4.781042    0.498866
     68          1           0       -0.832122    4.880083    1.422521
     69          1           0        0.203768    3.988769    0.391380
     70          7           0       -2.497349    5.468553   -0.297994
     71          1           0       -2.995023    5.135298    0.574322
     72          1           0       -3.027500    5.977572   -0.992714
     73          6           0       -1.227040    5.151637   -0.531030
     74          8           0        5.606170    1.484852   -2.390339
     75          1           0        6.559103    1.617333   -2.558317
 ---------------------------------------------------------------------

 SCF Done:  E(RB3LYP) =  -1917.50040453     A.U. after    1 cycles

 Alpha  occ. eigenvalues --  -19.28524 -19.25341 -19.22878 -19.22728 -19.21902
 Alpha  occ. eigenvalues --  -19.21517 -19.18175 -14.51647 -14.49961 -14.49316
 Alpha  occ. eigenvalues --  -14.48837 -14.47934 -14.46641 -14.45498 -14.44712
 Alpha  occ. eigenvalues --  -14.42256 -10.46861 -10.41806 -10.41043 -10.39963
 Alpha  occ. eigenvalues --  -10.39346 -10.39022 -10.36141 -10.35512 -10.35426
 Alpha  occ. eigenvalues --  -10.34588 -10.34330 -10.34063 -10.30454 -10.30439
 Alpha  occ. eigenvalues --  -10.29945 -10.29914 -10.28819 -10.28388 -10.27685
 Alpha  occ. eigenvalues --  -10.27615 -10.27446 -10.27273 -10.27211  -1.19483
 Alpha  occ. eigenvalues --   -1.16677  -1.15373  -1.14771  -1.13834  -1.13251
 Alpha  occ. eigenvalues --   -1.10556  -1.10078  -1.05176  -1.05025  -1.04273
 Alpha  occ. eigenvalues --   -1.03339  -1.02897  -1.01155  -1.00265  -0.97218
 Alpha  occ. eigenvalues --   -0.94616  -0.91813  -0.90367  -0.88170  -0.86926
 Alpha  occ. eigenvalues --   -0.86109  -0.83407  -0.82933  -0.80658  -0.78149
 Alpha  occ. eigenvalues --   -0.77699  -0.77033  -0.75009  -0.72804  -0.72600
 Alpha  occ. eigenvalues --   -0.72035  -0.70120  -0.69420  -0.69221  -0.69002
 Alpha  occ. eigenvalues --   -0.68590  -0.68208  -0.67013  -0.65774  -0.65247
 Alpha  occ. eigenvalues --   -0.64540  -0.64337  -0.63269  -0.63073  -0.61659
 Alpha  occ. eigenvalues --   -0.61330  -0.60378  -0.60327  -0.59836  -0.59216
 Alpha  occ. eigenvalues --   -0.59066  -0.58802  -0.57682  -0.57584  -0.56702
 Alpha  occ. eigenvalues --   -0.56644  -0.56134  -0.55808  -0.55666  -0.54541
 Alpha  occ. eigenvalues --   -0.54204  -0.54013  -0.53620  -0.52927  -0.52308
 Alpha  occ. eigenvalues --   -0.51907  -0.51493  -0.51267  -0.50629  -0.50577
 Alpha  occ. eigenvalues --   -0.50377  -0.50008  -0.49504  -0.49297  -0.49082
 Alpha  occ. eigenvalues --   -0.48909  -0.48588  -0.48190  -0.47123  -0.46903
 Alpha  occ. eigenvalues --   -0.46706  -0.46237  -0.46163  -0.45615  -0.45401
 Alpha  occ. eigenvalues --   -0.44464  -0.44183  -0.42859  -0.42493  -0.42119
 Alpha  occ. eigenvalues --   -0.40645  -0.40085  -0.39960  -0.39170  -0.38869
 Alpha  occ. eigenvalues --   -0.38297  -0.37158  -0.36738  -0.36163  -0.35193
 Alpha  occ. eigenvalues --   -0.35184  -0.34731  -0.33732  -0.33312  -0.33103
 Alpha  occ. eigenvalues --   -0.31858
 Alpha virt. eigenvalues --   -0.12037  -0.11392  -0.09553  -0.09113  -0.08960
 Alpha virt. eigenvalues --   -0.08497  -0.07850  -0.07781  -0.07011  -0.05207
 Alpha virt. eigenvalues --   -0.04752  -0.02381  -0.02286  -0.01519  -0.01115

 Mulliken charges:
               1
     1  N   -0.785649
     2  H    0.337011
     3  H    0.369933
     4  C   -0.069526
     5  H    0.142706
     6  C    0.645759
     7  C   -0.388816
     8  H    0.206524
     9  H    0.175551
    10  O   -0.526715
    11  C    0.619541
    12  N   -0.741841
    13  H    0.363453
    14  H    0.354171
    15  O   -0.519042
    16  N   -0.645826
    17  H    0.338434
    18  C   -0.005659
    19  H    0.188667
    20  C    0.619217
    21  C   -0.382986
    22  H    0.204957
    23  H    0.137801
    24  O   -0.584931
    25  C    0.130540
    26  C   -0.196832
    27  H    0.126882
    28  C   -0.196200
    29  H    0.152211
    30  C   -0.120193
    31  H    0.160270
    32  C   -0.129036
    33  H    0.153565
    34  C   -0.135769
    35  H    0.153447
    36  N   -0.586027
    37  H    0.366747
    38  C   -0.061326
    39  H    0.200477
    40  C    0.644696
    41  C   -0.378689
    42  H    0.178062
    43  H    0.188588
    44  O   -0.536256
    45  C    0.565759
    46  N   -0.726514
    47  H    0.345421
    48  H    0.360685
    49  O   -0.494141
    50  N   -0.593664
    51  H    0.354163
    52  C   -0.063129
    53  H    0.213698
    54  C    0.603567
    55  C   -0.292463
    56  H    0.153428
    57  H    0.194704
    58  O   -0.446987
    59  C   -0.293282
    60  H    0.162535
    61  H    0.164467
    62  C   -0.163678
    63  H    0.193964
    64  H    0.191180
    65  N   -0.592522
    66  H    0.358554
    67  N   -0.776547
    68  H    0.367501
    69  H    0.404959
    70  N   -0.788374
    71  H    0.437011
    72  H    0.357760
    73  C    0.764025
    74  O   -0.556549
    75  H    0.426583
 Sum of Mulliken charges =   1.00000

 Dipole moment (field-independent basis, Debye):
    X=             -7.1136    Y=             15.0631    Z=             -0.1300  Tot=             16.6588
 Quadrupole moment (field-independent basis, Debye-Ang):
   XX=           -179.9627   YY=           -148.7914   ZZ=           -168.8297
   XY=            -27.7506   XZ=            -42.7572   YZ=              0.4937

 Normal termination of Gaussian 16 at Tue May 31 12:09:41 2022.
