 Gaussian 16, Revision C.01,
 Gaussian 16:  ES64L-G16RevC.01  3-Jul-2019

 ----------------------------------------------------------------------
 # B3LYP/6-31G* empiricaldispersion=gd3bj guess=read geom=check nosymm
 integral(ultrafinegrid)
 ----------------------------------------------------------------------

 ------------------------------------------------------
 Candidate Structure: Conf:448 Charge calc in gas phase
 ------------------------------------------------------
 Structure from the checkpoint file:  "conf-448.chk"
 Charge =  1 Multiplicity = 1

                          Input orientation:
 ---------------------------------------------------------------------
 Center     Atomic      Atomic             Coordinates (Angstroms)
 Number     Number       Type             X           Y           Z
 ---------------------------------------------------------------------
      1          7           0       -9.478433    5.173372    6.304224
      2          1           0      -10.131135    5.944740    6.454269
      3          1           0       -9.029098    4.914987    7.199376
      4          1           0       -9.956543    4.310253    5.915498
      5          6           0       -8.416502    5.448827    5.267722
      6          1           0       -8.800366    6.234344    4.610422
      7          6           0       -8.379072    4.112291    4.475508
      8          6           0       -7.095124    5.889846    5.932494
      9          1           0       -7.246508    6.883683    6.369296
     10          1           0       -6.344335    6.016053    5.146413
     11          8           0       -9.298210    3.303577    4.672552
     12          6           0       -6.630003    4.908639    6.984264
     13          6           0       -7.054599    5.058881    8.315067
     14          1           0       -7.602684    5.953230    8.611728
     15          6           0       -5.833588    3.806830    6.642902
     16          1           0       -5.461607    3.697390    5.628228
     17          6           0       -6.713466    4.110221    9.283110
     18          1           0       -7.038328    4.244618   10.310194
     19          6           0       -5.488639    2.867295    7.613386
     20          1           0       -4.861289    2.024026    7.341010
     21          6           0       -5.935875    3.008600    8.929336
     22          1           0       -5.663460    2.272451    9.678990
     23          7           0       -7.379612    3.953031    3.620370
     24          1           0       -6.552787    4.553543    3.639872
     25          6           0       -7.087561    2.687677    2.950788
     26          1           0       -7.446741    1.874365    3.590070
     27          6           0       -5.543389    2.646395    2.882199
     28          6           0       -7.755247    2.596554    1.574492
     29          1           0       -7.528763    1.639396    1.095722
     30          1           0       -7.403564    3.400525    0.920836
     31          1           0       -8.840352    2.675203    1.683654
     32          8           0       -4.886485    3.624729    3.275535
     33          7           0       -5.019443    1.525066    2.396171
     34          1           0       -5.589684    0.763801    2.025063
     35          6           0       -3.594276    1.295366    2.193872
     36          1           0       -3.156478    2.151831    1.671432
     37          6           0       -3.528647    0.051209    1.286162
     38          6           0       -2.845532    1.086995    3.516988
     39          1           0       -1.777192    0.957718    3.329046
     40          1           0       -3.224325    0.201956    4.038431
     41          1           0       -2.980102    1.966304    4.152265
     42          8           0       -4.559309   -0.579476    1.011153
     43          7           0       -2.305267   -0.281362    0.862928
     44          1           0       -1.502934    0.312301    1.074236
     45          6           0       -2.075908   -1.406346   -0.023002
     46          1           0       -2.699493   -2.243413    0.306253
     47          6           0       -0.588559   -1.758244    0.098219
     48          6           0       -2.464481   -1.038158   -1.487873
     49          1           0       -3.403600   -0.480653   -1.416666
     50          1           0       -1.703092   -0.365387   -1.894400
     51          8           0        0.161112   -1.089510    0.810330
     52          6           0       -2.654720   -2.228192   -2.397230
     53          6           0       -1.766773   -2.495427   -3.450989
     54          1           0       -0.914524   -1.838975   -3.602072
     55          6           0       -3.728040   -3.105146   -2.193929
     56          1           0       -4.433181   -2.907239   -1.389597
     57          6           0       -1.940416   -3.606232   -4.272822
     58          1           0       -1.255645   -3.814840   -5.088411
     59          6           0       -3.911963   -4.219104   -3.009452
     60          1           0       -4.752112   -4.889352   -2.838573
     61          8           0       -3.136700   -5.547867   -4.886434
     62          1           0       -3.921390   -6.059089   -4.634581
     63          6           0       -3.015554   -4.473297   -4.053980
     64          7           0       -0.131110   -2.777339   -0.673134
     65          1           0       -0.761868   -3.140834   -1.379036
     66          6           0        1.292880   -2.795141   -1.015861
     67          1           0        1.861462   -2.990179   -0.102842
     68          6           0        1.664966   -1.404758   -1.572573
     69          6           0        1.550513   -3.890186   -2.056383
     70          1           0        1.273741   -4.856098   -1.612963
     71          1           0        0.873761   -3.718335   -2.902083
     72          8           0        1.006436   -0.880259   -2.474606
     73          6           0        2.993704   -3.960024   -2.583359
     74          1           0        3.226608   -2.995039   -3.055243
     75          6           0        4.021712   -4.208136   -1.471406
     76          1           0        3.766751   -5.107053   -0.895679
     77          1           0        5.019658   -4.358435   -1.897461
     78          1           0        4.097132   -3.366547   -0.775776
     79          6           0        3.088546   -5.045366   -3.663006
     80          1           0        2.877110   -6.035886   -3.240669
     81          1           0        2.371801   -4.866955   -4.472795
     82          1           0        4.092341   -5.077477   -4.100561
     83          7           0        2.728793   -0.820760   -0.991471
     84          1           0        3.230421   -1.275434   -0.237362
     85          6           0        3.205467    0.512375   -1.296950
     86          1           0        2.966421    0.730798   -2.342074
     87          6           0        4.723798    0.489385   -1.055540
     88          6           0        2.569514    1.573306   -0.367983
     89          1           0        2.799246    1.283762    0.663980
     90          1           0        3.048791    2.541690   -0.544391
     91          8           0        5.205916   -0.292467   -0.232030
     92          6           0        1.047411    1.688959   -0.550770
     93          1           0        0.583832    0.707782   -0.532563
     94          1           0        0.821669    2.151374   -1.520282
     95          6           0        0.375254    2.503382    0.522895
     96          8           0       -0.623189    2.177170    1.145013
     97          8           0        0.983165    3.686208    0.745389
     98          7           0        5.433551    1.397758   -1.745091
     99          1           0        5.017507    1.978473   -2.466545
    100          6           0        6.868692    1.592868   -1.594718
    101          1           0        7.124013    1.589957   -0.533008
    102          6           0        7.239736    2.956061   -2.204657
    103          6           0        7.638894    0.451011   -2.311497
    104          1           0        7.155186    0.293156   -3.285330
    105          1           0        7.465216   -0.461421   -1.734563
    106          8           0        8.220544    3.554614   -1.732744
    107          6           0        9.153985    0.690601   -2.504922
    108          1           0        9.711966   -0.215894   -2.242339
    109          1           0        9.493989    1.491289   -1.840445
    110          6           0        9.533867    1.033407   -3.955345
    111          1           0        9.196493    0.238177   -4.627963
    112          1           0       10.620739    1.080840   -4.077178
    113          7           0        8.938849    2.276413   -4.459890
    114          1           0        7.917306    2.285405   -4.481087
    115          7           0       10.753888    3.704828   -4.056785
    116          1           0       11.027123    4.572255   -3.617840
    117          1           0       11.332676    2.913252   -3.821406
    118          7           0        8.607134    4.548765   -4.441173
    119          1           0        8.968195    5.451924   -4.162605
    120          1           0        7.645847    4.334897   -4.072019
    121          6           0        9.434352    3.507360   -4.273238
    122          8           0        6.557678    3.279061   -3.247211
    123          1           0        0.479636    4.131412    1.452980
 ---------------------------------------------------------------------

 SCF Done:  E(RB3LYP) =  -2974.32099264     A.U. after    1 cycles

 Alpha  occ. eigenvalues --  -19.25877 -19.25591 -19.22227 -19.21174 -19.20324
 Alpha  occ. eigenvalues --  -19.18098 -19.17164 -19.15737 -19.15367 -19.13314
 Alpha  occ. eigenvalues --  -19.12059 -14.58429 -14.48164 -14.44663 -14.44105
 Alpha  occ. eigenvalues --  -14.43259 -14.41077 -14.40982 -14.40517 -14.40176
 Alpha  occ. eigenvalues --  -14.39385 -10.42603 -10.40023 -10.39573 -10.38174
 Alpha  occ. eigenvalues --  -10.37985 -10.34824 -10.33931 -10.33698 -10.33506
 Alpha  occ. eigenvalues --  -10.32846 -10.32509 -10.31450 -10.30417 -10.30333
 Alpha  occ. eigenvalues --  -10.30082 -10.29699 -10.29452 -10.29395 -10.29307
 Alpha  occ. eigenvalues --  -10.29251 -10.29180 -10.28726 -10.27872 -10.27728
 Alpha  occ. eigenvalues --  -10.27484 -10.25287 -10.24342 -10.24341 -10.24317
 Alpha  occ. eigenvalues --  -10.23934 -10.23731 -10.23679 -10.23596 -10.23579
 Alpha  occ. eigenvalues --  -10.23131 -10.23074 -10.23025 -10.22887 -10.22854
 Alpha  occ. eigenvalues --  -10.21168 -10.21106  -1.18367  -1.16632  -1.13121
 Alpha  occ. eigenvalues --   -1.12521  -1.10327  -1.10049  -1.09259  -1.08621
 Alpha  occ. eigenvalues --   -1.07786  -1.07321  -1.06974  -1.05739  -1.05163
 Alpha  occ. eigenvalues --   -1.00892  -0.98297  -0.98260  -0.97420  -0.97354
 Alpha  occ. eigenvalues --   -0.96956  -0.96919  -0.96143  -0.95433  -0.92550
 Alpha  occ. eigenvalues --   -0.89961  -0.88117  -0.86070  -0.85631  -0.85103
 Alpha  occ. eigenvalues --   -0.84979  -0.84277  -0.84203  -0.82313  -0.80258
 Alpha  occ. eigenvalues --   -0.79278  -0.79238  -0.79080  -0.77565  -0.76627
 Alpha  occ. eigenvalues --   -0.75986  -0.73662  -0.73343  -0.72426  -0.72262
 Alpha  occ. eigenvalues --   -0.72150  -0.71261  -0.70517  -0.70361  -0.70127
 Alpha  occ. eigenvalues --   -0.69803  -0.68637  -0.67949  -0.66724  -0.66482
 Alpha  occ. eigenvalues --   -0.65649  -0.65483  -0.65277  -0.64971  -0.64108
 Alpha  occ. eigenvalues --   -0.63752  -0.62941  -0.62842  -0.62670  -0.61743
 Alpha  occ. eigenvalues --   -0.61190  -0.61158  -0.60417  -0.59815  -0.59258
 Alpha  occ. eigenvalues --   -0.58865  -0.58584  -0.57405  -0.56894  -0.56762
 Alpha  occ. eigenvalues --   -0.56496  -0.56238  -0.55801  -0.55342  -0.54904
 Alpha  occ. eigenvalues --   -0.54688  -0.54443  -0.54185  -0.54025  -0.53506
 Alpha  occ. eigenvalues --   -0.53007  -0.52632  -0.52517  -0.52414  -0.51981
 Alpha  occ. eigenvalues --   -0.51845  -0.51669  -0.51467  -0.51301  -0.50923
 Alpha  occ. eigenvalues --   -0.50795  -0.50706  -0.50524  -0.50347  -0.50010
 Alpha  occ. eigenvalues --   -0.49539  -0.49352  -0.49113  -0.48555  -0.48437
 Alpha  occ. eigenvalues --   -0.48377  -0.48008  -0.47843  -0.47031  -0.46847
 Alpha  occ. eigenvalues --   -0.46796  -0.46753  -0.46490  -0.46214  -0.46053
 Alpha  occ. eigenvalues --   -0.45943  -0.45616  -0.45440  -0.45091  -0.44950
 Alpha  occ. eigenvalues --   -0.44850  -0.44814  -0.44582  -0.44388  -0.43966
 Alpha  occ. eigenvalues --   -0.43878  -0.43620  -0.43480  -0.42895  -0.42461
 Alpha  occ. eigenvalues --   -0.42403  -0.42327  -0.41996  -0.41557  -0.41052
 Alpha  occ. eigenvalues --   -0.40729  -0.40679  -0.40465  -0.40313  -0.39855
 Alpha  occ. eigenvalues --   -0.39552  -0.39392  -0.39241  -0.39158  -0.38407
 Alpha  occ. eigenvalues --   -0.37875  -0.37823  -0.37749  -0.37258  -0.36904
 Alpha  occ. eigenvalues --   -0.36643  -0.36406  -0.35951  -0.35505  -0.35277
 Alpha  occ. eigenvalues --   -0.35245  -0.34154  -0.33966  -0.32475  -0.32457
 Alpha  occ. eigenvalues --   -0.32021  -0.31268  -0.30856  -0.30457  -0.29749
 Alpha  occ. eigenvalues --   -0.29674  -0.28938  -0.28707  -0.28611  -0.27818
 Alpha  occ. eigenvalues --   -0.26195  -0.25597
 Alpha virt. eigenvalues --   -0.12154  -0.11569  -0.11479  -0.07938  -0.06784
 Alpha virt. eigenvalues --   -0.05449  -0.05285  -0.05091  -0.04356  -0.03461
 Alpha virt. eigenvalues --   -0.03299  -0.02883  -0.02237  -0.01782  -0.01072

 Mulliken charges:
               1
     1  N   -0.756970
     2  H    0.407920
     3  H    0.402415
     4  H    0.432472
     5  C   -0.113402
     6  H    0.226564
     7  C    0.652808
     8  C   -0.395719
     9  H    0.187082
    10  H    0.210727
    11  O   -0.540897
    12  C    0.139646
    13  C   -0.244305
    14  H    0.141710
    15  C   -0.187775
    16  H    0.180613
    17  C   -0.118371
    18  H    0.163343
    19  C   -0.131476
    20  H    0.165643
    21  C   -0.121669
    22  H    0.166293
    23  N   -0.599663
    24  H    0.374383
    25  C   -0.069880
    26  H    0.200644
    27  C    0.637681
    28  C   -0.449816
    29  H    0.182062
    30  H    0.171366
    31  H    0.181191
    32  O   -0.561669
    33  N   -0.620102
    34  H    0.368353
    35  C   -0.042514
    36  H    0.201912
    37  C    0.613631
    38  C   -0.457329
    39  H    0.188387
    40  H    0.152902
    41  H    0.168026
    42  O   -0.566518
    43  N   -0.634013
    44  H    0.408394
    45  C   -0.066492
    46  H    0.187651
    47  C    0.621205
    48  C   -0.359275
    49  H    0.174193
    50  H    0.177325
    51  O   -0.540460
    52  C    0.104805
    53  C   -0.228184
    54  H    0.188345
    55  C   -0.187995
    56  H    0.148871
    57  C   -0.161719
    58  H    0.148611
    59  C   -0.193740
    60  H    0.125858
    61  O   -0.636302
    62  H    0.410748
    63  C    0.353380
    64  N   -0.613255
    65  H    0.357141
    66  C   -0.025557
    67  H    0.162971
    68  C    0.632336
    69  C   -0.297808
    70  H    0.147764
    71  H    0.157108
    72  O   -0.567877
    73  C   -0.084130
    74  H    0.141004
    75  C   -0.452145
    76  H    0.142406
    77  H    0.149396
    78  H    0.147801
    79  C   -0.443262
    80  H    0.143845
    81  H    0.145494
    82  H    0.145837
    83  N   -0.583066
    84  H    0.360039
    85  C   -0.072043
    86  H    0.171720
    87  C    0.629080
    88  C   -0.263231
    89  H    0.166095
    90  H    0.169622
    91  O   -0.553231
    92  C   -0.362268
    93  H    0.215376
    94  H    0.180896
    95  C    0.587068
    96  O   -0.494363
    97  O   -0.543981
    98  N   -0.619456
    99  H    0.347591
   100  C   -0.005334
   101  H    0.171992
   102  C    0.577033
   103  C   -0.295108
   104  H    0.131171
   105  H    0.181199
   106  O   -0.580168
   107  C   -0.274643
   108  H    0.148569
   109  H    0.185619
   110  C   -0.180374
   111  H    0.179257
   112  H    0.147275
   113  N   -0.570090
   114  H    0.371240
   115  N   -0.751225
   116  H    0.365455
   117  H    0.365160
   118  N   -0.733411
   119  H    0.336275
   120  H    0.400433
   121  C    0.760547
   122  O   -0.648137
   123  H    0.411441
 Sum of Mulliken charges =   1.00000

 Dipole moment (field-independent basis, Debye):
    X=            -20.9125    Y=             19.6581    Z=             17.0510  Tot=             33.3843
 Quadrupole moment (field-independent basis, Debye-Ang):
   XX=             73.2988   YY=           -214.8442   ZZ=           -185.3990
   XY=           -129.9229   XZ=           -257.6881   YZ=            115.6065

 Normal termination of Gaussian 16 at Sun Jul 24 01:56:06 2022.
