 Gaussian 16, Revision C.01,
 Gaussian 16:  ES64L-G16RevC.01  3-Jul-2019

 ----------------------------------------------------------------------
 # B3LYP/6-31G* empiricaldispersion=gd3bj guess=read geom=check nosymm
 integral(ultrafinegrid)
 ----------------------------------------------------------------------

 ------------------------------------------------------
 Candidate Structure: Conf:364 Charge calc in gas phase
 ------------------------------------------------------
 Structure from the checkpoint file:  "conf-364.chk"
 Charge =  1 Multiplicity = 1

                          Input orientation:
 ---------------------------------------------------------------------
 Center     Atomic      Atomic             Coordinates (Angstroms)
 Number     Number       Type             X           Y           Z
 ---------------------------------------------------------------------
      1          7           0       -8.328911    2.209137    6.716584
      2          1           0       -9.322293    2.449943    6.786784
      3          1           0       -8.018328    1.836450    7.618770
      4          1           0       -8.210923    1.492413    5.943942
      5          6           0       -7.468310    3.355164    6.221944
      6          1           0       -8.018803    4.286213    6.364698
      7          6           0       -7.284206    3.020211    4.721887
      8          6           0       -6.129604    3.388283    6.994423
      9          1           0       -5.661398    2.398870    6.930108
     10          1           0       -6.348957    3.592473    8.050414
     11          8           0       -7.540707    1.855748    4.366402
     12          6           0       -5.209385    4.436293    6.411054
     13          6           0       -4.100532    4.054491    5.649492
     14          1           0       -3.848639    3.002107    5.554601
     15          6           0       -5.534159    5.795971    6.519949
     16          1           0       -6.379167    6.109479    7.129947
     17          6           0       -3.336398    5.013294    4.984830
     18          1           0       -2.494945    4.704561    4.375293
     19          6           0       -4.770131    6.756005    5.853723
     20          1           0       -5.025687    7.807137    5.944487
     21          6           0       -3.676183    6.363646    5.078417
     22          1           0       -3.087509    7.108614    4.553012
     23          7           0       -6.856524    3.994590    3.926858
     24          1           0       -6.552920    4.864868    4.354491
     25          6           0       -6.466088    3.779638    2.518792
     26          1           0       -7.171438    3.049966    2.110729
     27          6           0       -5.036760    3.185465    2.480301
     28          6           0       -6.540390    5.097605    1.763697
     29          1           0       -6.273323    4.937760    0.716949
     30          1           0       -5.824430    5.814773    2.175604
     31          1           0       -7.551380    5.511520    1.810876
     32          8           0       -4.072349    3.860466    2.126879
     33          7           0       -4.945355    1.906956    2.910163
     34          1           0       -5.796352    1.390418    3.101393
     35          6           0       -3.666552    1.193912    3.007102
     36          1           0       -2.918961    1.942100    3.290424
     37          6           0       -3.275340    0.615899    1.627277
     38          6           0       -3.758592    0.097248    4.058402
     39          1           0       -2.791663   -0.398033    4.169747
     40          1           0       -4.479314   -0.667527    3.755558
     41          1           0       -4.053643    0.516862    5.026928
     42          8           0       -3.314820   -0.593143    1.402822
     43          7           0       -2.928222    1.548936    0.715423
     44          1           0       -2.915540    2.525819    0.992246
     45          6           0       -2.604472    1.191337   -0.665995
     46          1           0       -3.252518    0.349499   -0.925867
     47          6           0       -1.128539    0.740401   -0.724815
     48          6           0       -2.864361    2.373667   -1.591700
     49          1           0       -3.845041    2.797041   -1.334029
     50          1           0       -2.111149    3.140699   -1.374060
     51          8           0       -0.219487    1.520778   -0.994465
     52          6           0       -2.822247    2.040591   -3.070392
     53          6           0       -3.003359    3.074347   -4.000805
     54          1           0       -3.169508    4.088375   -3.643680
     55          6           0       -2.607264    0.751606   -3.564364
     56          1           0       -2.444203   -0.084821   -2.892557
     57          6           0       -2.956263    2.840625   -5.369398
     58          1           0       -3.078707    3.649327   -6.082788
     59          6           0       -2.564413    0.496592   -4.935620
     60          1           0       -2.378280   -0.509468   -5.296251
     61          8           0       -2.628371    1.365997   -7.200569
     62          1           0       -2.275998    0.461143   -7.370788
     63          6           0       -2.723416    1.545385   -5.842495
     64          7           0       -0.940401   -0.564263   -0.418191
     65          1           0       -1.732090   -1.095978   -0.072679
     66          6           0        0.399312   -1.141522   -0.320896
     67          1           0        1.044278   -0.384013    0.134193
     68          6           0        0.907185   -1.452250   -1.743830
     69          6           0        0.353789   -2.403304    0.538618
     70          1           0       -0.048284   -2.129795    1.524630
     71          1           0       -0.350876   -3.103553    0.074644
     72          8           0        0.620435   -2.499577   -2.319625
     73          6           0        1.708143   -3.112013    0.708891
     74          1           0        2.013731   -3.468033   -0.282488
     75          6           0        2.800914   -2.177080    1.243899
     76          1           0        2.497987   -1.719224    2.195264
     77          1           0        3.728628   -2.731676    1.424176
     78          1           0        3.033623   -1.371990    0.538826
     79          6           0        1.539725   -4.333836    1.619516
     80          1           0        1.245100   -4.030165    2.632895
     81          1           0        0.770229   -5.013196    1.235400
     82          1           0        2.476241   -4.896791    1.700181
     83          7           0        1.688214   -0.483608   -2.277111
     84          1           0        1.713859    0.437917   -1.848624
     85          6           0        2.150757   -0.542968   -3.650660
     86          1           0        2.449918   -1.574312   -3.862569
     87          6           0        3.337170    0.420056   -3.761790
     88          6           0        1.016745   -0.131514   -4.613096
     89          1           0        0.159859   -0.774439   -4.394368
     90          1           0        0.728799    0.900039   -4.384944
     91          8           0        3.365023    1.459100   -3.101181
     92          6           0        1.379413   -0.261171   -6.107718
     93          1           0        1.602872   -1.302590   -6.356357
     94          1           0        2.241624    0.362969   -6.353651
     95          6           0        0.186091    0.178106   -6.911210
     96          8           0       -0.721976   -0.566526   -7.261078
     97          8           0        0.171088    1.501565   -7.121405
     98          7           0        4.284069    0.068472   -4.654465
     99          1           0        4.266855   -0.821768   -5.140989
    100          6           0        5.427084    0.901678   -4.993296
    101          1           0        5.103226    1.941666   -5.069632
    102          6           0        5.983344    0.440178   -6.351130
    103          6           0        6.516718    0.785198   -3.893332
    104          1           0        6.607631   -0.278905   -3.635073
    105          1           0        6.121523    1.281296   -3.002494
    106          8           0        5.910438   -0.828067   -6.557396
    107          6           0        7.902541    1.360346   -4.266004
    108          1           0        8.300719    1.948078   -3.430262
    109          1           0        7.809195    2.030849   -5.126255
    110          6           0        8.948323    0.274862   -4.573164
    111          1           0        9.046950   -0.400494   -3.717078
    112          1           0        9.941256    0.712828   -4.718426
    113          7           0        8.625308   -0.572855   -5.726499
    114          1           0        7.762241   -1.112146   -5.634111
    115          7           0        9.874844    0.578612   -7.343044
    116          1           0        9.816144    1.018262   -8.250532
    117          1           0       10.272943    1.162325   -6.623214
    118          7           0        8.199830   -0.936395   -7.953726
    119          1           0        8.306013   -0.590731   -8.898831
    120          1           0        7.199519   -1.091190   -7.663736
    121          6           0        8.876061   -0.269841   -7.007630
    122          8           0        6.555656    1.284708   -7.061099
    123          1           0       -0.719601    1.742362   -7.465063
 ---------------------------------------------------------------------

 SCF Done:  E(RB3LYP) =  -2974.30154345     A.U. after    2 cycles

 Alpha  occ. eigenvalues --  -19.29616 -19.23123 -19.22407 -19.20798 -19.19467
 Alpha  occ. eigenvalues --  -19.17748 -19.16250 -19.14038 -19.13768 -19.12493
 Alpha  occ. eigenvalues --  -19.11251 -14.62626 -14.52317 -14.47186 -14.43946
 Alpha  occ. eigenvalues --  -14.43267 -14.42567 -14.40429 -14.40201 -14.38245
 Alpha  occ. eigenvalues --  -14.38111 -10.46116 -10.43334 -10.40118 -10.38844
 Alpha  occ. eigenvalues --  -10.36436 -10.36393 -10.36313 -10.35729 -10.33168
 Alpha  occ. eigenvalues --  -10.33070 -10.33013 -10.31677 -10.31175 -10.31125
 Alpha  occ. eigenvalues --  -10.31061 -10.30964 -10.30566 -10.30498 -10.29493
 Alpha  occ. eigenvalues --  -10.29105 -10.29038 -10.28753 -10.28136 -10.27600
 Alpha  occ. eigenvalues --  -10.26653 -10.26035 -10.24462 -10.24299 -10.23315
 Alpha  occ. eigenvalues --  -10.23008 -10.22851 -10.22726 -10.22709 -10.22331
 Alpha  occ. eigenvalues --  -10.22236 -10.22196 -10.22165 -10.22078 -10.22045
 Alpha  occ. eigenvalues --  -10.20794 -10.20668  -1.21935  -1.16515  -1.15005
 Alpha  occ. eigenvalues --   -1.13922  -1.11258  -1.08885  -1.08593  -1.08165
 Alpha  occ. eigenvalues --   -1.07903  -1.06245  -1.05537  -1.04829  -1.04721
 Alpha  occ. eigenvalues --   -1.03497  -0.99767  -0.99116  -0.97594  -0.96897
 Alpha  occ. eigenvalues --   -0.96457  -0.95323  -0.95178  -0.94992  -0.94288
 Alpha  occ. eigenvalues --   -0.90553  -0.89265  -0.87540  -0.86649  -0.86610
 Alpha  occ. eigenvalues --   -0.85011  -0.83816  -0.83701  -0.83122  -0.82032
 Alpha  occ. eigenvalues --   -0.79343  -0.78390  -0.78266  -0.77646  -0.77141
 Alpha  occ. eigenvalues --   -0.76550  -0.75572  -0.75538  -0.75216  -0.73439
 Alpha  occ. eigenvalues --   -0.72755  -0.71748  -0.71520  -0.70897  -0.70528
 Alpha  occ. eigenvalues --   -0.70179  -0.69386  -0.68834  -0.67762  -0.66714
 Alpha  occ. eigenvalues --   -0.66255  -0.65546  -0.65354  -0.64519  -0.64131
 Alpha  occ. eigenvalues --   -0.63835  -0.63458  -0.63104  -0.62634  -0.62278
 Alpha  occ. eigenvalues --   -0.61646  -0.61039  -0.60816  -0.60546  -0.60412
 Alpha  occ. eigenvalues --   -0.60204  -0.59163  -0.58428  -0.58309  -0.57858
 Alpha  occ. eigenvalues --   -0.57777  -0.57675  -0.56478  -0.56116  -0.56008
 Alpha  occ. eigenvalues --   -0.55439  -0.54485  -0.54361  -0.54017  -0.53644
 Alpha  occ. eigenvalues --   -0.53624  -0.53557  -0.53129  -0.52963  -0.52706
 Alpha  occ. eigenvalues --   -0.52359  -0.51837  -0.51630  -0.51133  -0.50980
 Alpha  occ. eigenvalues --   -0.50555  -0.50497  -0.50285  -0.49941  -0.49665
 Alpha  occ. eigenvalues --   -0.49554  -0.49272  -0.48901  -0.48504  -0.48376
 Alpha  occ. eigenvalues --   -0.48067  -0.47796  -0.47736  -0.47531  -0.47418
 Alpha  occ. eigenvalues --   -0.47247  -0.47202  -0.46601  -0.46472  -0.46428
 Alpha  occ. eigenvalues --   -0.46308  -0.46134  -0.45671  -0.45430  -0.45225
 Alpha  occ. eigenvalues --   -0.44704  -0.44443  -0.44363  -0.44146  -0.44068
 Alpha  occ. eigenvalues --   -0.43657  -0.43399  -0.42780  -0.42684  -0.42533
 Alpha  occ. eigenvalues --   -0.42189  -0.41889  -0.41843  -0.41400  -0.41207
 Alpha  occ. eigenvalues --   -0.41068  -0.40352  -0.39964  -0.39507  -0.39427
 Alpha  occ. eigenvalues --   -0.39349  -0.39084  -0.38511  -0.38304  -0.38126
 Alpha  occ. eigenvalues --   -0.37686  -0.37245  -0.37209  -0.36845  -0.36661
 Alpha  occ. eigenvalues --   -0.36405  -0.36328  -0.36073  -0.35942  -0.35617
 Alpha  occ. eigenvalues --   -0.34902  -0.34554  -0.34129  -0.32699  -0.31769
 Alpha  occ. eigenvalues --   -0.31515  -0.31126  -0.29599  -0.28776  -0.28620
 Alpha  occ. eigenvalues --   -0.28453  -0.27861  -0.27403  -0.26924  -0.26778
 Alpha  occ. eigenvalues --   -0.25438  -0.24686
 Alpha virt. eigenvalues --   -0.15419  -0.13406  -0.13178  -0.12467  -0.09826
 Alpha virt. eigenvalues --   -0.08065  -0.05982  -0.05652  -0.04547  -0.04455
 Alpha virt. eigenvalues --   -0.04123  -0.03292  -0.03227  -0.03132  -0.02564

 Mulliken charges:
               1
     1  N   -0.755850
     2  H    0.423343
     3  H    0.420617
     4  H    0.437026
     5  C   -0.114246
     6  H    0.222597
     7  C    0.659352
     8  C   -0.378409
     9  H    0.186665
    10  H    0.193779
    11  O   -0.559661
    12  C    0.133519
    13  C   -0.186834
    14  H    0.156046
    15  C   -0.216563
    16  H    0.140143
    17  C   -0.109890
    18  H    0.178970
    19  C   -0.128875
    20  H    0.169307
    21  C   -0.129789
    22  H    0.175043
    23  N   -0.573325
    24  H    0.372322
    25  C   -0.087430
    26  H    0.202123
    27  C    0.646764
    28  C   -0.465202
    29  H    0.199308
    30  H    0.182193
    31  H    0.167033
    32  O   -0.529382
    33  N   -0.610894
    34  H    0.363923
    35  C   -0.068103
    36  H    0.178935
    37  C    0.635324
    38  C   -0.466053
    39  H    0.192670
    40  H    0.182100
    41  H    0.124902
    42  O   -0.531600
    43  N   -0.626846
    44  H    0.370833
    45  C   -0.061317
    46  H    0.174334
    47  C    0.634439
    48  C   -0.368424
    49  H    0.137571
    50  H    0.184951
    51  O   -0.529332
    52  C    0.180088
    53  C   -0.186276
    54  H    0.119317
    55  C   -0.196961
    56  H    0.136108
    57  C   -0.156725
    58  H    0.140611
    59  C   -0.205513
    60  H    0.160603
    61  O   -0.694096
    62  H    0.437727
    63  C    0.336698
    64  N   -0.618310
    65  H    0.362770
    66  C   -0.041480
    67  H    0.162213
    68  C    0.635012
    69  C   -0.283028
    70  H    0.124455
    71  H    0.159011
    72  O   -0.547669
    73  C   -0.080809
    74  H    0.159124
    75  C   -0.453501
    76  H    0.129888
    77  H    0.145505
    78  H    0.153294
    79  C   -0.443927
    80  H    0.129813
    81  H    0.146925
    82  H    0.145199
    83  N   -0.607156
    84  H    0.371127
    85  C   -0.049043
    86  H    0.165802
    87  C    0.618533
    88  C   -0.287253
    89  H    0.181486
    90  H    0.182993
    91  O   -0.548348
    92  C   -0.338197
    93  H    0.173885
    94  H    0.187814
    95  C    0.584707
    96  O   -0.506377
    97  O   -0.565250
    98  N   -0.618315
    99  H    0.346807
   100  C   -0.006741
   101  H    0.172313
   102  C    0.577324
   103  C   -0.293652
   104  H    0.130905
   105  H    0.179182
   106  O   -0.647150
   107  C   -0.274163
   108  H    0.145152
   109  H    0.184897
   110  C   -0.180008
   111  H    0.177677
   112  H    0.145980
   113  N   -0.568407
   114  H    0.371137
   115  N   -0.749956
   116  H    0.364743
   117  H    0.363528
   118  N   -0.731536
   119  H    0.335921
   120  H    0.400532
   121  C    0.756226
   122  O   -0.582094
   123  H    0.430801
 Sum of Mulliken charges =   1.00000

 Dipole moment (field-independent basis, Debye):
    X=            -25.4409    Y=             17.5126    Z=             29.0884  Tot=             42.4272
 Quadrupole moment (field-independent basis, Debye-Ang):
   XX=             52.3532   YY=           -300.8267   ZZ=           -136.9440
   XY=           -112.8576   XZ=           -309.8121   YZ=             86.0816

 Normal termination of Gaussian 16 at Sun Jul 24 01:56:47 2022.
