 Gaussian 16, Revision C.01,
 Gaussian 16:  ES64L-G16RevC.01  3-Jul-2019

 ----------------------------------------------------------------------
 # B3LYP/6-31G* empiricaldispersion=gd3bj guess=read geom=check nosymm
 integral(ultrafinegrid)
 ----------------------------------------------------------------------

 ------------------------------------------------------
 Candidate Structure: Conf:304 Charge calc in gas phase
 ------------------------------------------------------
 Structure from the checkpoint file:  "conf-304.chk"
 Charge =  1 Multiplicity = 1

                          Input orientation:
 ---------------------------------------------------------------------
 Center     Atomic      Atomic             Coordinates (Angstroms)
 Number     Number       Type             X           Y           Z
 ---------------------------------------------------------------------
      1          7           0       -4.001751    5.797054   -0.388711
      2          1           0       -4.164155    5.651636   -1.387796
      3          1           0       -3.208131    6.442899   -0.289540
      4          1           0       -4.885635    6.159492    0.063717
      5          6           0       -3.752189    4.498280    0.345463
      6          1           0       -3.678148    3.704766   -0.402163
      7          6           0       -5.015389    4.328213    1.214699
      8          6           0       -2.446142    4.587175    1.157364
      9          1           0       -2.249979    3.589021    1.560582
     10          1           0       -2.593086    5.249140    2.018637
     11          8           0       -5.872398    5.226554    1.193696
     12          6           0       -1.295471    5.076970    0.304260
     13          6           0       -0.871597    4.346651   -0.819566
     14          1           0       -1.348886    3.399676   -1.059380
     15          6           0       -0.685372    6.305523    0.589102
     16          1           0       -0.995923    6.870865    1.465280
     17          6           0        0.147198    4.837413   -1.638796
     18          1           0        0.482808    4.273380   -2.507127
     19          6           0        0.346493    6.791151   -0.220743
     20          1           0        0.820593    7.737637    0.020961
     21          6           0        0.761902    6.058198   -1.330992
     22          1           0        1.561188    6.429939   -1.964654
     23          7           0       -5.073870    3.218736    1.939665
     24          1           0       -4.314665    2.541171    1.925641
     25          6           0       -6.187090    2.868674    2.812339
     26          1           0       -6.555227    3.788404    3.279282
     27          6           0       -5.591356    1.943405    3.893628
     28          6           0       -7.314382    2.205438    2.005796
     29          1           0       -8.187079    1.988722    2.629454
     30          1           0       -6.963861    1.271807    1.555504
     31          1           0       -7.638051    2.884290    1.212417
     32          8           0       -4.383415    1.715169    3.927760
     33          7           0       -6.476537    1.415749    4.772226
     34          1           0       -7.464370    1.492650    4.566812
     35          6           0       -6.100995    0.291168    5.643614
     36          1           0       -5.093626    0.501974    6.008225
     37          6           0       -6.114618   -0.963618    4.746655
     38          6           0       -7.087701    0.162669    6.795383
     39          1           0       -6.767498   -0.631903    7.475561
     40          1           0       -8.077576   -0.106435    6.414568
     41          1           0       -7.149744    1.099401    7.356510
     42          8           0       -7.177411   -1.471282    4.393280
     43          7           0       -4.898637   -1.366810    4.319962
     44          1           0       -4.051766   -0.923094    4.658227
     45          6           0       -4.697377   -2.394783    3.315709
     46          1           0       -5.131085   -3.338074    3.673521
     47          6           0       -3.172863   -2.573868    3.183357
     48          6           0       -5.390411   -2.057250    1.980050
     49          1           0       -5.408074   -2.963840    1.360304
     50          1           0       -6.438624   -1.857727    2.223586
     51          8           0       -2.403740   -1.998068    3.955619
     52          6           0       -4.814219   -0.920967    1.155139
     53          6           0       -3.715953   -0.142280    1.536344
     54          1           0       -3.241546   -0.277310    2.497014
     55          6           0       -5.390141   -0.662646   -0.098803
     56          1           0       -6.244424   -1.253511   -0.420635
     57          6           0       -3.184648    0.823902    0.679580
     58          1           0       -2.277580    1.356866    0.951870
     59          6           0       -4.889405    0.316274   -0.951601
     60          1           0       -5.337107    0.488074   -1.924851
     61          8           0       -3.206227    2.002324   -1.388548
     62          1           0       -3.264409    1.673210   -2.324715
     63          6           0       -3.764659    1.051519   -0.566432
     64          7           0       -2.751754   -3.349756    2.159470
     65          1           0       -3.414928   -3.679217    1.467676
     66          6           0       -1.368611   -3.309257    1.695284
     67          1           0       -0.859096   -2.563373    2.307647
     68          6           0       -1.401651   -2.886801    0.221903
     69          6           0       -0.667431   -4.672766    1.816416
     70          1           0       -1.193871   -5.379472    1.163094
     71          1           0        0.349130   -4.567531    1.411026
     72          8           0       -2.177772   -3.420618   -0.569069
     73          6           0       -0.592401   -5.233364    3.245318
     74          1           0       -1.620043   -5.307340    3.627097
     75          6           0        0.006054   -6.645268    3.212663
     76          1           0        1.038910   -6.623894    2.841994
     77          1           0        0.022629   -7.086470    4.215079
     78          1           0       -0.569855   -7.311238    2.559836
     79          6           0        0.202170   -4.320599    4.188418
     80          1           0        1.216937   -4.152115    3.802797
     81          1           0       -0.286340   -3.351390    4.325278
     82          1           0        0.299435   -4.782835    5.176922
     83          7           0       -0.497840   -1.940920   -0.124156
     84          1           0        0.029931   -1.443666    0.583544
     85          6           0       -0.262112   -1.491147   -1.483829
     86          1           0       -0.016771   -2.357257   -2.111361
     87          6           0        0.925365   -0.526331   -1.407785
     88          6           0       -1.491605   -0.761195   -2.090215
     89          1           0       -2.371856   -1.332467   -1.789621
     90          1           0       -1.564270    0.230185   -1.640592
     91          8           0        1.197379    0.035697   -0.330845
     92          6           0       -1.434523   -0.648877   -3.619238
     93          1           0       -1.243557   -1.623196   -4.080721
     94          1           0       -0.637418    0.042641   -3.940838
     95          6           0       -2.682938   -0.082507   -4.233357
     96          8           0       -3.396280    0.801039   -3.767727
     97          8           0       -2.949704   -0.616874   -5.429470
     98          7           0        1.597843   -0.300778   -2.552901
     99          1           0        1.208146   -0.666246   -3.414236
    100          6           0        2.381995    0.918187   -2.715932
    101          1           0        2.379500    1.347416   -1.729267
    102          6           0        1.634457    1.938822   -3.625570
    103          6           0        3.828006    0.634902   -3.147910
    104          1           0        4.259575    1.560447   -3.545072
    105          1           0        3.809008   -0.074118   -3.983668
    106          8           0        2.018017    3.149061   -3.486811
    107          6           0        4.714675    0.068377   -2.022792
    108          1           0        5.582070   -0.435613   -2.466783
    109          1           0        4.160832   -0.701155   -1.469682
    110          6           0        5.289628    1.095035   -1.029586
    111          1           0        5.843613    1.872880   -1.563105
    112          1           0        6.012571    0.608584   -0.369764
    113          7           0        4.303003    1.739416   -0.144307
    114          1           0        3.991298    1.188659    0.646877
    115          7           0        3.736201    3.579021   -1.508897
    116          1           0        3.012285    3.569051   -2.308571
    117          1           0        4.692406    3.571679   -1.841706
    118          7           0        2.261271    2.791855    0.092219
    119          1           0        1.660971    3.556958   -0.200104
    120          1           0        1.786146    1.906976    0.279205
    121          6           0        3.455737    2.708559   -0.530745
    122          8           0        0.736280    1.508276   -4.364432
    123          1           0       -3.726738   -0.149573   -5.792651
 ---------------------------------------------------------------------

 SCF Done:  E(RB3LYP) =  -2974.34747937     A.U. after    3 cycles

 Alpha  occ. eigenvalues --  -19.28348 -19.25193 -19.24695 -19.23688 -19.22080
 Alpha  occ. eigenvalues --  -19.21165 -19.19742 -19.19000 -19.18144 -19.16347
 Alpha  occ. eigenvalues --  -19.15485 -14.57427 -14.48301 -14.47400 -14.46300
 Alpha  occ. eigenvalues --  -14.45122 -14.44970 -14.44539 -14.43785 -14.43698
 Alpha  occ. eigenvalues --  -14.42766 -10.42896 -10.41509 -10.41369 -10.38587
 Alpha  occ. eigenvalues --  -10.38217 -10.37425 -10.36873 -10.36115 -10.35365
 Alpha  occ. eigenvalues --  -10.33938 -10.33617 -10.33267 -10.32833 -10.32291
 Alpha  occ. eigenvalues --  -10.32164 -10.31287 -10.30943 -10.30652 -10.30179
 Alpha  occ. eigenvalues --  -10.29508 -10.29391 -10.28960 -10.28672 -10.28499
 Alpha  occ. eigenvalues --  -10.28038 -10.27847 -10.27566 -10.27530 -10.27272
 Alpha  occ. eigenvalues --  -10.27173 -10.27161 -10.27030 -10.27010 -10.26912
 Alpha  occ. eigenvalues --  -10.26882 -10.26878 -10.25060 -10.24870 -10.24411
 Alpha  occ. eigenvalues --  -10.22397 -10.22168  -1.19783  -1.17032  -1.13537
 Alpha  occ. eigenvalues --   -1.13267  -1.13240  -1.12013  -1.11939  -1.11547
 Alpha  occ. eigenvalues --   -1.10829  -1.10300  -1.10037  -1.09081  -1.04412
 Alpha  occ. eigenvalues --   -1.01966  -1.01484  -1.01438  -1.00472  -1.00449
 Alpha  occ. eigenvalues --   -1.00362  -0.99539  -0.98793  -0.96141  -0.93553
 Alpha  occ. eigenvalues --   -0.91508  -0.89236  -0.88263  -0.88054  -0.87427
 Alpha  occ. eigenvalues --   -0.86180  -0.84756  -0.84305  -0.83846  -0.83400
 Alpha  occ. eigenvalues --   -0.83015  -0.82548  -0.81121  -0.79467  -0.78091
 Alpha  occ. eigenvalues --   -0.76639  -0.75686  -0.74800  -0.74014  -0.73318
 Alpha  occ. eigenvalues --   -0.72553  -0.72322  -0.71937  -0.71146  -0.70829
 Alpha  occ. eigenvalues --   -0.70264  -0.69882  -0.69388  -0.68922  -0.68538
 Alpha  occ. eigenvalues --   -0.68332  -0.68197  -0.67898  -0.67483  -0.67113
 Alpha  occ. eigenvalues --   -0.66551  -0.65668  -0.64713  -0.64547  -0.64248
 Alpha  occ. eigenvalues --   -0.63490  -0.62892  -0.62310  -0.61842  -0.61359
 Alpha  occ. eigenvalues --   -0.60938  -0.60399  -0.59715  -0.59166  -0.58788
 Alpha  occ. eigenvalues --   -0.58411  -0.58084  -0.57351  -0.57205  -0.56829
 Alpha  occ. eigenvalues --   -0.56670  -0.56127  -0.55855  -0.55779  -0.55432
 Alpha  occ. eigenvalues --   -0.55289  -0.54954  -0.54816  -0.54378  -0.54203
 Alpha  occ. eigenvalues --   -0.54102  -0.53755  -0.53682  -0.52926  -0.52758
 Alpha  occ. eigenvalues --   -0.52521  -0.52169  -0.51911  -0.51847  -0.51613
 Alpha  occ. eigenvalues --   -0.51400  -0.50944  -0.50778  -0.50543  -0.50341
 Alpha  occ. eigenvalues --   -0.50292  -0.50238  -0.50046  -0.49683  -0.49381
 Alpha  occ. eigenvalues --   -0.49183  -0.48948  -0.48754  -0.48536  -0.48177
 Alpha  occ. eigenvalues --   -0.48088  -0.47572  -0.47183  -0.46948  -0.46880
 Alpha  occ. eigenvalues --   -0.46649  -0.46544  -0.46338  -0.46207  -0.45996
 Alpha  occ. eigenvalues --   -0.45924  -0.45396  -0.45266  -0.44936  -0.44688
 Alpha  occ. eigenvalues --   -0.44310  -0.44198  -0.44189  -0.43899  -0.43686
 Alpha  occ. eigenvalues --   -0.43494  -0.43411  -0.43351  -0.43166  -0.42915
 Alpha  occ. eigenvalues --   -0.42510  -0.41929  -0.41852  -0.41356  -0.41175
 Alpha  occ. eigenvalues --   -0.40821  -0.39496  -0.39343  -0.38840  -0.38297
 Alpha  occ. eigenvalues --   -0.37975  -0.37917  -0.37420  -0.37273  -0.37102
 Alpha  occ. eigenvalues --   -0.36434  -0.36065  -0.35811  -0.35279  -0.35052
 Alpha  occ. eigenvalues --   -0.34847  -0.34453  -0.33798  -0.33577  -0.33067
 Alpha  occ. eigenvalues --   -0.32448  -0.31681  -0.31441  -0.31290  -0.30376
 Alpha  occ. eigenvalues --   -0.30237  -0.29550
 Alpha virt. eigenvalues --   -0.11629  -0.10762  -0.10069  -0.09535  -0.08898
 Alpha virt. eigenvalues --   -0.08166  -0.08072  -0.07716  -0.07511  -0.07032
 Alpha virt. eigenvalues --   -0.06148  -0.04615  -0.04007  -0.02735  -0.02104

 Mulliken charges:
               1
     1  N   -0.754415
     2  H    0.416101
     3  H    0.403789
     4  H    0.424736
     5  C   -0.145908
     6  H    0.276071
     7  C    0.650099
     8  C   -0.385175
     9  H    0.201497
    10  H    0.180066
    11  O   -0.554350
    12  C    0.112158
    13  C   -0.234034
    14  H    0.187920
    15  C   -0.212506
    16  H    0.146682
    17  C   -0.204580
    18  H    0.236053
    19  C   -0.123284
    20  H    0.159892
    21  C   -0.138237
    22  H    0.167014
    23  N   -0.603796
    24  H    0.394672
    25  C   -0.069665
    26  H    0.204970
    27  C    0.630303
    28  C   -0.465277
    29  H    0.163600
    30  H    0.184042
    31  H    0.182490
    32  O   -0.535974
    33  N   -0.594840
    34  H    0.344523
    35  C   -0.054666
    36  H    0.176968
    37  C    0.624430
    38  C   -0.470183
    39  H    0.175855
    40  H    0.179661
    41  H    0.164488
    42  O   -0.537381
    43  N   -0.608045
    44  H    0.369418
    45  C   -0.040697
    46  H    0.195342
    47  C    0.608635
    48  C   -0.391730
    49  H    0.159866
    50  H    0.214349
    51  O   -0.537654
    52  C    0.163011
    53  C   -0.182644
    54  H    0.170925
    55  C   -0.192768
    56  H    0.146652
    57  C   -0.257525
    58  H    0.143970
    59  C   -0.175686
    60  H    0.151832
    61  O   -0.727378
    62  H    0.464235
    63  C    0.355983
    64  N   -0.590587
    65  H    0.352780
    66  C   -0.076612
    67  H    0.174889
    68  C    0.635754
    69  C   -0.254332
    70  H    0.155015
    71  H    0.134720
    72  O   -0.546048
    73  C   -0.068740
    74  H    0.134104
    75  C   -0.443927
    76  H    0.140518
    77  H    0.151279
    78  H    0.145315
    79  C   -0.469902
    80  H    0.127716
    81  H    0.175394
    82  H    0.150185
    83  N   -0.638262
    84  H    0.354141
    85  C   -0.013368
    86  H    0.175460
    87  C    0.608038
    88  C   -0.299741
    89  H    0.205670
    90  H    0.165240
    91  O   -0.586933
    92  C   -0.428619
    93  H    0.180374
    94  H    0.260506
    95  C    0.624353
    96  O   -0.521792
    97  O   -0.535254
    98  N   -0.575908
    99  H    0.347610
   100  C   -0.095295
   101  H    0.147901
   102  C    0.613188
   103  C   -0.269596
   104  H    0.153011
   105  H    0.163489
   106  O   -0.611632
   107  C   -0.267708
   108  H    0.165501
   109  H    0.159001
   110  C   -0.173861
   111  H    0.169281
   112  H    0.185527
   113  N   -0.540822
   114  H    0.357177
   115  N   -0.746431
   116  H    0.422934
   117  H    0.342372
   118  N   -0.740809
   119  H    0.380398
   120  H    0.390355
   121  C    0.634072
   122  O   -0.543386
   123  H    0.422398
 Sum of Mulliken charges =   1.00000

 Dipole moment (field-independent basis, Debye):
    X=             -6.3509    Y=             13.6770    Z=              1.6119  Tot=             15.1655
 Quadrupole moment (field-independent basis, Debye-Ang):
   XX=           -241.0135   YY=           -262.6184   ZZ=           -345.5555
   XY=            -44.5135   XZ=            -12.7865   YZ=              6.7868

 Normal termination of Gaussian 16 at Sun Jul 24 01:50:35 2022.
