 Gaussian 16, Revision C.01,
 Gaussian 16:  ES64L-G16RevC.01  3-Jul-2019

 ----------------------------------------------------------------------
 # B3LYP/6-31G* empiricaldispersion=gd3bj guess=read geom=check nosymm
 integral(ultrafinegrid)
 ----------------------------------------------------------------------

 ------------------------------------------------------
 Candidate Structure: Conf:625 Charge calc in gas phase
 ------------------------------------------------------
 Structure from the checkpoint file:  "conf-625.chk"
 Charge =  1 Multiplicity = 1

                          Input orientation:
 ---------------------------------------------------------------------
 Center     Atomic      Atomic             Coordinates (Angstroms)
 Number     Number       Type             X           Y           Z
 ---------------------------------------------------------------------
      1          7           0       -9.267595    2.865862    9.288967
      2          1           0      -10.167920    3.345083    9.198718
      3          1           0       -8.952808    2.932456   10.260661
      4          1           0       -9.387137    1.850317    8.980534
      5          6           0       -8.231353    3.342347    8.291807
      6          1           0       -8.498234    4.344265    7.952357
      7          6           0       -8.351549    2.283690    7.169142
      8          6           0       -6.836586    3.330830    8.954088
      9          1           0       -6.662068    2.331554    9.371060
     10          1           0       -6.847849    4.046332    9.786806
     11          8           0       -8.869037    1.195292    7.481427
     12          6           0       -5.746387    3.677085    7.966380
     13          6           0       -4.928991    2.672928    7.436294
     14          1           0       -5.047812    1.646424    7.774410
     15          6           0       -5.587318    4.995835    7.524231
     16          1           0       -6.207466    5.787875    7.939504
     17          6           0       -3.965022    2.982354    6.478065
     18          1           0       -3.334532    2.197184    6.072744
     19          6           0       -4.627562    5.304229    6.560978
     20          1           0       -4.512468    6.328819    6.222186
     21          6           0       -3.815808    4.297632    6.037828
     22          1           0       -3.068897    4.538061    5.288158
     23          7           0       -7.868914    2.613279    5.986193
     24          1           0       -7.391919    3.503993    5.811966
     25          6           0       -7.704821    1.683025    4.872279
     26          1           0       -7.269079    0.753296    5.254194
     27          6           0       -6.703571    2.394082    3.937185
     28          6           0       -9.033495    1.383203    4.167227
     29          1           0       -8.874719    0.688312    3.337529
     30          1           0       -9.468334    2.304773    3.768582
     31          1           0       -9.735049    0.927028    4.870133
     32          8           0       -6.462211    3.595228    4.096468
     33          7           0       -6.169803    1.626473    2.983647
     34          1           0       -6.418458    0.646108    2.859625
     35          6           0       -5.257536    2.115909    1.961408
     36          1           0       -5.673332    3.031392    1.524178
     37          6           0       -5.210210    1.004010    0.900582
     38          6           0       -3.861163    2.409191    2.533235
     39          1           0       -3.192156    2.797902    1.760794
     40          1           0       -3.412840    1.492661    2.924154
     41          1           0       -3.953493    3.152370    3.328142
     42          8           0       -5.711175   -0.095813    1.124261
     43          7           0       -4.612159    1.343818   -0.269187
     44          1           0       -4.045103    2.184058   -0.252279
     45          6           0       -4.085308    0.302778   -1.135853
     46          1           0       -4.800643   -0.523978   -1.104478
     47          6           0       -2.757657   -0.201581   -0.512672
     48          6           0       -3.963708    0.824490   -2.586090
     49          1           0       -3.748076   -0.020115   -3.250044
     50          1           0       -4.952723    1.197794   -2.873960
     51          8           0       -2.397337    0.193952    0.593580
     52          6           0       -2.904222    1.888226   -2.754825
     53          6           0       -3.119087    3.221180   -2.368853
     54          1           0       -4.107394    3.532020   -2.035630
     55          6           0       -1.645581    1.548799   -3.261210
     56          1           0       -1.440171    0.535297   -3.587585
     57          6           0       -2.098999    4.168388   -2.425315
     58          1           0       -2.265856    5.195492   -2.117349
     59          6           0       -0.626042    2.489506   -3.345361
     60          1           0        0.331426    2.212195   -3.770456
     61          8           0        0.152711    4.732996   -2.915400
     62          1           0        0.987338    4.292014   -3.162035
     63          6           0       -0.833676    3.798268   -2.896927
     64          7           0       -2.075480   -1.132111   -1.225341
     65          1           0       -2.284797   -1.275268   -2.205116
     66          6           0       -0.774280   -1.614933   -0.793595
     67          1           0       -0.518222   -1.051042    0.104899
     68          6           0        0.256719   -1.332910   -1.889041
     69          6           0       -0.787974   -3.127453   -0.487227
     70          1           0       -1.024756   -3.660471   -1.418057
     71          1           0        0.229091   -3.432575   -0.204639
     72          8           0       -0.062699   -1.227957   -3.073564
     73          6           0       -1.775175   -3.548524    0.612662
     74          1           0       -2.779531   -3.233861    0.297424
     75          6           0       -1.773401   -5.076425    0.747587
     76          1           0       -0.788501   -5.438725    1.068672
     77          1           0       -2.507801   -5.405484    1.491271
     78          1           0       -2.015148   -5.564214   -0.204024
     79          6           0       -1.466556   -2.877580    1.957649
     80          1           0       -0.437644   -3.095151    2.274066
     81          1           0       -1.595111   -1.792347    1.908220
     82          1           0       -2.138587   -3.256496    2.736345
     83          7           0        1.531858   -1.244409   -1.434619
     84          1           0        1.730574   -1.582578   -0.494937
     85          6           0        2.685245   -1.377838   -2.308310
     86          1           0        2.319122   -1.644861   -3.304950
     87          6           0        3.545007   -2.516464   -1.721937
     88          6           0        3.507920   -0.078633   -2.384221
     89          1           0        3.910752    0.149902   -1.391288
     90          1           0        4.371291   -0.232415   -3.039302
     91          8           0        3.360096   -2.902832   -0.562935
     92          6           0        2.677116    1.099936   -2.885683
     93          1           0        1.822645    1.283953   -2.224662
     94          1           0        2.246129    0.887837   -3.872458
     95          6           0        3.492374    2.364827   -2.985254
     96          8           0        4.662360    2.488726   -2.719091
     97          8           0        2.754437    3.430592   -3.444736
     98          7           0        4.494451   -2.997416   -2.536548
     99          1           0        4.628756   -2.656178   -3.485205
    100          6           0        5.499797   -3.971384   -2.138831
    101          1           0        5.884868   -3.707513   -1.150290
    102          6           0        6.664412   -3.889084   -3.147691
    103          6           0        4.883166   -5.396112   -2.064080
    104          1           0        4.167615   -5.497662   -2.890320
    105          1           0        4.295026   -5.443267   -1.143055
    106          8           0        7.761331   -4.359014   -2.763999
    107          6           0        5.894666   -6.560866   -2.110914
    108          1           0        5.491521   -7.411498   -1.551193
    109          1           0        6.822344   -6.248959   -1.624114
    110          6           0        6.207607   -7.023901   -3.560177
    111          1           0        5.744487   -6.335614   -4.268250
    112          1           0        5.788254   -8.015174   -3.754744
    113          7           0        7.643114   -7.072515   -3.885591
    114          1           0        8.222814   -7.611775   -3.252510
    115          7           0        7.702282   -5.404309   -5.548867
    116          1           0        7.518701   -4.400220   -5.303337
    117          1           0        6.837312   -5.818428   -5.878364
    118          7           0        9.579777   -5.848795   -4.250299
    119          1           0        9.994248   -5.130557   -4.832798
    120          1           0        9.774740   -5.711838   -3.263941
    121          6           0        8.274464   -6.078528   -4.526442
    122          8           0        6.389700   -3.433346   -4.299987
    123          1           0        3.382302    4.176934   -3.500835
 ---------------------------------------------------------------------

 SCF Done:  E(RB3LYP) =  -2974.29777053     A.U. after    3 cycles

 Alpha  occ. eigenvalues --  -19.26143 -19.25928 -19.20886 -19.20744 -19.19767
 Alpha  occ. eigenvalues --  -19.18982 -19.17146 -19.17072 -19.15798 -19.13298
 Alpha  occ. eigenvalues --  -19.12326 -14.59859 -14.48365 -14.44650 -14.44112
 Alpha  occ. eigenvalues --  -14.42881 -14.42118 -14.41270 -14.41037 -14.40542
 Alpha  occ. eigenvalues --  -14.39389 -10.42709 -10.40410 -10.39513 -10.37839
 Alpha  occ. eigenvalues --  -10.37735 -10.35725 -10.34212 -10.33813 -10.33798
 Alpha  occ. eigenvalues --  -10.33744 -10.32768 -10.30811 -10.30534 -10.30379
 Alpha  occ. eigenvalues --  -10.29221 -10.29194 -10.28962 -10.28947 -10.28774
 Alpha  occ. eigenvalues --  -10.28257 -10.28180 -10.27981 -10.27963 -10.27866
 Alpha  occ. eigenvalues --  -10.27498 -10.25462 -10.25373 -10.25203 -10.24572
 Alpha  occ. eigenvalues --  -10.24222 -10.23820 -10.23805 -10.23645 -10.23274
 Alpha  occ. eigenvalues --  -10.23038 -10.22951 -10.22885 -10.22872 -10.22674
 Alpha  occ. eigenvalues --  -10.21308 -10.20874  -1.18693  -1.16207  -1.13619
 Alpha  occ. eigenvalues --   -1.12729  -1.10972  -1.09333  -1.09290  -1.08598
 Alpha  occ. eigenvalues --   -1.08346  -1.07480  -1.07284  -1.05934  -1.05281
 Alpha  occ. eigenvalues --   -1.00945  -0.99282  -0.98029  -0.97824  -0.97655
 Alpha  occ. eigenvalues --   -0.97465  -0.96379  -0.95963  -0.95271  -0.92466
 Alpha  occ. eigenvalues --   -0.89842  -0.88177  -0.86272  -0.85450  -0.85037
 Alpha  occ. eigenvalues --   -0.84392  -0.84266  -0.84040  -0.82640  -0.80677
 Alpha  occ. eigenvalues --   -0.79429  -0.79193  -0.79042  -0.77626  -0.76621
 Alpha  occ. eigenvalues --   -0.76323  -0.73769  -0.73454  -0.72953  -0.72564
 Alpha  occ. eigenvalues --   -0.72107  -0.71224  -0.70715  -0.70350  -0.69577
 Alpha  occ. eigenvalues --   -0.68948  -0.68556  -0.67967  -0.66958  -0.66440
 Alpha  occ. eigenvalues --   -0.65974  -0.65628  -0.64705  -0.64463  -0.63970
 Alpha  occ. eigenvalues --   -0.63576  -0.63049  -0.62889  -0.62687  -0.61872
 Alpha  occ. eigenvalues --   -0.61446  -0.60972  -0.60750  -0.60444  -0.59426
 Alpha  occ. eigenvalues --   -0.58972  -0.58458  -0.58113  -0.57535  -0.56847
 Alpha  occ. eigenvalues --   -0.56422  -0.55756  -0.55410  -0.55237  -0.55042
 Alpha  occ. eigenvalues --   -0.54760  -0.54458  -0.54106  -0.54037  -0.53722
 Alpha  occ. eigenvalues --   -0.53228  -0.53007  -0.52851  -0.52213  -0.52196
 Alpha  occ. eigenvalues --   -0.51673  -0.51572  -0.51488  -0.51192  -0.51098
 Alpha  occ. eigenvalues --   -0.50842  -0.50753  -0.50408  -0.50218  -0.50022
 Alpha  occ. eigenvalues --   -0.49933  -0.49290  -0.48956  -0.48650  -0.48104
 Alpha  occ. eigenvalues --   -0.47989  -0.47909  -0.47613  -0.47095  -0.46976
 Alpha  occ. eigenvalues --   -0.46702  -0.46566  -0.46292  -0.46264  -0.45794
 Alpha  occ. eigenvalues --   -0.45573  -0.45487  -0.45257  -0.45031  -0.44934
 Alpha  occ. eigenvalues --   -0.44663  -0.44616  -0.44452  -0.44174  -0.44049
 Alpha  occ. eigenvalues --   -0.44014  -0.43724  -0.43496  -0.42936  -0.42774
 Alpha  occ. eigenvalues --   -0.42596  -0.42432  -0.42110  -0.41881  -0.41765
 Alpha  occ. eigenvalues --   -0.41274  -0.41078  -0.40760  -0.40455  -0.40239
 Alpha  occ. eigenvalues --   -0.40043  -0.39577  -0.39018  -0.38941  -0.38537
 Alpha  occ. eigenvalues --   -0.38039  -0.37601  -0.37502  -0.37009  -0.36770
 Alpha  occ. eigenvalues --   -0.36574  -0.36482  -0.35360  -0.35032  -0.34621
 Alpha  occ. eigenvalues --   -0.34466  -0.33859  -0.33594  -0.33338  -0.33105
 Alpha  occ. eigenvalues --   -0.32435  -0.31793  -0.31126  -0.30974  -0.30047
 Alpha  occ. eigenvalues --   -0.29754  -0.29674  -0.29368  -0.28382  -0.27760
 Alpha  occ. eigenvalues --   -0.26208  -0.25877
 Alpha virt. eigenvalues --   -0.11978  -0.10816  -0.10614  -0.09796  -0.06854
 Alpha virt. eigenvalues --   -0.06392  -0.05738  -0.05231  -0.04633  -0.04440
 Alpha virt. eigenvalues --   -0.03450  -0.03128  -0.02882  -0.02426  -0.01722

 Mulliken charges:
               1
     1  N   -0.755612
     2  H    0.416367
     3  H    0.413255
     4  H    0.432247
     5  C   -0.110467
     6  H    0.215484
     7  C    0.654122
     8  C   -0.381662
     9  H    0.183424
    10  H    0.183656
    11  O   -0.553644
    12  C    0.147640
    13  C   -0.181167
    14  H    0.141587
    15  C   -0.195672
    16  H    0.131331
    17  C   -0.126034
    18  H    0.160597
    19  C   -0.110621
    20  H    0.159569
    21  C   -0.107345
    22  H    0.161265
    23  N   -0.598063
    24  H    0.388066
    25  C   -0.053518
    26  H    0.188606
    27  C    0.636727
    28  C   -0.454691
    29  H    0.180808
    30  H    0.171267
    31  H    0.184822
    32  O   -0.551102
    33  N   -0.624722
    34  H    0.364756
    35  C   -0.052821
    36  H    0.181539
    37  C    0.636547
    38  C   -0.454645
    39  H    0.168490
    40  H    0.179124
    41  H    0.172458
    42  O   -0.535194
    43  N   -0.591709
    44  H    0.343929
    45  C   -0.087354
    46  H    0.201104
    47  C    0.634463
    48  C   -0.379295
    49  H    0.154937
    50  H    0.170655
    51  O   -0.531246
    52  C    0.160748
    53  C   -0.219324
    54  H    0.125620
    55  C   -0.207268
    56  H    0.168961
    57  C   -0.159189
    58  H    0.139183
    59  C   -0.212079
    60  H    0.143354
    61  O   -0.671719
    62  H    0.437356
    63  C    0.347371
    64  N   -0.596062
    65  H    0.343801
    66  C   -0.088737
    67  H    0.192092
    68  C    0.618870
    69  C   -0.266245
    70  H    0.140475
    71  H    0.154503
    72  O   -0.543317
    73  C   -0.064509
    74  H    0.133277
    75  C   -0.443866
    76  H    0.144361
    77  H    0.143026
    78  H    0.140829
    79  C   -0.471463
    80  H    0.137117
    81  H    0.176094
    82  H    0.136998
    83  N   -0.591475
    84  H    0.355788
    85  C   -0.089825
    86  H    0.180159
    87  C    0.626779
    88  C   -0.257585
    89  H    0.168588
    90  H    0.172325
    91  O   -0.555569
    92  C   -0.374421
    93  H    0.200627
    94  H    0.194633
    95  C    0.597953
    96  O   -0.438425
    97  O   -0.601856
    98  N   -0.615524
    99  H    0.351728
   100  C   -0.012580
   101  H    0.172055
   102  C    0.581207
   103  C   -0.287232
   104  H    0.137722
   105  H    0.174312
   106  O   -0.608832
   107  C   -0.283906
   108  H    0.145538
   109  H    0.181017
   110  C   -0.165873
   111  H    0.168553
   112  H    0.172987
   113  N   -0.542399
   114  H    0.346063
   115  N   -0.726427
   116  H    0.395543
   117  H    0.340175
   118  N   -0.700691
   119  H    0.363889
   120  H    0.369778
   121  C    0.691839
   122  O   -0.621595
   123  H    0.422441
 Sum of Mulliken charges =   1.00000

 Dipole moment (field-independent basis, Debye):
    X=            -24.9148    Y=              4.1965    Z=             26.6802  Tot=             36.7449
 Quadrupole moment (field-independent basis, Debye-Ang):
   XX=             -7.4528   YY=           -240.1573   ZZ=            -42.8134
   XY=           -176.8002   XZ=           -320.6413   YZ=            147.0127

 Normal termination of Gaussian 16 at Sun Jul 24 01:56:59 2022.
