 Gaussian 16, Revision C.01,
 Gaussian 16:  ES64L-G16RevC.01  3-Jul-2019

 ----------------------------------------------------------------------
 # B3LYP/6-31G* empiricaldispersion=gd3bj guess=read geom=check nosymm
 integral(ultrafinegrid)
 ----------------------------------------------------------------------

 ------------------------------------------------------
 Candidate Structure: Conf:497 Charge calc in gas phase
 ------------------------------------------------------
 Structure from the checkpoint file:  "conf-497.chk"
 Charge =  1 Multiplicity = 1

                          Input orientation:
 ---------------------------------------------------------------------
 Center     Atomic      Atomic             Coordinates (Angstroms)
 Number     Number       Type             X           Y           Z
 ---------------------------------------------------------------------
      1          7           0       -4.688170    4.787617   -0.756385
      2          1           0       -5.735456    4.685111   -0.629906
      3          1           0       -4.403692    4.707739   -1.733772
      4          1           0       -4.416670    5.712063   -0.383370
      5          6           0       -4.144112    3.694099    0.132024
      6          1           0       -3.810680    2.867679   -0.502319
      7          6           0       -5.392880    3.282251    0.948525
      8          6           0       -2.949804    4.208506    0.962160
      9          1           0       -2.108088    4.366095    0.279007
     10          1           0       -2.646952    3.403153    1.633905
     11          8           0       -6.489059    3.770017    0.627424
     12          6           0       -3.279696    5.466542    1.728051
     13          6           0       -3.047532    6.724456    1.148805
     14          1           0       -2.508949    6.792912    0.203561
     15          6           0       -3.884501    5.399759    2.991374
     16          1           0       -4.039082    4.434454    3.465807
     17          6           0       -3.434419    7.895525    1.806837
     18          1           0       -3.239223    8.861902    1.352092
     19          6           0       -4.261754    6.569690    3.648307
     20          1           0       -4.719072    6.508415    4.631200
     21          6           0       -4.048624    7.817056    3.055477
     22          1           0       -4.345794    8.723664    3.573209
     23          7           0       -5.202266    2.430967    1.946093
     24          1           0       -4.273639    2.081219    2.169045
     25          6           0       -6.252212    2.050006    2.882141
     26          1           0       -6.911940    2.915585    3.009869
     27          6           0       -5.528133    1.764842    4.214755
     28          6           0       -7.063243    0.862348    2.345919
     29          1           0       -7.903988    0.613861    3.000764
     30          1           0       -6.426384   -0.019285    2.236649
     31          1           0       -7.475610    1.124955    1.368352
     32          8           0       -4.328914    2.016416    4.340573
     33          7           0       -6.288698    1.238044    5.203944
     34          1           0       -7.199624    0.874049    4.951173
     35          6           0       -5.664178    0.534133    6.339486
     36          1           0       -4.747646    1.076228    6.577112
     37          6           0       -5.366321   -0.869887    5.780660
     38          6           0       -6.611145    0.486730    7.529478
     39          1           0       -6.118537    0.007566    8.380883
     40          1           0       -7.498427   -0.103754    7.282099
     41          1           0       -6.912757    1.496334    7.821942
     42          8           0       -6.289929   -1.647144    5.541648
     43          7           0       -4.080443   -1.098710    5.440170
     44          1           0       -3.332844   -0.469778    5.713660
     45          6           0       -3.672134   -2.237970    4.639644
     46          1           0       -3.992657   -3.161583    5.137611
     47          6           0       -2.134867   -2.201777    4.572523
     48          6           0       -4.324341   -2.223551    3.237845
     49          1           0       -4.225685   -3.224592    2.799566
     50          1           0       -5.398939   -2.091456    3.403178
     51          8           0       -1.490515   -1.361264    5.200022
     52          6           0       -3.804066   -1.214343    2.228015
     53          6           0       -2.907023   -0.181700    2.526121
     54          1           0       -2.562333   -0.017986    3.536396
     55          6           0       -4.213393   -1.347819    0.892143
     56          1           0       -4.904413   -2.144378    0.627331
     57          6           0       -2.399428    0.649802    1.524599
     58          1           0       -1.640199    1.389569    1.759382
     59          6           0       -3.749938   -0.500565   -0.109798
     60          1           0       -4.076967   -0.628806   -1.136998
     61          8           0       -2.303728    1.340498   -0.749158
     62          1           0       -2.282453    0.864280   -1.613569
     63          6           0       -2.813959    0.492568    0.202440
     64          7           0       -1.575335   -3.105905    3.737665
     65          1           0       -2.174122   -3.650882    3.125220
     66          6           0       -0.248799   -2.895640    3.172691
     67          1           0        0.090115   -1.911458    3.503748
     68          6           0       -0.432931   -2.930068    1.649175
     69          6           0        0.737956   -3.984355    3.642817
     70          1           0        0.713647   -3.978843    4.739692
     71          1           0        0.343289   -4.956381    3.320915
     72          8           0       -1.322825   -3.609026    1.133580
     73          6           0        2.193253   -3.835469    3.165186
     74          1           0        2.204840   -3.837549    2.066777
     75          6           0        2.834850   -2.526616    3.645875
     76          1           0        2.825090   -2.469901    4.741224
     77          1           0        3.876276   -2.462607    3.313408
     78          1           0        2.321883   -1.634406    3.268618
     79          6           0        3.015229   -5.040191    3.640904
     80          1           0        3.043468   -5.085639    4.736566
     81          1           0        2.589211   -5.982104    3.277579
     82          1           0        4.048809   -4.976373    3.283250
     83          7           0        0.451449   -2.204985    0.930632
     84          1           0        1.224840   -1.719981    1.374717
     85          6           0        0.591959   -2.357580   -0.503954
     86          1           0        0.397428   -3.406123   -0.761463
     87          6           0        2.052501   -2.004767   -0.822907
     88          6           0       -0.429321   -1.475964   -1.261197
     89          1           0       -1.397618   -1.682815   -0.799586
     90          1           0       -0.201652   -0.420209   -1.082894
     91          8           0        2.754119   -1.399486   -0.002706
     92          6           0       -0.510055   -1.773259   -2.760566
     93          1           0       -0.631720   -2.847596   -2.945416
     94          1           0        0.403423   -1.483225   -3.296221
     95          6           0       -1.642954   -1.072741   -3.466323
     96          8           0       -2.277836   -0.105355   -3.064448
     97          8           0       -1.894973   -1.620495   -4.659735
     98          7           0        2.492715   -2.375702   -2.036275
     99          1           0        1.911687   -2.866070   -2.706199
    100          6           0        3.801574   -1.987379   -2.528353
    101          1           0        4.040939   -1.027598   -2.078452
    102          6           0        3.677525   -1.827800   -4.048150
    103          6           0        4.861885   -3.040492   -2.123222
    104          1           0        4.644322   -3.962420   -2.675249
    105          1           0        4.694111   -3.259747   -1.061571
    106          8           0        4.624134   -1.133842   -4.657149
    107          6           0        6.319670   -2.625737   -2.342509
    108          1           0        6.455352   -2.211943   -3.343415
    109          1           0        6.948422   -3.523646   -2.298902
    110          6           0        6.872433   -1.652762   -1.286973
    111          1           0        7.844325   -1.280123   -1.624346
    112          1           0        7.038330   -2.195287   -0.350136
    113          7           0        6.059158   -0.493083   -0.922552
    114          1           0        5.370355   -0.616176   -0.189674
    115          7           0        6.089615    0.459256   -3.042584
    116          1           0        6.062240    1.367993   -3.504341
    117          1           0        5.238906   -0.639561   -4.012923
    118          7           0        5.324706    1.675249   -1.136450
    119          1           0        5.207464    2.500891   -1.707760
    120          1           0        5.664632    1.864937   -0.202051
    121          6           0        5.851112    0.562417   -1.768434
    122          8           0        2.751185   -2.347115   -4.647873
    123          1           0       -2.605173   -1.100392   -5.082153
 ---------------------------------------------------------------------

 SCF Done:  E(RB3LYP) =  -2974.33805637     A.U. after    3 cycles

 Alpha  occ. eigenvalues --  -19.29306 -19.25149 -19.24877 -19.24860 -19.22806
 Alpha  occ. eigenvalues --  -19.21706 -19.20209 -19.19379 -19.19163 -19.18754
 Alpha  occ. eigenvalues --  -19.18463 -14.57182 -14.47501 -14.45371 -14.43870
 Alpha  occ. eigenvalues --  -14.43315 -14.43099 -14.43051 -14.42888 -14.42215
 Alpha  occ. eigenvalues --  -14.37465 -10.42645 -10.41497 -10.38653 -10.37809
 Alpha  occ. eigenvalues --  -10.37184 -10.37089 -10.36816 -10.36422 -10.36030
 Alpha  occ. eigenvalues --  -10.35680 -10.33830 -10.32978 -10.31803 -10.31664
 Alpha  occ. eigenvalues --  -10.31172 -10.31128 -10.30513 -10.30072 -10.30032
 Alpha  occ. eigenvalues --  -10.29647 -10.29048 -10.29043 -10.28671 -10.28573
 Alpha  occ. eigenvalues --  -10.28547 -10.28543 -10.27606 -10.27583 -10.27528
 Alpha  occ. eigenvalues --  -10.27279 -10.27028 -10.26996 -10.26927 -10.26872
 Alpha  occ. eigenvalues --  -10.25764 -10.25282 -10.25188 -10.24984 -10.24550
 Alpha  occ. eigenvalues --  -10.23634 -10.23028  -1.20833  -1.17310  -1.14467
 Alpha  occ. eigenvalues --   -1.13661  -1.13289  -1.12154  -1.11674  -1.11464
 Alpha  occ. eigenvalues --   -1.11436  -1.10816  -1.10310  -1.06461  -1.05829
 Alpha  occ. eigenvalues --   -1.04579  -1.01800  -1.00659  -1.00264  -0.99888
 Alpha  occ. eigenvalues --   -0.99726  -0.96510  -0.96104  -0.93597  -0.92419
 Alpha  occ. eigenvalues --   -0.91459  -0.89415  -0.88201  -0.87733  -0.86412
 Alpha  occ. eigenvalues --   -0.86312  -0.84884  -0.84397  -0.83602  -0.83322
 Alpha  occ. eigenvalues --   -0.83053  -0.81819  -0.80359  -0.79287  -0.78155
 Alpha  occ. eigenvalues --   -0.75858  -0.75049  -0.74776  -0.74377  -0.73713
 Alpha  occ. eigenvalues --   -0.72514  -0.72417  -0.71427  -0.71097  -0.70321
 Alpha  occ. eigenvalues --   -0.69639  -0.69273  -0.68938  -0.68409  -0.68318
 Alpha  occ. eigenvalues --   -0.67815  -0.67670  -0.67228  -0.66326  -0.65565
 Alpha  occ. eigenvalues --   -0.65453  -0.64854  -0.64701  -0.64409  -0.63746
 Alpha  occ. eigenvalues --   -0.62958  -0.62371  -0.62183  -0.61848  -0.60946
 Alpha  occ. eigenvalues --   -0.60319  -0.59813  -0.59567  -0.58762  -0.58613
 Alpha  occ. eigenvalues --   -0.58509  -0.57813  -0.57084  -0.56840  -0.56152
 Alpha  occ. eigenvalues --   -0.55995  -0.55883  -0.55834  -0.55449  -0.55148
 Alpha  occ. eigenvalues --   -0.54909  -0.54681  -0.54374  -0.54132  -0.54060
 Alpha  occ. eigenvalues --   -0.53703  -0.53115  -0.52919  -0.52666  -0.52241
 Alpha  occ. eigenvalues --   -0.52007  -0.51888  -0.51677  -0.51608  -0.51151
 Alpha  occ. eigenvalues --   -0.51077  -0.50631  -0.50623  -0.50464  -0.50382
 Alpha  occ. eigenvalues --   -0.50168  -0.49863  -0.49534  -0.49425  -0.49240
 Alpha  occ. eigenvalues --   -0.49114  -0.48871  -0.48485  -0.48403  -0.48198
 Alpha  occ. eigenvalues --   -0.47882  -0.47644  -0.47575  -0.46962  -0.46684
 Alpha  occ. eigenvalues --   -0.46495  -0.46275  -0.46015  -0.45928  -0.45774
 Alpha  occ. eigenvalues --   -0.45519  -0.44969  -0.44938  -0.44772  -0.44497
 Alpha  occ. eigenvalues --   -0.44328  -0.44139  -0.44056  -0.43882  -0.43823
 Alpha  occ. eigenvalues --   -0.43708  -0.43616  -0.43265  -0.42849  -0.42226
 Alpha  occ. eigenvalues --   -0.42147  -0.41904  -0.41734  -0.41476  -0.40599
 Alpha  occ. eigenvalues --   -0.40037  -0.39907  -0.39407  -0.39312  -0.38837
 Alpha  occ. eigenvalues --   -0.38732  -0.38378  -0.37387  -0.36356  -0.35886
 Alpha  occ. eigenvalues --   -0.35610  -0.35388  -0.35242  -0.34742  -0.34719
 Alpha  occ. eigenvalues --   -0.34096  -0.33765  -0.33668  -0.33360  -0.33266
 Alpha  occ. eigenvalues --   -0.32802  -0.32655  -0.32341  -0.32001  -0.31611
 Alpha  occ. eigenvalues --   -0.30823  -0.30177
 Alpha virt. eigenvalues --   -0.11201  -0.10765  -0.10259  -0.09274  -0.09131
 Alpha virt. eigenvalues --   -0.08392  -0.07415  -0.06917  -0.06285  -0.05696
 Alpha virt. eigenvalues --   -0.04765  -0.04450  -0.04082  -0.03697  -0.01745

 Mulliken charges:
               1
     1  N   -0.761602
     2  H    0.428008
     3  H    0.405223
     4  H    0.398831
     5  C   -0.130401
     6  H    0.253418
     7  C    0.652723
     8  C   -0.389508
     9  H    0.184451
    10  H    0.202016
    11  O   -0.553514
    12  C    0.138977
    13  C   -0.241255
    14  H    0.138110
    15  C   -0.185579
    16  H    0.177472
    17  C   -0.120181
    18  H    0.158549
    19  C   -0.129194
    20  H    0.160441
    21  C   -0.122846
    22  H    0.161798
    23  N   -0.601164
    24  H    0.395370
    25  C   -0.067659
    26  H    0.206276
    27  C    0.627509
    28  C   -0.468081
    29  H    0.165535
    30  H    0.183924
    31  H    0.184945
    32  O   -0.536246
    33  N   -0.589823
    34  H    0.347105
    35  C   -0.060522
    36  H    0.179354
    37  C    0.620787
    38  C   -0.463605
    39  H    0.174500
    40  H    0.179114
    41  H    0.165216
    42  O   -0.538890
    43  N   -0.607528
    44  H    0.366413
    45  C   -0.046792
    46  H    0.197183
    47  C    0.603977
    48  C   -0.392589
    49  H    0.167278
    50  H    0.206306
    51  O   -0.535640
    52  C    0.161140
    53  C   -0.194833
    54  H    0.169215
    55  C   -0.176308
    56  H    0.145756
    57  C   -0.245317
    58  H    0.151968
    59  C   -0.197410
    60  H    0.144905
    61  O   -0.724808
    62  H    0.462099
    63  C    0.352604
    64  N   -0.593713
    65  H    0.357075
    66  C   -0.083458
    67  H    0.181617
    68  C    0.628295
    69  C   -0.247901
    70  H    0.160204
    71  H    0.148514
    72  O   -0.552887
    73  C   -0.091150
    74  H    0.126606
    75  C   -0.448574
    76  H    0.154929
    77  H    0.149585
    78  H    0.134182
    79  C   -0.443898
    80  H    0.149926
    81  H    0.148978
    82  H    0.145889
    83  N   -0.624274
    84  H    0.371529
    85  C   -0.051055
    86  H    0.180321
    87  C    0.623563
    88  C   -0.282509
    89  H    0.199391
    90  H    0.162852
    91  O   -0.561598
    92  C   -0.393905
    93  H    0.197301
    94  H    0.219469
    95  C    0.607103
    96  O   -0.513030
    97  O   -0.530981
    98  N   -0.610456
    99  H    0.356957
   100  C   -0.084730
   101  H    0.186298
   102  C    0.606780
   103  C   -0.268408
   104  H    0.159918
   105  H    0.153464
   106  O   -0.602207
   107  C   -0.287856
   108  H    0.174116
   109  H    0.153274
   110  C   -0.121995
   111  H    0.175690
   112  H    0.151607
   113  N   -0.603211
   114  H    0.351962
   115  N   -0.721123
   116  H    0.293177
   117  H    0.475306
   118  N   -0.749624
   119  H    0.333944
   120  H    0.342143
   121  C    0.636585
   122  O   -0.490774
   123  H    0.423571
 Sum of Mulliken charges =   1.00000

 Dipole moment (field-independent basis, Debye):
    X=            -10.7212    Y=             14.3555    Z=              2.1320  Tot=             18.0436
 Quadrupole moment (field-independent basis, Debye-Ang):
   XX=           -241.6325   YY=           -255.6420   ZZ=           -340.3219
   XY=            -61.1771   XZ=             -1.8397   YZ=             -7.6812

 Normal termination of Gaussian 16 at Sun Jul 24 01:57:29 2022.
