 Gaussian 16, Revision C.01,
 Gaussian 16:  ES64L-G16RevC.01  3-Jul-2019

 ----------------------------------------------------------------------
 # B3LYP/6-31G* empiricaldispersion=gd3bj guess=read geom=check nosymm
 integral(ultrafinegrid)
 ----------------------------------------------------------------------

 ------------------------------------------------------
 Candidate Structure: Conf:883 Charge calc in gas phase
 ------------------------------------------------------
 Structure from the checkpoint file:  "conf-883.chk"
 Charge =  1 Multiplicity = 1

                          Input orientation:
 ---------------------------------------------------------------------
 Center     Atomic      Atomic             Coordinates (Angstroms)
 Number     Number       Type             X           Y           Z
 ---------------------------------------------------------------------
      1          7           0       -3.171506   -1.326545    4.996351
      2          1           0       -2.153484   -1.198544    5.019276
      3          1           0       -3.427019   -1.454796    3.991427
      4          1           0       -3.438319   -2.169079    5.518008
      5          6           0       -3.878861   -0.127184    5.590699
      6          1           0       -3.418087    0.037834    6.565617
      7          6           0       -5.298421   -0.653592    5.883510
      8          6           0       -3.691724    1.082836    4.679278
      9          1           0       -4.214509    1.926348    5.148336
     10          1           0       -4.172391    0.892570    3.713100
     11          8           0       -5.425992   -1.460798    6.790069
     12          6           0       -2.236888    1.431300    4.416847
     13          6           0       -1.833891    1.753588    3.116651
     14          1           0       -2.558409    1.724848    2.309380
     15          6           0       -1.283539    1.462536    5.444055
     16          1           0       -1.569959    1.249311    6.471487
     17          6           0       -0.516202    2.120238    2.840568
     18          1           0       -0.252671    2.428763    1.832976
     19          6           0        0.044267    1.795050    5.168674
     20          1           0        0.771816    1.812737    5.974299
     21          6           0        0.428863    2.128462    3.868700
     22          1           0        1.457189    2.413831    3.665449
     23          7           0       -6.304813   -0.249793    5.057155
     24          1           0       -6.037244    0.318263    4.262799
     25          6           0       -7.397447   -1.186221    4.800178
     26          1           0       -7.611642   -1.673258    5.756148
     27          6           0       -6.818301   -2.279854    3.864669
     28          6           0       -8.638053   -0.456107    4.291794
     29          1           0       -9.494829   -1.133552    4.217454
     30          1           0       -8.468924    0.000450    3.309441
     31          1           0       -8.910979    0.333943    4.995359
     32          8           0       -5.628576   -2.613465    3.979156
     33          7           0       -7.632104   -2.821181    2.942773
     34          1           0       -8.573245   -2.467248    2.839895
     35          6           0       -7.200236   -3.860895    1.989935
     36          1           0       -6.513505   -4.512939    2.538844
     37          6           0       -6.423333   -3.202102    0.818979
     38          6           0       -8.405479   -4.640871    1.487908
     39          1           0       -8.079157   -5.428144    0.805149
     40          1           0       -9.083114   -3.990676    0.926170
     41          1           0       -8.941520   -5.098540    2.324360
     42          8           0       -6.851039   -3.179220   -0.327659
     43          7           0       -5.241580   -2.651903    1.202491
     44          1           0       -5.020158   -2.637797    2.195564
     45          6           0       -4.442046   -1.821575    0.325798
     46          1           0       -4.205470   -2.381195   -0.584988
     47          6           0       -3.161280   -1.481216    1.084242
     48          6           0       -5.174300   -0.513248   -0.085765
     49          1           0       -6.090575   -0.816476   -0.599122
     50          1           0       -5.456747    0.016116    0.831399
     51          8           0       -3.205400   -1.188895    2.296870
     52          6           0       -4.303261    0.355738   -0.953927
     53          6           0       -3.678385    1.494567   -0.432547
     54          1           0       -3.905077    1.806182    0.583811
     55          6           0       -4.017540   -0.008755   -2.274631
     56          1           0       -4.503752   -0.877589   -2.711716
     57          6           0       -2.787376    2.250576   -1.185732
     58          1           0       -2.285939    3.117158   -0.774331
     59          6           0       -3.119477    0.730084   -3.044042
     60          1           0       -2.906727    0.435494   -4.069419
     61          8           0       -1.604166    2.620481   -3.204499
     62          1           0       -1.535944    2.284488   -4.112116
     63          6           0       -2.502886    1.852120   -2.491563
     64          7           0       -2.030678   -1.492377    0.379247
     65          1           0       -2.060995   -1.588084   -0.633220
     66          6           0       -0.721662   -1.112797    0.892773
     67          1           0       -0.857328   -0.354989    1.667842
     68          6           0        0.060973   -0.525581   -0.286415
     69          6           0        0.056596   -2.335968    1.438612
     70          1           0       -0.050511   -3.140535    0.702435
     71          1           0        1.126787   -2.101879    1.459322
     72          8           0       -0.276597   -0.763649   -1.448772
     73          6           0       -0.374588   -2.829306    2.828510
     74          1           0       -1.463074   -2.972877    2.824489
     75          6           0        0.289097   -4.179706    3.125171
     76          1           0        1.381795   -4.088649    3.111853
     77          1           0       -0.000981   -4.556422    4.112511
     78          1           0        0.006695   -4.932438    2.381255
     79          6           0       -0.016551   -1.802739    3.911366
     80          1           0        1.064373   -1.620375    3.937036
     81          1           0       -0.500853   -0.833975    3.748241
     82          1           0       -0.284943   -2.175316    4.910292
     83          7           0        1.140325    0.215110    0.063040
     84          1           0        1.371325    0.237711    1.049540
     85          6           0        2.252014    0.421051   -0.866501
     86          1           0        1.785364    0.528639   -1.848440
     87          6           0        3.096558   -0.872560   -0.882657
     88          6           0        3.052567    1.695049   -0.540484
     89          1           0        3.821885    1.483724    0.210696
     90          1           0        3.587505    1.984538   -1.449497
     91          8           0        2.493803   -1.976636   -0.763740
     92          6           0        2.206449    2.874635   -0.038884
     93          1           0        2.792277    3.796065   -0.146772
     94          1           0        1.986742    2.780761    1.027651
     95          6           0        0.879750    3.089336   -0.730152
     96          8           0       -0.128302    3.455077   -0.151684
     97          8           0        0.924683    2.848186   -2.048130
     98          7           0        4.404256   -0.761276   -1.044550
     99          1           0        4.856033    0.157521   -0.809196
    100          6           0        5.379258   -1.729385   -0.515278
    101          1           0        4.852125   -2.461063    0.105174
    102          6           0        6.301439   -0.829917    0.442214
    103          6           0        6.265985   -2.446817   -1.537658
    104          1           0        7.175541   -2.680221   -0.974751
    105          1           0        6.555425   -1.744491   -2.331150
    106          8           0        6.022459    0.407474    0.398330
    107          6           0        5.765135   -3.765563   -2.152125
    108          1           0        5.304571   -4.393289   -1.377318
    109          1           0        6.635547   -4.325845   -2.513507
    110          6           0        4.814377   -3.668099   -3.346685
    111          1           0        4.725619   -4.655740   -3.819638
    112          1           0        5.228616   -2.969835   -4.087798
    113          7           0        3.481948   -3.212566   -2.946557
    114          1           0        3.296527   -2.973076   -1.958186
    115          7           0        2.611739   -3.210347   -5.104275
    116          1           0        2.022157   -2.738811   -5.773519
    117          1           0        3.478335   -3.585193   -5.459100
    118          7           0        1.397572   -2.298375   -3.345804
    119          1           0        0.567995   -2.248699   -3.915888
    120          1           0        1.313663   -2.047597   -2.358711
    121          6           0        2.507766   -2.905675   -3.789092
    122          8           0        7.157621   -1.453371    1.072298
    123          1           0        0.011600    2.939326   -2.415191
 ---------------------------------------------------------------------

 SCF Done:  E(RB3LYP) =  -2974.31970070     A.U. after    2 cycles

 Alpha  occ. eigenvalues --  -19.28222 -19.25856 -19.24009 -19.23935 -19.23705
 Alpha  occ. eigenvalues --  -19.22272 -19.20852 -19.20658 -19.20287 -19.10439
 Alpha  occ. eigenvalues --  -19.09112 -14.56111 -14.48693 -14.48446 -14.48098
 Alpha  occ. eigenvalues --  -14.47241 -14.46692 -14.46396 -14.45874 -14.44482
 Alpha  occ. eigenvalues --  -14.41201 -10.43786 -10.41293 -10.40889 -10.40594
 Alpha  occ. eigenvalues --  -10.39201 -10.39148 -10.37959 -10.37700 -10.36216
 Alpha  occ. eigenvalues --  -10.35288 -10.33862 -10.33535 -10.33502 -10.33296
 Alpha  occ. eigenvalues --  -10.32237 -10.31901 -10.31645 -10.30437 -10.29923
 Alpha  occ. eigenvalues --  -10.29178 -10.28659 -10.28618 -10.28542 -10.28354
 Alpha  occ. eigenvalues --  -10.28339 -10.28144 -10.28111 -10.28018 -10.27997
 Alpha  occ. eigenvalues --  -10.27901 -10.27846 -10.27805 -10.27399 -10.27361
 Alpha  occ. eigenvalues --  -10.27092 -10.26819 -10.26620 -10.26029 -10.25634
 Alpha  occ. eigenvalues --  -10.25619 -10.23285  -1.17253  -1.16805  -1.15566
 Alpha  occ. eigenvalues --   -1.15524  -1.15350  -1.14019  -1.12699  -1.12470
 Alpha  occ. eigenvalues --   -1.11089  -1.10952  -1.08176  -1.04896  -1.04353
 Alpha  occ. eigenvalues --   -1.03833  -1.03527  -1.02498  -1.01714  -1.01623
 Alpha  occ. eigenvalues --   -1.00738  -0.98282  -0.95956  -0.94612  -0.94532
 Alpha  occ. eigenvalues --   -0.91645  -0.91116  -0.89494  -0.88400  -0.88117
 Alpha  occ. eigenvalues --   -0.86660  -0.86061  -0.85222  -0.84402  -0.84055
 Alpha  occ. eigenvalues --   -0.83671  -0.82334  -0.81484  -0.79513  -0.78363
 Alpha  occ. eigenvalues --   -0.77807  -0.77086  -0.76409  -0.75559  -0.75209
 Alpha  occ. eigenvalues --   -0.73609  -0.72949  -0.72097  -0.71652  -0.71259
 Alpha  occ. eigenvalues --   -0.70896  -0.70692  -0.70383  -0.69712  -0.69593
 Alpha  occ. eigenvalues --   -0.69235  -0.68641  -0.68292  -0.67789  -0.67625
 Alpha  occ. eigenvalues --   -0.67275  -0.66731  -0.66149  -0.65365  -0.65003
 Alpha  occ. eigenvalues --   -0.63829  -0.63634  -0.62849  -0.62509  -0.61616
 Alpha  occ. eigenvalues --   -0.61237  -0.60821  -0.60437  -0.59926  -0.59732
 Alpha  occ. eigenvalues --   -0.59250  -0.59030  -0.58509  -0.57913  -0.57547
 Alpha  occ. eigenvalues --   -0.57026  -0.56894  -0.56755  -0.56095  -0.55945
 Alpha  occ. eigenvalues --   -0.55772  -0.55642  -0.55402  -0.55063  -0.54578
 Alpha  occ. eigenvalues --   -0.54234  -0.53927  -0.53812  -0.53512  -0.53355
 Alpha  occ. eigenvalues --   -0.53254  -0.53065  -0.52940  -0.52600  -0.52286
 Alpha  occ. eigenvalues --   -0.52057  -0.51693  -0.51594  -0.51451  -0.51332
 Alpha  occ. eigenvalues --   -0.51037  -0.50848  -0.50569  -0.50224  -0.50166
 Alpha  occ. eigenvalues --   -0.50078  -0.49731  -0.49566  -0.49189  -0.49014
 Alpha  occ. eigenvalues --   -0.48723  -0.48638  -0.48449  -0.48203  -0.47625
 Alpha  occ. eigenvalues --   -0.47478  -0.47193  -0.47141  -0.47031  -0.46832
 Alpha  occ. eigenvalues --   -0.46558  -0.46369  -0.46206  -0.45933  -0.45349
 Alpha  occ. eigenvalues --   -0.45120  -0.44791  -0.44646  -0.44371  -0.44293
 Alpha  occ. eigenvalues --   -0.44175  -0.43427  -0.42997  -0.42716  -0.42513
 Alpha  occ. eigenvalues --   -0.42325  -0.42031  -0.41926  -0.41748  -0.41115
 Alpha  occ. eigenvalues --   -0.40595  -0.39461  -0.39400  -0.39327  -0.39222
 Alpha  occ. eigenvalues --   -0.38983  -0.38604  -0.38234  -0.37825  -0.37459
 Alpha  occ. eigenvalues --   -0.37333  -0.36709  -0.36326  -0.36156  -0.35699
 Alpha  occ. eigenvalues --   -0.34828  -0.34674  -0.34446  -0.34444  -0.34083
 Alpha  occ. eigenvalues --   -0.33868  -0.33657  -0.32924  -0.30884  -0.25356
 Alpha  occ. eigenvalues --   -0.25344  -0.23119
 Alpha virt. eigenvalues --   -0.12532  -0.10635  -0.10334  -0.09896  -0.09531
 Alpha virt. eigenvalues --   -0.09234  -0.08822  -0.08127  -0.08029  -0.06535
 Alpha virt. eigenvalues --   -0.06302  -0.05828  -0.05462  -0.04754  -0.04362

 Mulliken charges:
               1
     1  N   -0.778340
     2  H    0.412566
     3  H    0.469176
     4  H    0.415541
     5  C   -0.113980
     6  H    0.219244
     7  C    0.629668
     8  C   -0.380336
     9  H    0.204193
    10  H    0.168238
    11  O   -0.492276
    12  C    0.141923
    13  C   -0.187182
    14  H    0.143516
    15  C   -0.209157
    16  H    0.139170
    17  C   -0.170838
    18  H    0.206134
    19  C   -0.124013
    20  H    0.162098
    21  C   -0.149669
    22  H    0.159700
    23  N   -0.578035
    24  H    0.340583
    25  C   -0.080927
    26  H    0.232172
    27  C    0.639769
    28  C   -0.494584
    29  H    0.175617
    30  H    0.163878
    31  H    0.202090
    32  O   -0.573100
    33  N   -0.597825
    34  H    0.354117
    35  C   -0.069996
    36  H    0.192849
    37  C    0.623627
    38  C   -0.467824
    39  H    0.190787
    40  H    0.174680
    41  H    0.164671
    42  O   -0.512821
    43  N   -0.661665
    44  H    0.388879
    45  C    0.001453
    46  H    0.172081
    47  C    0.635189
    48  C   -0.366107
    49  H    0.202610
    50  H    0.130261
    51  O   -0.622896
    52  C    0.163624
    53  C   -0.207775
    54  H    0.131847
    55  C   -0.214771
    56  H    0.149383
    57  C   -0.158292
    58  H    0.196093
    59  C   -0.165004
    60  H    0.129058
    61  O   -0.670844
    62  H    0.423451
    63  C    0.345742
    64  N   -0.584550
    65  H    0.366836
    66  C   -0.101694
    67  H    0.193595
    68  C    0.657362
    69  C   -0.255844
    70  H    0.153712
    71  H    0.171111
    72  O   -0.568796
    73  C   -0.074275
    74  H    0.118624
    75  C   -0.446436
    76  H    0.163261
    77  H    0.145966
    78  H    0.153141
    79  C   -0.497922
    80  H    0.171844
    81  H    0.163057
    82  H    0.132586
    83  N   -0.595179
    84  H    0.341025
    85  C   -0.069757
    86  H    0.204846
    87  C    0.598717
    88  C   -0.336474
    89  H    0.215613
    90  H    0.180709
    91  O   -0.619830
    92  C   -0.369934
    93  H    0.203532
    94  H    0.166096
    95  C    0.609662
    96  O   -0.483276
    97  O   -0.597960
    98  N   -0.583069
    99  H    0.388242
   100  C   -0.108377
   101  H    0.147810
   102  C    0.587130
   103  C   -0.266086
   104  H    0.201638
   105  H    0.135343
   106  O   -0.612850
   107  C   -0.310715
   108  H    0.158933
   109  H    0.164881
   110  C   -0.149425
   111  H    0.163915
   112  H    0.165410
   113  N   -0.618113
   114  H    0.419538
   115  N   -0.766019
   116  H    0.364006
   117  H    0.379710
   118  N   -0.810318
   119  H    0.352094
   120  H    0.434235
   121  C    0.801431
   122  O   -0.549156
   123  H    0.453024
 Sum of Mulliken charges =   1.00000

 Dipole moment (field-independent basis, Debye):
    X=            -21.9312    Y=             -8.6760    Z=             -0.5512  Tot=             23.5914
 Quadrupole moment (field-independent basis, Debye-Ang):
   XX=           -316.2821   YY=           -328.4842   ZZ=           -225.3544
   XY=              4.8176   XZ=           -111.4397   YZ=             23.6617

 Normal termination of Gaussian 16 at Sun Jul 24 01:57:16 2022.
