 Gaussian 16, Revision C.01,
 Gaussian 16:  ES64L-G16RevC.01  3-Jul-2019

 ----------------------------------------------------------------------
 # B3LYP/6-31G* empiricaldispersion=gd3bj guess=read geom=check nosymm
 integral(ultrafinegrid)
 ----------------------------------------------------------------------

 ------------------------------------------------------
 Candidate Structure: Conf:367 Charge calc in gas phase
 ------------------------------------------------------
 Structure from the checkpoint file:  "conf-367.chk"
 Charge =  1 Multiplicity = 1

                          Input orientation:
 ---------------------------------------------------------------------
 Center     Atomic      Atomic             Coordinates (Angstroms)
 Number     Number       Type             X           Y           Z
 ---------------------------------------------------------------------
      1          7           0      -11.795142    3.142267    2.043782
      2          1           0      -11.949314    2.765944    1.104305
      3          1           0      -12.516678    3.839610    2.242955
      4          1           0      -11.817089    2.336014    2.744847
      5          6           0      -10.384247    3.660206    2.246413
      6          1           0       -9.936043    3.890801    1.279207
      7          6           0       -9.705089    2.443932    2.927838
      8          6           0      -10.426442    4.910563    3.157903
      9          1           0      -10.703590    4.597471    4.171350
     10          1           0      -11.220128    5.573231    2.788649
     11          8           0      -10.461058    1.616119    3.473344
     12          6           0       -9.119359    5.670318    3.160186
     13          6           0       -8.093434    5.344463    4.051675
     14          1           0       -8.243016    4.561344    4.787888
     15          6           0       -8.906901    6.684394    2.215059
     16          1           0       -9.701651    6.955589    1.524119
     17          6           0       -6.863352    5.998514    3.984836
     18          1           0       -6.066994    5.709391    4.661206
     19          6           0       -7.680836    7.348389    2.153074
     20          1           0       -7.529797    8.137436    1.422782
     21          6           0       -6.654150    6.999927    3.037101
     22          1           0       -5.698711    7.513109    2.988585
     23          7           0       -8.387022    2.391153    2.898676
     24          1           0       -7.854593    3.114459    2.408291
     25          6           0       -7.619717    1.314636    3.524224
     26          1           0       -8.042936    1.130302    4.518342
     27          6           0       -6.183702    1.853739    3.668219
     28          6           0       -7.698402    0.030248    2.683277
     29          1           0       -7.242771   -0.814272    3.207988
     30          1           0       -7.170710    0.159388    1.736291
     31          1           0       -8.747172   -0.221300    2.507119
     32          8           0       -5.917049    3.009815    3.355844
     33          7           0       -5.265210    0.978335    4.162460
     34          1           0       -5.542877    0.004481    4.135739
     35          6           0       -3.862244    1.173956    3.803995
     36          1           0       -3.655926    2.243135    3.885497
     37          6           0       -3.691290    0.735194    2.331128
     38          6           0       -2.949144    0.374142    4.735835
     39          1           0       -1.898196    0.527703    4.473903
     40          1           0       -3.157788   -0.698974    4.655975
     41          1           0       -3.098796    0.682985    5.774008
     42          8           0       -4.541619    0.037254    1.780773
     43          7           0       -2.566485    1.163418    1.720468
     44          1           0       -1.809061    1.603977    2.232320
     45          6           0       -2.239456    0.784406    0.361536
     46          1           0       -2.798571   -0.126137    0.131819
     47          6           0       -0.726099    0.543803    0.313585
     48          6           0       -2.612606    1.896307   -0.667741
     49          1           0       -1.829974    2.662669   -0.641525
     50          1           0       -2.591935    1.454249   -1.670598
     51          8           0        0.015347    1.046391    1.160447
     52          6           0       -3.945966    2.540424   -0.377531
     53          6           0       -5.155910    1.887283   -0.639869
     54          1           0       -5.147252    0.906754   -1.106138
     55          6           0       -3.993368    3.795214    0.237141
     56          1           0       -3.065726    4.317859    0.453932
     57          6           0       -6.375844    2.460463   -0.287723
     58          1           0       -7.312957    1.950710   -0.489148
     59          6           0       -5.202420    4.382555    0.598260
     60          1           0       -5.221439    5.340876    1.109034
     61          8           0       -7.614616    4.213616    0.745993
     62          1           0       -7.483887    5.116143    1.087419
     63          6           0       -6.389498    3.703561    0.341671
     64          7           0       -0.291902   -0.175656   -0.736743
     65          1           0       -0.928987   -0.596595   -1.405566
     66          6           0        1.115492   -0.411730   -1.015791
     67          1           0        1.667427    0.504297   -0.788201
     68          6           0        1.190380   -0.744683   -2.508274
     69          6           0        1.656902   -1.580361   -0.156859
     70          1           0        1.454988   -1.317341    0.888425
     71          1           0        1.052415   -2.465198   -0.392912
     72          8           0        0.235232   -1.270122   -3.081438
     73          6           0        3.149761   -1.916421   -0.318687
     74          1           0        3.348070   -2.151583   -1.371267
     75          6           0        4.061543   -0.750021    0.083127
     76          1           0        3.903136   -0.477921    1.133899
     77          1           0        5.113992   -1.022036   -0.046557
     78          1           0        3.890821    0.151019   -0.516549
     79          6           0        3.488911   -3.166783    0.502723
     80          1           0        3.321444   -2.991807    1.572808
     81          1           0        2.872953   -4.021994    0.201872
     82          1           0        4.540940   -3.445418    0.371596
     83          7           0        2.358740   -0.441920   -3.119460
     84          1           0        3.159134   -0.157864   -2.561478
     85          6           0        2.735462   -1.022640   -4.398255
     86          1           0        2.062353   -1.863742   -4.593534
     87          6           0        4.178875   -1.520091   -4.231887
     88          6           0        2.639616   -0.011897   -5.557283
     89          1           0        3.348583    0.803782   -5.383670
     90          1           0        2.945124   -0.508569   -6.486059
     91          8           0        4.887744   -1.094277   -3.312533
     92          6           0        1.220392    0.550790   -5.701851
     93          1           0        0.954154    1.087249   -4.782772
     94          1           0        0.484095   -0.245001   -5.832293
     95          6           0        1.062739    1.514522   -6.855523
     96          8           0        0.142332    1.528073   -7.640364
     97          8           0        2.081453    2.411600   -6.910302
     98          7           0        4.597855   -2.422360   -5.136888
     99          1           0        4.041058   -2.657968   -5.953393
    100          6           0        5.983871   -2.850664   -5.214623
    101          1           0        6.595454   -2.057420   -4.787625
    102          6           0        6.337093   -3.024347   -6.699093
    103          6           0        6.224205   -4.173605   -4.453099
    104          1           0        7.162200   -4.616452   -4.802706
    105          1           0        5.431311   -4.871121   -4.746034
    106          8           0        7.627972   -3.029791   -6.996898
    107          6           0        6.248410   -4.036591   -2.923600
    108          1           0        6.322505   -5.042677   -2.488836
    109          1           0        5.304777   -3.607763   -2.568690
    110          6           0        7.394838   -3.169908   -2.375655
    111          1           0        7.348795   -3.145707   -1.282588
    112          1           0        7.272136   -2.135635   -2.703257
    113          7           0        8.728338   -3.645357   -2.747162
    114          1           0        9.060514   -4.463039   -2.251941
    115          7           0        9.061004   -2.427344   -4.771320
    116          1           0        8.214266   -2.768957   -6.207023
    117          1           0        8.659258   -1.651443   -4.247665
    118          7           0       10.055378   -4.485075   -4.454982
    119          1           0       10.444655   -4.330080   -5.376165
    120          1           0        9.770867   -5.438038   -4.269420
    121          6           0        9.246578   -3.465222   -4.007817
    122          8           0        5.461121   -3.190199   -7.526622
    123          1           0        1.892131    2.987787   -7.674773
 ---------------------------------------------------------------------

 SCF Done:  E(RB3LYP) =  -2974.31327062     A.U. after    1 cycles

 Alpha  occ. eigenvalues --  -19.26968 -19.25762 -19.23712 -19.21376 -19.20836
 Alpha  occ. eigenvalues --  -19.18729 -19.18275 -19.18187 -19.18163 -19.17871
 Alpha  occ. eigenvalues --  -19.16800 -14.59295 -14.48029 -14.44347 -14.42852
 Alpha  occ. eigenvalues --  -14.42363 -14.42029 -14.42022 -14.41574 -14.40927
 Alpha  occ. eigenvalues --  -14.35228 -10.42290 -10.39677 -10.38193 -10.36172
 Alpha  occ. eigenvalues --  -10.35765 -10.35283 -10.35260 -10.35235 -10.35162
 Alpha  occ. eigenvalues --  -10.35089 -10.33831 -10.33773 -10.32294 -10.31189
 Alpha  occ. eigenvalues --  -10.31161 -10.30193 -10.29881 -10.29488 -10.29482
 Alpha  occ. eigenvalues --  -10.29423 -10.29409 -10.29157 -10.28977 -10.28556
 Alpha  occ. eigenvalues --  -10.27994 -10.27058 -10.26336 -10.26266 -10.26060
 Alpha  occ. eigenvalues --  -10.26038 -10.26012 -10.25983 -10.25964 -10.25139
 Alpha  occ. eigenvalues --  -10.24825 -10.24616 -10.24456 -10.24272 -10.24165
 Alpha  occ. eigenvalues --  -10.22538 -10.22477  -1.18330  -1.14493  -1.14357
 Alpha  occ. eigenvalues --   -1.13546  -1.12898  -1.12480  -1.10957  -1.10581
 Alpha  occ. eigenvalues --   -1.09995  -1.09477  -1.05430  -1.05007  -1.04680
 Alpha  occ. eigenvalues --   -1.04284  -1.01297  -0.99618  -0.99130  -0.98900
 Alpha  occ. eigenvalues --   -0.98598  -0.96982  -0.95228  -0.92590  -0.92537
 Alpha  occ. eigenvalues --   -0.90626  -0.88307  -0.87408  -0.86284  -0.85921
 Alpha  occ. eigenvalues --   -0.85162  -0.84971  -0.84945  -0.83631  -0.82037
 Alpha  occ. eigenvalues --   -0.81774  -0.80387  -0.79558  -0.79134  -0.77525
 Alpha  occ. eigenvalues --   -0.75950  -0.73962  -0.73468  -0.73397  -0.73118
 Alpha  occ. eigenvalues --   -0.72779  -0.72497  -0.71431  -0.71030  -0.70163
 Alpha  occ. eigenvalues --   -0.69454  -0.68937  -0.68636  -0.67678  -0.66872
 Alpha  occ. eigenvalues --   -0.66197  -0.66107  -0.65554  -0.65138  -0.64860
 Alpha  occ. eigenvalues --   -0.64738  -0.64058  -0.63908  -0.63557  -0.62786
 Alpha  occ. eigenvalues --   -0.62327  -0.61971  -0.61671  -0.61587  -0.61235
 Alpha  occ. eigenvalues --   -0.60269  -0.58829  -0.58784  -0.57725  -0.57499
 Alpha  occ. eigenvalues --   -0.56715  -0.56375  -0.56089  -0.55917  -0.55395
 Alpha  occ. eigenvalues --   -0.55165  -0.54952  -0.54569  -0.54302  -0.54005
 Alpha  occ. eigenvalues --   -0.53908  -0.53850  -0.53489  -0.52867  -0.52662
 Alpha  occ. eigenvalues --   -0.52499  -0.52312  -0.52043  -0.51735  -0.51449
 Alpha  occ. eigenvalues --   -0.51387  -0.51267  -0.50754  -0.50706  -0.50573
 Alpha  occ. eigenvalues --   -0.50274  -0.49827  -0.49667  -0.49562  -0.49532
 Alpha  occ. eigenvalues --   -0.49458  -0.49051  -0.48772  -0.48656  -0.48373
 Alpha  occ. eigenvalues --   -0.48288  -0.47854  -0.47509  -0.47467  -0.47246
 Alpha  occ. eigenvalues --   -0.47148  -0.46682  -0.46556  -0.46222  -0.46024
 Alpha  occ. eigenvalues --   -0.45741  -0.45427  -0.45305  -0.45093  -0.44916
 Alpha  occ. eigenvalues --   -0.44679  -0.44502  -0.44187  -0.44103  -0.43833
 Alpha  occ. eigenvalues --   -0.43487  -0.43343  -0.43274  -0.42720  -0.42527
 Alpha  occ. eigenvalues --   -0.42221  -0.41906  -0.41729  -0.41431  -0.41233
 Alpha  occ. eigenvalues --   -0.41059  -0.40937  -0.40567  -0.40135  -0.40029
 Alpha  occ. eigenvalues --   -0.39707  -0.39318  -0.38723  -0.38186  -0.37998
 Alpha  occ. eigenvalues --   -0.37765  -0.35890  -0.35844  -0.35559  -0.35369
 Alpha  occ. eigenvalues --   -0.34449  -0.34056  -0.33928  -0.33424  -0.33182
 Alpha  occ. eigenvalues --   -0.32911  -0.32697  -0.32175  -0.32049  -0.31789
 Alpha  occ. eigenvalues --   -0.31621  -0.31513  -0.31079  -0.30794  -0.30291
 Alpha  occ. eigenvalues --   -0.29311  -0.29042
 Alpha virt. eigenvalues --   -0.11901  -0.11154  -0.10731  -0.10270  -0.07779
 Alpha virt. eigenvalues --   -0.07034  -0.06585  -0.05690  -0.04786  -0.04557
 Alpha virt. eigenvalues --   -0.04062  -0.03059  -0.02852  -0.02613  -0.02013

 Mulliken charges:
               1
     1  N   -0.756903
     2  H    0.415959
     3  H    0.408226
     4  H    0.431846
     5  C   -0.114462
     6  H    0.238800
     7  C    0.638194
     8  C   -0.386943
     9  H    0.195444
    10  H    0.171334
    11  O   -0.559013
    12  C    0.158377
    13  C   -0.170093
    14  H    0.147399
    15  C   -0.207399
    16  H    0.140189
    17  C   -0.096457
    18  H    0.168195
    19  C   -0.156446
    20  H    0.165350
    21  C   -0.136682
    22  H    0.164262
    23  N   -0.617873
    24  H    0.434613
    25  C   -0.071570
    26  H    0.198283
    27  C    0.628441
    28  C   -0.463853
    29  H    0.164772
    30  H    0.204448
    31  H    0.171889
    32  O   -0.527772
    33  N   -0.574438
    34  H    0.339177
    35  C   -0.087130
    36  H    0.191527
    37  C    0.639539
    38  C   -0.461340
    39  H    0.174809
    40  H    0.162585
    41  H    0.177192
    42  O   -0.547247
    43  N   -0.606523
    44  H    0.351428
    45  C   -0.048342
    46  H    0.183687
    47  C    0.626469
    48  C   -0.371531
    49  H    0.162567
    50  H    0.164408
    51  O   -0.549643
    52  C    0.184545
    53  C   -0.156929
    54  H    0.141285
    55  C   -0.195140
    56  H    0.136326
    57  C   -0.167737
    58  H    0.122089
    59  C   -0.162358
    60  H    0.130846
    61  O   -0.713199
    62  H    0.435709
    63  C    0.341821
    64  N   -0.619813
    65  H    0.354566
    66  C   -0.049606
    67  H    0.177493
    68  C    0.605252
    69  C   -0.254958
    70  H    0.164128
    71  H    0.144158
    72  O   -0.543449
    73  C   -0.100230
    74  H    0.139442
    75  C   -0.444302
    76  H    0.149757
    77  H    0.153957
    78  H    0.137223
    79  C   -0.445428
    80  H    0.146019
    81  H    0.144810
    82  H    0.141713
    83  N   -0.610237
    84  H    0.369720
    85  C   -0.074413
    86  H    0.186665
    87  C    0.630245
    88  C   -0.273552
    89  H    0.176913
    90  H    0.163864
    91  O   -0.557749
    92  C   -0.341238
    93  H    0.180137
    94  H    0.190618
    95  C    0.567346
    96  O   -0.456034
    97  O   -0.563406
    98  N   -0.603562
    99  H    0.357657
   100  C   -0.072583
   101  H    0.168090
   102  C    0.600921
   103  C   -0.268693
   104  H    0.146868
   105  H    0.159875
   106  O   -0.602996
   107  C   -0.266207
   108  H    0.133643
   109  H    0.168377
   110  C   -0.172943
   111  H    0.161291
   112  H    0.185721
   113  N   -0.575534
   114  H    0.325754
   115  N   -0.734176
   116  H    0.463233
   117  H    0.302764
   118  N   -0.737996
   119  H    0.357841
   120  H    0.331048
   121  C    0.644102
   122  O   -0.480068
   123  H    0.412949
 Sum of Mulliken charges =   1.00000

 Dipole moment (field-independent basis, Debye):
    X=            -33.2535    Y=             10.7514    Z=             12.1609  Tot=             37.0037
 Quadrupole moment (field-independent basis, Debye-Ang):
   XX=            133.6733   YY=           -249.2783   ZZ=           -380.5763
   XY=           -199.9143   XZ=            -88.2244   YZ=             29.7473

 Normal termination of Gaussian 16 at Sun Jul 24 01:56:17 2022.
