 Gaussian 16, Revision C.01,
 Gaussian 16:  ES64L-G16RevC.01  3-Jul-2019

 ----------------------------------------------------------------------
 # B3LYP/6-31G* empiricaldispersion=gd3bj guess=read geom=check nosymm
 integral(ultrafinegrid)
 ----------------------------------------------------------------------

 ------------------------------------------------------
 Candidate Structure: Conf:197 Charge calc in gas phase
 ------------------------------------------------------
 Structure from the checkpoint file:  "conf-197.chk"
 Charge =  1 Multiplicity = 1

                          Input orientation:
 ---------------------------------------------------------------------
 Center     Atomic      Atomic             Coordinates (Angstroms)
 Number     Number       Type             X           Y           Z
 ---------------------------------------------------------------------
      1          7           0       -9.519360    4.744564    3.550645
      2          1           0      -10.180615    3.919419    3.462635
      3          1           0       -9.735943    5.488760    2.885624
      4          1           0       -9.588748    5.105015    4.516490
      5          6           0       -8.172034    4.098088    3.339267
      6          1           0       -7.862004    4.272678    2.305584
      7          6           0       -8.504464    2.591965    3.484681
      8          6           0       -7.131523    4.659094    4.330092
      9          1           0       -6.927404    5.701941    4.061175
     10          1           0       -6.195327    4.116068    4.176511
     11          8           0       -9.700966    2.260512    3.516343
     12          6           0       -7.589402    4.554835    5.765840
     13          6           0       -8.302150    5.612563    6.353154
     14          1           0       -8.409345    6.555988    5.817970
     15          6           0       -7.372758    3.384960    6.507325
     16          1           0       -6.794587    2.571941    6.077552
     17          6           0       -8.812142    5.495617    7.649251
     18          1           0       -9.351619    6.325408    8.095298
     19          6           0       -7.875517    3.274602    7.802522
     20          1           0       -7.692453    2.369231    8.373105
     21          6           0       -8.604111    4.322116    8.371943
     22          1           0       -8.992718    4.229000    9.381122
     23          7           0       -7.475767    1.764084    3.548351
     24          1           0       -6.513632    2.095970    3.557001
     25          6           0       -7.587147    0.325441    3.748018
     26          1           0       -8.375709    0.141422    4.486721
     27          6           0       -6.218722   -0.081735    4.327873
     28          6           0       -7.919140   -0.399397    2.434840
     29          1           0       -8.126389   -1.459432    2.610010
     30          1           0       -7.084377   -0.327155    1.733980
     31          1           0       -8.818759    0.044808    2.000962
     32          8           0       -5.364537    0.774659    4.559321
     33          7           0       -6.012940   -1.405514    4.542323
     34          1           0       -6.660262   -2.029682    4.075867
     35          6           0       -4.627949   -1.881381    4.521715
     36          1           0       -4.060690   -1.271392    5.227747
     37          6           0       -4.098080   -1.668051    3.087591
     38          6           0       -4.566331   -3.358510    4.909044
     39          1           0       -3.529398   -3.706656    4.910491
     40          1           0       -5.123605   -3.967687    4.188420
     41          1           0       -4.987798   -3.513067    5.906378
     42          8           0       -4.860267   -1.760526    2.126701
     43          7           0       -2.782493   -1.391524    2.980848
     44          1           0       -2.160778   -1.426025    3.781740
     45          6           0       -2.126519   -1.251747    1.697909
     46          1           0       -2.733923   -1.769527    0.951999
     47          6           0       -0.737221   -1.889632    1.813876
     48          6           0       -1.961206    0.232074    1.285743
     49          1           0       -1.331721    0.725207    2.034881
     50          1           0       -1.412121    0.241840    0.339188
     51          8           0       -0.168333   -1.982808    2.900735
     52          6           0       -3.259789    0.984588    1.124439
     53          6           0       -3.578678    2.059782    1.956526
     54          1           0       -2.894640    2.343007    2.750975
     55          6           0       -4.164421    0.642200    0.111085
     56          1           0       -3.936557   -0.187294   -0.551683
     57          6           0       -4.751434    2.794269    1.776840
     58          1           0       -4.954979    3.669957    2.385810
     59          6           0       -5.351343    1.347800   -0.064704
     60          1           0       -6.044401    1.063079   -0.853762
     61          8           0       -6.802735    3.167239    0.635397
     62          1           0       -7.273939    2.858851   -0.154566
     63          6           0       -5.641781    2.431616    0.768249
     64          7           0       -0.196762   -2.262548    0.633728
     65          1           0       -0.741970   -2.129174   -0.215173
     66          6           0        1.172337   -2.775335    0.526399
     67          1           0        1.789374   -2.174113    1.203829
     68          6           0        1.606822   -2.515885   -0.921672
     69          6           0        1.275769   -4.251595    0.917402
     70          1           0        0.791542   -4.358396    1.894773
     71          1           0        0.698735   -4.836948    0.193340
     72          8           0        1.796851   -3.435859   -1.726366
     73          6           0        2.711527   -4.800734    1.001694
     74          1           0        3.186036   -4.658364    0.022199
     75          6           0        3.553702   -4.074059    2.059340
     76          1           0        3.072234   -4.124056    3.043744
     77          1           0        4.544687   -4.533048    2.147248
     78          1           0        3.708449   -3.016964    1.817060
     79          6           0        2.665719   -6.306330    1.291275
     80          1           0        2.194709   -6.502660    2.262596
     81          1           0        2.089631   -6.842996    0.528008
     82          1           0        3.674272   -6.734210    1.320496
     83          7           0        1.644469   -1.218140   -1.282448
     84          1           0        1.652751   -0.508710   -0.562682
     85          6           0        1.828969   -0.820932   -2.664599
     86          1           0        1.390378   -1.616469   -3.273109
     87          6           0        3.311825   -0.671393   -3.026355
     88          6           0        1.112570    0.504402   -2.984753
     89          1           0        1.664060    1.334639   -2.527218
     90          1           0        1.162329    0.652352   -4.069844
     91          8           0        4.151582   -0.380032   -2.186202
     92          6           0       -0.342009    0.562846   -2.469774
     93          1           0       -0.857274    1.385536   -2.978586
     94          1           0       -0.373889    0.764240   -1.397402
     95          6           0       -1.132717   -0.701257   -2.702054
     96          8           0       -1.647103   -1.391151   -1.832409
     97          8           0       -1.220311   -1.016218   -4.001566
     98          7           0        3.549782   -0.858984   -4.365368
     99          1           0        2.682551   -0.796569   -4.956210
    100          6           0        4.438568    0.087383   -5.083645
    101          1           0        4.808776    0.825494   -4.365398
    102          6           0        3.496042    0.816325   -6.133716
    103          6           0        5.632720   -0.565916   -5.776270
    104          1           0        6.115114    0.237836   -6.337813
    105          1           0        5.273864   -1.284107   -6.527646
    106          8           0        4.053373    1.649416   -6.853267
    107          6           0        6.639496   -1.245252   -4.821361
    108          1           0        6.530220   -0.841223   -3.807801
    109          1           0        7.667297   -1.036246   -5.139224
    110          6           0        6.514116   -2.768781   -4.758824
    111          1           0        7.266305   -3.185014   -4.077684
    112          1           0        6.685528   -3.191299   -5.760398
    113          7           0        5.183577   -3.162526   -4.282496
    114          1           0        4.451756   -2.422073   -4.291106
    115          7           0        5.747795   -5.398462   -4.063295
    116          1           0        5.487138   -6.341987   -3.820033
    117          1           0        6.504422   -5.298174   -4.723241
    118          7           0        3.652168   -4.652013   -3.385281
    119          1           0        3.423916   -5.595853   -3.111137
    120          1           0        3.067611   -3.931655   -2.949966
    121          6           0        4.856063   -4.388411   -3.916152
    122          8           0        2.282993    0.427860   -6.093384
    123          1           0       -1.727239   -1.847998   -4.069222
 ---------------------------------------------------------------------

 SCF Done:  E(RB3LYP) =  -2974.28964203     A.U. after    3 cycles

 Alpha  occ. eigenvalues --  -19.27880 -19.27557 -19.25307 -19.22508 -19.22254
 Alpha  occ. eigenvalues --  -19.20483 -19.18913 -19.18902 -19.17061 -19.08374
 Alpha  occ. eigenvalues --  -19.06940 -14.57850 -14.47836 -14.46929 -14.45086
 Alpha  occ. eigenvalues --  -14.44977 -14.44400 -14.44014 -14.43439 -14.43026
 Alpha  occ. eigenvalues --  -14.38076 -10.42000 -10.41942 -10.40478 -10.38797
 Alpha  occ. eigenvalues --  -10.38708 -10.37013 -10.36086 -10.35819 -10.34004
 Alpha  occ. eigenvalues --  -10.33712 -10.33260 -10.32928 -10.31657 -10.31200
 Alpha  occ. eigenvalues --  -10.30596 -10.30331 -10.30195 -10.29828 -10.29533
 Alpha  occ. eigenvalues --  -10.29508 -10.29298 -10.29202 -10.29053 -10.27418
 Alpha  occ. eigenvalues --  -10.27328 -10.27271 -10.27248 -10.27175 -10.27035
 Alpha  occ. eigenvalues --  -10.26968 -10.26885 -10.26603 -10.25871 -10.25652
 Alpha  occ. eigenvalues --  -10.24448 -10.24001 -10.23624 -10.23133 -10.22793
 Alpha  occ. eigenvalues --  -10.22544 -10.21251  -1.18785  -1.17776  -1.15363
 Alpha  occ. eigenvalues --   -1.14241  -1.12174  -1.12071  -1.11251  -1.10670
 Alpha  occ. eigenvalues --   -1.10436  -1.09484  -1.08447  -1.05012  -1.01940
 Alpha  occ. eigenvalues --   -1.01237  -1.01014  -1.00072  -0.99765  -0.99362
 Alpha  occ. eigenvalues --   -0.98917  -0.96739  -0.95401  -0.93659  -0.92210
 Alpha  occ. eigenvalues --   -0.92131  -0.88469  -0.87827  -0.87102  -0.86492
 Alpha  occ. eigenvalues --   -0.85396  -0.84965  -0.84642  -0.84045  -0.83108
 Alpha  occ. eigenvalues --   -0.82767  -0.80947  -0.79366  -0.78867  -0.77590
 Alpha  occ. eigenvalues --   -0.76172  -0.74617  -0.73621  -0.73295  -0.73043
 Alpha  occ. eigenvalues --   -0.72983  -0.72380  -0.71958  -0.71369  -0.70840
 Alpha  occ. eigenvalues --   -0.70391  -0.70020  -0.69744  -0.68804  -0.67891
 Alpha  occ. eigenvalues --   -0.67875  -0.67262  -0.66878  -0.66630  -0.66153
 Alpha  occ. eigenvalues --   -0.65491  -0.65148  -0.64791  -0.63290  -0.63018
 Alpha  occ. eigenvalues --   -0.62595  -0.62258  -0.61757  -0.60406  -0.60341
 Alpha  occ. eigenvalues --   -0.59904  -0.59343  -0.59160  -0.58729  -0.58045
 Alpha  occ. eigenvalues --   -0.57727  -0.57561  -0.57355  -0.56605  -0.56402
 Alpha  occ. eigenvalues --   -0.56314  -0.56148  -0.55910  -0.55015  -0.54753
 Alpha  occ. eigenvalues --   -0.54665  -0.54477  -0.54047  -0.53577  -0.53385
 Alpha  occ. eigenvalues --   -0.53113  -0.52865  -0.52604  -0.52468  -0.52397
 Alpha  occ. eigenvalues --   -0.52009  -0.51500  -0.51403  -0.50966  -0.50808
 Alpha  occ. eigenvalues --   -0.50654  -0.50617  -0.50233  -0.50158  -0.49895
 Alpha  occ. eigenvalues --   -0.49759  -0.49691  -0.49331  -0.48947  -0.48642
 Alpha  occ. eigenvalues --   -0.48384  -0.48314  -0.47924  -0.47803  -0.47467
 Alpha  occ. eigenvalues --   -0.47279  -0.46856  -0.46636  -0.46551  -0.46491
 Alpha  occ. eigenvalues --   -0.46235  -0.46042  -0.45606  -0.45398  -0.44997
 Alpha  occ. eigenvalues --   -0.44738  -0.44634  -0.44475  -0.44331  -0.44060
 Alpha  occ. eigenvalues --   -0.43673  -0.43384  -0.43158  -0.42941  -0.42780
 Alpha  occ. eigenvalues --   -0.42055  -0.42036  -0.41659  -0.41358  -0.40994
 Alpha  occ. eigenvalues --   -0.40559  -0.40018  -0.39916  -0.39180  -0.39010
 Alpha  occ. eigenvalues --   -0.38416  -0.38223  -0.38063  -0.37864  -0.37716
 Alpha  occ. eigenvalues --   -0.37590  -0.36811  -0.36620  -0.35850  -0.35795
 Alpha  occ. eigenvalues --   -0.35399  -0.35302  -0.35205  -0.34343  -0.34271
 Alpha  occ. eigenvalues --   -0.33999  -0.33763  -0.33513  -0.32763  -0.32377
 Alpha  occ. eigenvalues --   -0.31929  -0.31659  -0.30118  -0.29704  -0.23376
 Alpha  occ. eigenvalues --   -0.23251  -0.20902
 Alpha virt. eigenvalues --   -0.11724  -0.11334  -0.10845  -0.08913  -0.08287
 Alpha virt. eigenvalues --   -0.08050  -0.07597  -0.07319  -0.06705  -0.05854
 Alpha virt. eigenvalues --   -0.04960  -0.04301  -0.03819  -0.03267  -0.03150

 Mulliken charges:
               1
     1  N   -0.759855
     2  H    0.429342
     3  H    0.406496
     4  H    0.400364
     5  C   -0.126540
     6  H    0.252906
     7  C    0.661750
     8  C   -0.400159
     9  H    0.184683
    10  H    0.205835
    11  O   -0.554012
    12  C    0.141540
    13  C   -0.240266
    14  H    0.141602
    15  C   -0.180516
    16  H    0.167987
    17  C   -0.119522
    18  H    0.162524
    19  C   -0.127239
    20  H    0.162416
    21  C   -0.121881
    22  H    0.164700
    23  N   -0.612397
    24  H    0.397383
    25  C   -0.066685
    26  H    0.200026
    27  C    0.637511
    28  C   -0.465987
    29  H    0.161229
    30  H    0.207212
    31  H    0.174636
    32  O   -0.538644
    33  N   -0.577309
    34  H    0.343081
    35  C   -0.072481
    36  H    0.183838
    37  C    0.638699
    38  C   -0.468670
    39  H    0.177122
    40  H    0.167612
    41  H    0.177859
    42  O   -0.549905
    43  N   -0.602095
    44  H    0.351426
    45  C   -0.063745
    46  H    0.195050
    47  C    0.619787
    48  C   -0.376465
    49  H    0.157222
    50  H    0.174069
    51  O   -0.542764
    52  C    0.179069
    53  C   -0.171848
    54  H    0.143384
    55  C   -0.161288
    56  H    0.161103
    57  C   -0.212034
    58  H    0.133951
    59  C   -0.199961
    60  H    0.135266
    61  O   -0.678084
    62  H    0.418696
    63  C    0.360879
    64  N   -0.663088
    65  H    0.399916
    66  C   -0.040589
    67  H    0.181203
    68  C    0.599141
    69  C   -0.243290
    70  H    0.156556
    71  H    0.141574
    72  O   -0.557793
    73  C   -0.081045
    74  H    0.125477
    75  C   -0.451174
    76  H    0.153802
    77  H    0.147591
    78  H    0.145060
    79  C   -0.446332
    80  H    0.148215
    81  H    0.136203
    82  H    0.142517
    83  N   -0.569664
    84  H    0.346021
    85  C   -0.081519
    86  H    0.176433
    87  C    0.588237
    88  C   -0.326016
    89  H    0.169393
    90  H    0.248581
    91  O   -0.504210
    92  C   -0.357296
    93  H    0.200963
    94  H    0.166582
    95  C    0.593538
    96  O   -0.506110
    97  O   -0.523928
    98  N   -0.682876
    99  H    0.362183
   100  C   -0.080453
   101  H    0.161728
   102  C    0.592961
   103  C   -0.290870
   104  H    0.192139
   105  H    0.134935
   106  O   -0.556428
   107  C   -0.303505
   108  H    0.181513
   109  H    0.156891
   110  C   -0.159776
   111  H    0.165883
   112  H    0.161605
   113  N   -0.618410
   114  H    0.429602
   115  N   -0.762651
   116  H    0.361978
   117  H    0.376678
   118  N   -0.790681
   119  H    0.352581
   120  H    0.418134
   121  C    0.792769
   122  O   -0.619509
   123  H    0.420732
 Sum of Mulliken charges =   1.00000

 Dipole moment (field-independent basis, Debye):
    X=            -29.1298    Y=             -0.8347    Z=             18.2071  Tot=             34.3619
 Quadrupole moment (field-independent basis, Debye-Ang):
   XX=            -18.7575   YY=           -203.6720   ZZ=           -334.3434
   XY=           -216.8249   XZ=           -137.6864   YZ=            130.2914

 Normal termination of Gaussian 16 at Sun Jul 24 01:49:56 2022.
