 Gaussian 16, Revision C.01,
 Gaussian 16:  ES64L-G16RevC.01  3-Jul-2019

 ----------------------------------------------------------------------
 # B3LYP/6-31G* empiricaldispersion=gd3bj guess=read geom=check nosymm
 integral(ultrafinegrid)
 ----------------------------------------------------------------------

 ------------------------------------------------------
 Candidate Structure: Conf:217 Charge calc in gas phase
 ------------------------------------------------------
 Structure from the checkpoint file:  "conf-217.chk"
 Charge =  1 Multiplicity = 1

                          Input orientation:
 ---------------------------------------------------------------------
 Center     Atomic      Atomic             Coordinates (Angstroms)
 Number     Number       Type             X           Y           Z
 ---------------------------------------------------------------------
      1          7           0      -10.450154    4.448318    3.117506
      2          1           0      -10.906247    3.618125    3.593066
      3          1           0      -11.038057    4.840983    2.380313
      4          1           0      -10.260229    5.167809    3.835977
      5          6           0       -9.142777    3.869655    2.628324
      6          1           0       -9.247574    3.680943    1.556158
      7          6           0       -9.082559    2.507541    3.372331
      8          6           0       -7.984042    4.849456    2.901958
      9          1           0       -8.108674    5.715006    2.241144
     10          1           0       -7.051149    4.366999    2.598196
     11          8           0      -10.096735    2.143310    3.987006
     12          6           0       -7.961171    5.293253    4.347814
     13          6           0       -8.567215    6.508271    4.707650
     14          1           0       -8.941495    7.174590    3.931209
     15          6           0       -7.418324    4.479190    5.353331
     16          1           0       -6.936818    3.537232    5.105728
     17          6           0       -8.637595    6.902684    6.046825
     18          1           0       -9.097849    7.850670    6.307818
     19          6           0       -7.485191    4.879830    6.686927
     20          1           0       -7.052131    4.246574    7.455178
     21          6           0       -8.098559    6.084911    7.038385
     22          1           0       -8.145907    6.388760    8.079402
     23          7           0       -7.955719    1.812409    3.273819
     24          1           0       -7.138217    2.213227    2.804913
     25          6           0       -7.778237    0.544332    3.989191
     26          1           0       -8.381537    0.618000    4.901318
     27          6           0       -6.304869    0.477540    4.441960
     28          6           0       -8.283690   -0.638118    3.157386
     29          1           0       -8.310145   -1.555021    3.754168
     30          1           0       -7.653846   -0.806209    2.278811
     31          1           0       -9.307032   -0.437895    2.830267
     32          8           0       -5.700743    1.512810    4.765363
     33          7           0       -5.776478   -0.751883    4.502393
     34          1           0       -6.229428   -1.521453    4.015417
     35          6           0       -4.363733   -1.019079    4.743589
     36          1           0       -3.824131   -0.077429    4.614136
     37          6           0       -3.950310   -2.009346    3.634113
     38          6           0       -4.114459   -1.582619    6.147362
     39          1           0       -3.048720   -1.781077    6.298771
     40          1           0       -4.662375   -2.519617    6.287581
     41          1           0       -4.445483   -0.863956    6.902288
     42          8           0       -4.801345   -2.663085    3.030545
     43          7           0       -2.628488   -2.064171    3.378600
     44          1           0       -1.994915   -1.427788    3.857288
     45          6           0       -2.075406   -2.542019    2.120993
     46          1           0       -2.115602   -3.635661    2.077353
     47          6           0       -0.601492   -2.097213    2.124609
     48          6           0       -2.819533   -1.983861    0.859606
     49          1           0       -2.139807   -1.987032    0.001379
     50          1           0       -3.631909   -2.670748    0.617777
     51          8           0       -0.189275   -1.273179    2.947409
     52          6           0       -3.412650   -0.608445    1.065535
     53          6           0       -4.740978   -0.368512    0.697023
     54          1           0       -5.289333   -1.139997    0.165745
     55          6           0       -2.719392    0.416435    1.728383
     56          1           0       -1.688376    0.269893    2.035182
     57          6           0       -5.394403    0.807004    1.061088
     58          1           0       -6.437953    0.962533    0.804157
     59          6           0       -3.365787    1.592441    2.111425
     60          1           0       -2.838811    2.354257    2.678144
     61          8           0       -5.423815    2.833639    2.360764
     62          1           0       -5.257411    2.787541    3.327252
     63          6           0       -4.717315    1.756402    1.822997
     64          7           0        0.159858   -2.638331    1.154111
     65          1           0       -0.295726   -3.157315    0.407075
     66          6           0        1.413561   -2.032242    0.723126
     67          1           0        1.540815   -1.107360    1.289927
     68          6           0        1.238920   -1.720690   -0.769593
     69          6           0        2.620915   -2.963042    0.937020
     70          1           0        2.467883   -3.862329    0.326100
     71          1           0        3.514288   -2.462442    0.538769
     72          8           0        0.422825   -2.347171   -1.451692
     73          6           0        2.870512   -3.365436    2.399092
     74          1           0        1.954542   -3.843704    2.772633
     75          6           0        4.006023   -4.394584    2.462696
     76          1           0        4.947256   -3.961224    2.101045
     77          1           0        4.170460   -4.732837    3.491485
     78          1           0        3.785498   -5.275448    1.848742
     79          6           0        3.175044   -2.154005    3.289776
     80          1           0        4.038660   -1.594966    2.905087
     81          1           0        2.320439   -1.474758    3.359119
     82          1           0        3.420765   -2.478943    4.306873
     83          7           0        2.039962   -0.759207   -1.257162
     84          1           0        2.734063   -0.298613   -0.676669
     85          6           0        2.129921   -0.427302   -2.664781
     86          1           0        1.995752   -1.347020   -3.245645
     87          6           0        3.548757    0.123274   -2.881179
     88          6           0        1.092581    0.620384   -3.135822
     89          1           0        1.132736    1.481811   -2.462322
     90          1           0        1.408981    0.975465   -4.123368
     91          8           0        4.222264    0.524430   -1.924522
     92          6           0       -0.346219    0.103328   -3.268889
     93          1           0       -0.372774   -0.892395   -3.719329
     94          1           0       -0.892107    0.764298   -3.955770
     95          6           0       -1.215742    0.031497   -2.032151
     96          8           0       -2.268331   -0.567754   -1.985694
     97          8           0       -0.758334    0.769535   -0.990413
     98          7           0        3.961654    0.145853   -4.162144
     99          1           0        3.306905   -0.059676   -4.911398
    100          6           0        5.122978    0.903143   -4.596137
    101          1           0        5.330550    1.638719   -3.824291
    102          6           0        4.754894    1.646018   -5.881255
    103          6           0        6.366506    0.015208   -4.819715
    104          1           0        7.070400    0.543672   -5.470863
    105          1           0        6.040325   -0.879045   -5.363415
    106          8           0        5.631380    2.569674   -6.258004
    107          6           0        7.082515   -0.379135   -3.525408
    108          1           0        7.781907   -1.195875   -3.744663
    109          1           0        6.363077   -0.770463   -2.796473
    110          6           0        7.902750    0.752439   -2.889499
    111          1           0        8.587404    1.181782   -3.624741
    112          1           0        8.508309    0.331718   -2.076844
    113          7           0        7.135448    1.862537   -2.332009
    114          1           0        6.399253    1.616936   -1.679011
    115          7           0        7.318690    3.268777   -4.193229
    116          1           0        7.358285    4.265715   -4.407202
    117          1           0        6.336877    2.705171   -5.548535
    118          7           0        6.466340    4.043149   -2.104234
    119          1           0        6.384777    4.975656   -2.485570
    120          1           0        6.761163    4.016056   -1.136328
    121          6           0        7.007825    3.081857   -2.942480
    122          8           0        3.749697    1.380011   -6.511577
    123          1           0       -1.453131    0.724478   -0.302431
 ---------------------------------------------------------------------

 SCF Done:  E(RB3LYP) =  -2974.32683721     A.U. after    2 cycles

 Alpha  occ. eigenvalues --  -19.26909 -19.25935 -19.24855 -19.22004 -19.21449
 Alpha  occ. eigenvalues --  -19.20060 -19.19895 -19.18997 -19.18659 -19.18416
 Alpha  occ. eigenvalues --  -19.17281 -14.58237 -14.48359 -14.45418 -14.43372
 Alpha  occ. eigenvalues --  -14.43250 -14.42440 -14.42293 -14.41272 -14.40420
 Alpha  occ. eigenvalues --  -14.35550 -10.42576 -10.39814 -10.39273 -10.37308
 Alpha  occ. eigenvalues --  -10.36789 -10.36747 -10.35753 -10.35527 -10.35329
 Alpha  occ. eigenvalues --  -10.35128 -10.34313 -10.33093 -10.32620 -10.31739
 Alpha  occ. eigenvalues --  -10.31475 -10.31145 -10.30112 -10.30100 -10.29788
 Alpha  occ. eigenvalues --  -10.29459 -10.29085 -10.29011 -10.28987 -10.28269
 Alpha  occ. eigenvalues --  -10.28047 -10.27495 -10.27479 -10.27301 -10.27037
 Alpha  occ. eigenvalues --  -10.26972 -10.26779 -10.26244 -10.26193 -10.25691
 Alpha  occ. eigenvalues --  -10.25576 -10.24706 -10.24135 -10.24001 -10.23528
 Alpha  occ. eigenvalues --  -10.22133 -10.21868  -1.18389  -1.15601  -1.14667
 Alpha  occ. eigenvalues --   -1.13436  -1.13007  -1.12540  -1.12238  -1.11457
 Alpha  occ. eigenvalues --   -1.10843  -1.09987  -1.06369  -1.05303  -1.05089
 Alpha  occ. eigenvalues --   -1.04045  -1.02163  -1.00524  -1.00178  -0.99309
 Alpha  occ. eigenvalues --   -0.99071  -0.96672  -0.94768  -0.93732  -0.92328
 Alpha  occ. eigenvalues --   -0.90560  -0.88754  -0.87770  -0.86696  -0.86118
 Alpha  occ. eigenvalues --   -0.85494  -0.84849  -0.84706  -0.84076  -0.83186
 Alpha  occ. eigenvalues --   -0.82316  -0.80856  -0.79616  -0.79008  -0.77710
 Alpha  occ. eigenvalues --   -0.76543  -0.74651  -0.73614  -0.73459  -0.73030
 Alpha  occ. eigenvalues --   -0.72651  -0.72043  -0.71796  -0.71029  -0.70344
 Alpha  occ. eigenvalues --   -0.70168  -0.69810  -0.68640  -0.68186  -0.67232
 Alpha  occ. eigenvalues --   -0.66984  -0.66307  -0.65821  -0.65748  -0.65508
 Alpha  occ. eigenvalues --   -0.64772  -0.64412  -0.64237  -0.63595  -0.63219
 Alpha  occ. eigenvalues --   -0.62796  -0.62561  -0.61311  -0.61066  -0.60276
 Alpha  occ. eigenvalues --   -0.59836  -0.59618  -0.58706  -0.58333  -0.57832
 Alpha  occ. eigenvalues --   -0.57423  -0.56667  -0.56438  -0.56190  -0.55995
 Alpha  occ. eigenvalues --   -0.55640  -0.55408  -0.54733  -0.54706  -0.54309
 Alpha  occ. eigenvalues --   -0.54041  -0.53915  -0.53587  -0.53437  -0.53097
 Alpha  occ. eigenvalues --   -0.52999  -0.52693  -0.52445  -0.52277  -0.51944
 Alpha  occ. eigenvalues --   -0.51822  -0.51588  -0.51352  -0.51292  -0.51182
 Alpha  occ. eigenvalues --   -0.50900  -0.50607  -0.50347  -0.50227  -0.49961
 Alpha  occ. eigenvalues --   -0.49766  -0.49511  -0.49243  -0.48926  -0.48736
 Alpha  occ. eigenvalues --   -0.48610  -0.48483  -0.48285  -0.47903  -0.47529
 Alpha  occ. eigenvalues --   -0.47070  -0.46789  -0.46561  -0.46403  -0.46267
 Alpha  occ. eigenvalues --   -0.46057  -0.45945  -0.45631  -0.45364  -0.44741
 Alpha  occ. eigenvalues --   -0.44622  -0.44591  -0.44474  -0.44330  -0.44045
 Alpha  occ. eigenvalues --   -0.43931  -0.43698  -0.43441  -0.43246  -0.43099
 Alpha  occ. eigenvalues --   -0.43022  -0.42379  -0.42273  -0.41819  -0.41636
 Alpha  occ. eigenvalues --   -0.41291  -0.40856  -0.40579  -0.40362  -0.40095
 Alpha  occ. eigenvalues --   -0.39366  -0.39165  -0.38349  -0.38193  -0.37698
 Alpha  occ. eigenvalues --   -0.37687  -0.36747  -0.36122  -0.36045  -0.35727
 Alpha  occ. eigenvalues --   -0.35299  -0.34587  -0.34583  -0.34086  -0.33694
 Alpha  occ. eigenvalues --   -0.33625  -0.33523  -0.33309  -0.32784  -0.32508
 Alpha  occ. eigenvalues --   -0.32289  -0.31806  -0.31564  -0.31439  -0.30981
 Alpha  occ. eigenvalues --   -0.30803  -0.28845
 Alpha virt. eigenvalues --   -0.12129  -0.11374  -0.11064  -0.09625  -0.08666
 Alpha virt. eigenvalues --   -0.07936  -0.07780  -0.05867  -0.05412  -0.05019
 Alpha virt. eigenvalues --   -0.04211  -0.03439  -0.03376  -0.02505  -0.02183

 Mulliken charges:
               1
     1  N   -0.757621
     2  H    0.432003
     3  H    0.407340
     4  H    0.403754
     5  C   -0.114565
     6  H    0.222834
     7  C    0.654600
     8  C   -0.411768
     9  H    0.180741
    10  H    0.237022
    11  O   -0.546016
    12  C    0.126174
    13  C   -0.235947
    14  H    0.142014
    15  C   -0.192938
    16  H    0.180648
    17  C   -0.118575
    18  H    0.161963
    19  C   -0.133305
    20  H    0.163979
    21  C   -0.122938
    22  H    0.164136
    23  N   -0.631473
    24  H    0.400420
    25  C   -0.048377
    26  H    0.215385
    27  C    0.614295
    28  C   -0.487264
    29  H    0.179849
    30  H    0.181653
    31  H    0.182350
    32  O   -0.569534
    33  N   -0.594031
    34  H    0.373611
    35  C   -0.070266
    36  H    0.186066
    37  C    0.636054
    38  C   -0.442054
    39  H    0.169025
    40  H    0.170661
    41  H    0.173776
    42  O   -0.543897
    43  N   -0.620048
    44  H    0.359202
    45  C   -0.029284
    46  H    0.191008
    47  C    0.606611
    48  C   -0.395731
    49  H    0.208702
    50  H    0.186714
    51  O   -0.541131
    52  C    0.175716
    53  C   -0.159335
    54  H    0.155468
    55  C   -0.274727
    56  H    0.180194
    57  C   -0.180481
    58  H    0.127703
    59  C   -0.171235
    60  H    0.151633
    61  O   -0.711257
    62  H    0.451059
    63  C    0.341825
    64  N   -0.583099
    65  H    0.358986
    66  C   -0.096635
    67  H    0.185381
    68  C    0.640077
    69  C   -0.255176
    70  H    0.148369
    71  H    0.141042
    72  O   -0.555739
    73  C   -0.067042
    74  H    0.134186
    75  C   -0.444336
    76  H    0.142276
    77  H    0.150042
    78  H    0.144904
    79  C   -0.469605
    80  H    0.132452
    81  H    0.173531
    82  H    0.148119
    83  N   -0.604182
    84  H    0.355227
    85  C   -0.051435
    86  H    0.182607
    87  C    0.619117
    88  C   -0.274635
    89  H    0.175000
    90  H    0.164208
    91  O   -0.561512
    92  C   -0.360710
    93  H    0.200191
    94  H    0.186149
    95  C    0.606772
    96  O   -0.479913
    97  O   -0.592110
    98  N   -0.594135
    99  H    0.353855
   100  C   -0.099066
   101  H    0.195513
   102  C    0.607112
   103  C   -0.263669
   104  H    0.167079
   105  H    0.153042
   106  O   -0.604563
   107  C   -0.279432
   108  H    0.147498
   109  H    0.154571
   110  C   -0.129949
   111  H    0.186078
   112  H    0.150802
   113  N   -0.598245
   114  H    0.352380
   115  N   -0.721422
   116  H    0.291449
   117  H    0.466746
   118  N   -0.748668
   119  H    0.334401
   120  H    0.337858
   121  C    0.622074
   122  O   -0.483571
   123  H    0.417369
 Sum of Mulliken charges =   1.00000

 Dipole moment (field-independent basis, Debye):
    X=            -27.8359    Y=             16.0920    Z=             15.9461  Tot=             35.8897
 Quadrupole moment (field-independent basis, Debye-Ang):
   XX=             22.8570   YY=           -254.2835   ZZ=           -331.8445
   XY=           -144.2920   XZ=           -112.3608   YZ=             54.3404

 Normal termination of Gaussian 16 at Sun Jul 24 01:49:25 2022.
