 Gaussian 16, Revision C.01,
 Gaussian 16:  ES64L-G16RevC.01  3-Jul-2019

 ----------------------------------------------------------------------
 # B3LYP/6-31G* empiricaldispersion=gd3bj guess=read geom=check nosymm
 integral(ultrafinegrid)
 ----------------------------------------------------------------------

 ------------------------------------------------------
 Candidate Structure: Conf:123 Charge calc in gas phase
 ------------------------------------------------------
 Structure from the checkpoint file:  "conf-123.chk"
 Charge =  1 Multiplicity = 1

                          Input orientation:
 ---------------------------------------------------------------------
 Center     Atomic      Atomic             Coordinates (Angstroms)
 Number     Number       Type             X           Y           Z
 ---------------------------------------------------------------------
      1          7           0      -10.576341    5.372797    5.671204
      2          1           0      -11.230125    6.156661    5.717951
      3          1           0      -10.391118    5.014802    6.624037
      4          1           0      -10.951474    4.573467    5.087340
      5          6           0       -9.268246    5.694822    4.990326
      6          1           0       -9.446047    6.552502    4.335124
      7          6           0       -9.037908    4.437791    4.107312
      8          6           0       -8.170495    6.016897    6.026546
      9          1           0       -8.417163    6.973380    6.501337
     10          1           0       -7.231525    6.180867    5.488834
     11          8           0       -9.985969    3.652987    3.963649
     12          6           0       -8.029171    4.926376    7.063708
     13          6           0       -8.789860    4.984609    8.243407
     14          1           0       -9.373914    5.877014    8.468012
     15          6           0       -7.201210    3.817453    6.840628
     16          1           0       -6.576154    3.774470    5.953213
     17          6           0       -8.744892    3.941643    9.172678
     18          1           0       -9.328355    4.005339   10.085854
     19          6           0       -7.152961    2.783113    7.774035
     20          1           0       -6.498916    1.934405    7.598819
     21          6           0       -7.930604    2.835845    8.933433
     22          1           0       -7.887257    2.026490    9.655291
     23          7           0       -7.845660    4.318242    3.538934
     24          1           0       -7.048193    4.881808    3.835890
     25          6           0       -7.418947    3.125022    2.812483
     26          1           0       -7.901028    2.255394    3.273129
     27          6           0       -5.896717    3.053727    3.063162
     28          6           0       -7.793201    3.192902    1.327601
     29          1           0       -7.488802    2.281893    0.803974
     30          1           0       -7.309230    4.047101    0.844809
     31          1           0       -8.877082    3.293250    1.227011
     32          8           0       -5.343903    3.919723    3.756987
     33          7           0       -5.258673    2.026223    2.498865
     34          1           0       -5.717386    1.369367    1.869508
     35          6           0       -3.815397    1.846570    2.558376
     36          1           0       -3.334754    2.813913    2.371976
     37          6           0       -3.485798    0.874907    1.410742
     38          6           0       -3.356401    1.306652    3.920499
     39          1           0       -2.268722    1.191648    3.947489
     40          1           0       -3.813448    0.331913    4.117466
     41          1           0       -3.648728    2.007704    4.706057
     42          8           0       -4.385380    0.282629    0.808598
     43          7           0       -2.178026    0.713513    1.151412
     44          1           0       -1.461949    1.261685    1.618420
     45          6           0       -1.679401   -0.128832    0.076826
     46          1           0       -2.241911   -1.066782    0.085083
     47          6           0       -0.205296   -0.385640    0.402933
     48          6           0       -1.866387    0.583002   -1.292611
     49          1           0       -2.948896    0.669550   -1.440893
     50          1           0       -1.465427    1.597011   -1.197594
     51          8           0        0.452477    0.459756    1.018968
     52          6           0       -1.204992   -0.097900   -2.468194
     53          6           0       -0.331638    0.635441   -3.279880
     54          1           0       -0.179019    1.687201   -3.062290
     55          6           0       -1.420731   -1.445736   -2.784817
     56          1           0       -2.134235   -2.034159   -2.210686
     57          6           0        0.332045    0.046000   -4.351437
     58          1           0        0.998846    0.623647   -4.984001
     59          6           0       -0.738672   -2.059567   -3.836652
     60          1           0       -0.904653   -3.111992   -4.055774
     61          8           0        0.874503   -1.856792   -5.647578
     62          1           0        0.662414   -2.800433   -5.725835
     63          6           0        0.149685   -1.311476   -4.612019
     64          7           0        0.295910   -1.571449   -0.005785
     65          1           0       -0.247157   -2.108805   -0.670613
     66          6           0        1.729270   -1.883995    0.067149
     67          1           0        2.098092   -1.410061    0.978681
     68          6           0        2.396879   -1.224678   -1.152237
     69          6           0        1.957085   -3.391089    0.109003
     70          1           0        1.661470   -3.814471   -0.858431
     71          1           0        3.038756   -3.557525    0.188826
     72          8           0        2.617623   -1.876338   -2.181631
     73          6           0        1.236062   -4.120726    1.254503
     74          1           0        0.153383   -3.983626    1.118297
     75          6           0        1.534990   -5.622827    1.178276
     76          1           0        2.604388   -5.815219    1.329506
     77          1           0        0.985215   -6.173726    1.949154
     78          1           0        1.256619   -6.037624    0.202460
     79          6           0        1.609624   -3.556724    2.631205
     80          1           0        2.694355   -3.603205    2.791116
     81          1           0        1.295680   -2.513728    2.748776
     82          1           0        1.132074   -4.135866    3.429092
     83          7           0        2.589165    0.092841   -1.013242
     84          1           0        2.311343    0.504489   -0.128936
     85          6           0        2.940278    0.998755   -2.094546
     86          1           0        2.416774    0.654494   -2.990628
     87          6           0        4.456010    0.943305   -2.392836
     88          6           0        2.411234    2.396783   -1.710699
     89          1           0        1.465684    2.243812   -1.181485
     90          1           0        3.102778    2.866947   -1.001249
     91          8           0        5.202696    0.211591   -1.717455
     92          6           0        2.140193    3.350945   -2.883227
     93          1           0        1.870957    2.781780   -3.785213
     94          1           0        3.005795    3.948037   -3.182512
     95          6           0        0.941436    4.228404   -2.601702
     96          8           0       -0.051790    3.888493   -1.979030
     97          8           0        1.053306    5.445044   -3.160470
     98          7           0        4.835174    1.675485   -3.440695
     99          1           0        4.181803    2.331863   -3.915458
    100          6           0        6.156791    2.256222   -3.694184
    101          1           0        6.617363    2.517171   -2.733628
    102          6           0        5.852174    3.604840   -4.489338
    103          6           0        7.157450    1.416676   -4.492765
    104          1           0        7.924035    2.136908   -4.790566
    105          1           0        6.676858    1.089518   -5.426977
    106          8           0        6.847385    4.251348   -4.831632
    107          6           0        7.801451    0.227677   -3.750909
    108          1           0        7.634958    0.332250   -2.673846
    109          1           0        8.887669    0.220698   -3.905647
    110          6           0        7.289970   -1.148237   -4.184993
    111          1           0        7.759068   -1.936533   -3.586080
    112          1           0        7.551192   -1.361054   -5.225431
    113          7           0        5.841073   -1.287539   -4.018306
    114          1           0        5.512427   -1.057614   -3.072604
    115          7           0        5.292250   -1.240699   -6.297169
    116          1           0        4.551598   -1.079169   -6.965577
    117          1           0        6.151214   -0.759771   -6.525271
    118          7           0        3.634834   -1.362636   -4.676528
    119          1           0        2.911793   -1.411779   -5.384676
    120          1           0        3.325431   -1.532591   -3.707321
    121          6           0        4.927814   -1.272322   -4.984263
    122          8           0        4.615031    3.824304   -4.683084
    123          1           0        0.220612    5.918115   -2.971923
 ---------------------------------------------------------------------

 SCF Done:  E(RB3LYP) =  -2974.29458451     A.U. after    2 cycles

 Alpha  occ. eigenvalues --  -19.26887 -19.26392 -19.24359 -19.22886 -19.20795
 Alpha  occ. eigenvalues --  -19.20562 -19.19008 -19.18964 -19.15332 -19.07466
 Alpha  occ. eigenvalues --  -19.06123 -14.59362 -14.49339 -14.46101 -14.44660
 Alpha  occ. eigenvalues --  -14.44583 -14.44444 -14.42955 -14.42208 -14.42117
 Alpha  occ. eigenvalues --  -14.37127 -10.43640 -10.40937 -10.39968 -10.39753
 Alpha  occ. eigenvalues --  -10.37800 -10.37367 -10.36983 -10.35453 -10.35143
 Alpha  occ. eigenvalues --  -10.34374 -10.32849 -10.32525 -10.32328 -10.32077
 Alpha  occ. eigenvalues --  -10.31860 -10.31233 -10.30508 -10.30279 -10.30186
 Alpha  occ. eigenvalues --  -10.30127 -10.30023 -10.28769 -10.28363 -10.28220
 Alpha  occ. eigenvalues --  -10.26990 -10.26826 -10.26749 -10.26569 -10.26401
 Alpha  occ. eigenvalues --  -10.25902 -10.25762 -10.25121 -10.24951 -10.24649
 Alpha  occ. eigenvalues --  -10.24514 -10.23788 -10.22946 -10.22765 -10.22431
 Alpha  occ. eigenvalues --  -10.22020 -10.20478  -1.19371  -1.15433  -1.14819
 Alpha  occ. eigenvalues --   -1.13974  -1.13614  -1.12958  -1.12184  -1.10401
 Alpha  occ. eigenvalues --   -1.08566  -1.06567  -1.06352  -1.06146  -1.02903
 Alpha  occ. eigenvalues --   -1.01454  -1.01085  -1.00420  -0.98981  -0.97986
 Alpha  occ. eigenvalues --   -0.97838  -0.96547  -0.94406  -0.93504  -0.92959
 Alpha  occ. eigenvalues --   -0.91485  -0.89602  -0.88062  -0.87068  -0.86247
 Alpha  occ. eigenvalues --   -0.85957  -0.85389  -0.84744  -0.82962  -0.82344
 Alpha  occ. eigenvalues --   -0.82234  -0.80225  -0.80167  -0.78627  -0.77440
 Alpha  occ. eigenvalues --   -0.76688  -0.75473  -0.74534  -0.74082  -0.73837
 Alpha  occ. eigenvalues --   -0.73170  -0.72016  -0.71705  -0.71402  -0.70954
 Alpha  occ. eigenvalues --   -0.70079  -0.69896  -0.69676  -0.69047  -0.68276
 Alpha  occ. eigenvalues --   -0.67566  -0.67284  -0.66804  -0.66079  -0.65768
 Alpha  occ. eigenvalues --   -0.65284  -0.63968  -0.63795  -0.63417  -0.62684
 Alpha  occ. eigenvalues --   -0.62094  -0.61999  -0.61676  -0.61306  -0.60493
 Alpha  occ. eigenvalues --   -0.59436  -0.58966  -0.58462  -0.57934  -0.57892
 Alpha  occ. eigenvalues --   -0.57668  -0.57528  -0.57303  -0.56897  -0.56742
 Alpha  occ. eigenvalues --   -0.56462  -0.55537  -0.55205  -0.55073  -0.54451
 Alpha  occ. eigenvalues --   -0.54237  -0.53881  -0.53630  -0.53504  -0.53228
 Alpha  occ. eigenvalues --   -0.53006  -0.52836  -0.52736  -0.52489  -0.52228
 Alpha  occ. eigenvalues --   -0.52022  -0.51838  -0.51756  -0.51414  -0.51083
 Alpha  occ. eigenvalues --   -0.50731  -0.50677  -0.49657  -0.49444  -0.49297
 Alpha  occ. eigenvalues --   -0.49224  -0.48987  -0.48549  -0.48474  -0.48271
 Alpha  occ. eigenvalues --   -0.48215  -0.48053  -0.47907  -0.47750  -0.47622
 Alpha  occ. eigenvalues --   -0.46911  -0.46855  -0.46750  -0.46537  -0.46399
 Alpha  occ. eigenvalues --   -0.46048  -0.45705  -0.45474  -0.45463  -0.45336
 Alpha  occ. eigenvalues --   -0.44880  -0.44862  -0.44303  -0.44094  -0.43645
 Alpha  occ. eigenvalues --   -0.43214  -0.43112  -0.42810  -0.42435  -0.42089
 Alpha  occ. eigenvalues --   -0.41500  -0.41434  -0.41246  -0.41122  -0.40236
 Alpha  occ. eigenvalues --   -0.39704  -0.39535  -0.39116  -0.38502  -0.38426
 Alpha  occ. eigenvalues --   -0.38365  -0.38263  -0.37708  -0.37021  -0.36806
 Alpha  occ. eigenvalues --   -0.36527  -0.36448  -0.36357  -0.36244  -0.36232
 Alpha  occ. eigenvalues --   -0.35963  -0.35430  -0.35157  -0.34438  -0.34350
 Alpha  occ. eigenvalues --   -0.33811  -0.32771  -0.32709  -0.32447  -0.32015
 Alpha  occ. eigenvalues --   -0.31613  -0.29313  -0.29127  -0.28306  -0.22481
 Alpha  occ. eigenvalues --   -0.22428  -0.20304
 Alpha virt. eigenvalues --   -0.13080  -0.12435  -0.12372  -0.08811  -0.08547
 Alpha virt. eigenvalues --   -0.08390  -0.07338  -0.06745  -0.05703  -0.04513
 Alpha virt. eigenvalues --   -0.04343  -0.04258  -0.03882  -0.03270  -0.02126

 Mulliken charges:
               1
     1  N   -0.756048
     2  H    0.410090
     3  H    0.403389
     4  H    0.432864
     5  C   -0.114147
     6  H    0.228979
     7  C    0.654689
     8  C   -0.396429
     9  H    0.190345
    10  H    0.210631
    11  O   -0.539250
    12  C    0.140109
    13  C   -0.243556
    14  H    0.144499
    15  C   -0.185555
    16  H    0.172443
    17  C   -0.117793
    18  H    0.166195
    19  C   -0.128776
    20  H    0.163015
    21  C   -0.121173
    22  H    0.167931
    23  N   -0.603230
    24  H    0.376135
    25  C   -0.064927
    26  H    0.203205
    27  C    0.635819
    28  C   -0.453773
    29  H    0.179337
    30  H    0.174144
    31  H    0.186772
    32  O   -0.553928
    33  N   -0.619584
    34  H    0.370306
    35  C   -0.046238
    36  H    0.191224
    37  C    0.630878
    38  C   -0.450840
    39  H    0.169120
    40  H    0.164701
    41  H    0.181698
    42  O   -0.547533
    43  N   -0.623003
    44  H    0.362688
    45  C   -0.043571
    46  H    0.176386
    47  C    0.633809
    48  C   -0.372509
    49  H    0.187333
    50  H    0.195710
    51  O   -0.560567
    52  C    0.165373
    53  C   -0.202005
    54  H    0.176941
    55  C   -0.239295
    56  H    0.139242
    57  C   -0.181498
    58  H    0.158457
    59  C   -0.174173
    60  H    0.136064
    61  O   -0.666272
    62  H    0.421551
    63  C    0.365842
    64  N   -0.592297
    65  H    0.344688
    66  C   -0.092795
    67  H    0.191754
    68  C    0.659745
    69  C   -0.277926
    70  H    0.152081
    71  H    0.159779
    72  O   -0.575094
    73  C   -0.069661
    74  H    0.117229
    75  C   -0.442830
    76  H    0.149879
    77  H    0.148612
    78  H    0.141094
    79  C   -0.455722
    80  H    0.150035
    81  H    0.148032
    82  H    0.149452
    83  N   -0.592797
    84  H    0.372180
    85  C   -0.061981
    86  H    0.172968
    87  C    0.585607
    88  C   -0.317725
    89  H    0.177605
    90  H    0.172768
    91  O   -0.572161
    92  C   -0.398083
    93  H    0.176993
    94  H    0.258973
    95  C    0.576069
    96  O   -0.488262
    97  O   -0.535088
    98  N   -0.610130
    99  H    0.378112
   100  C   -0.070536
   101  H    0.152798
   102  C    0.581062
   103  C   -0.274930
   104  H    0.196074
   105  H    0.093023
   106  O   -0.561974
   107  C   -0.272749
   108  H    0.178400
   109  H    0.147724
   110  C   -0.177188
   111  H    0.174792
   112  H    0.152970
   113  N   -0.591400
   114  H    0.396666
   115  N   -0.756849
   116  H    0.357816
   117  H    0.371975
   118  N   -0.841226
   119  H    0.372031
   120  H    0.437189
   121  C    0.785738
   122  O   -0.623097
   123  H    0.408352
 Sum of Mulliken charges =   1.00000

 Dipole moment (field-independent basis, Debye):
    X=            -42.3136    Y=              6.8341    Z=             21.1854  Tot=             47.8118
 Quadrupole moment (field-independent basis, Debye-Ang):
   XX=            -25.8255   YY=           -265.4009   ZZ=           -185.7424
   XY=           -278.9652   XZ=           -210.9707   YZ=            181.5141

 Normal termination of Gaussian 16 at Sun Jul 24 01:49:44 2022.
