 Gaussian 16, Revision C.01,
 Gaussian 16:  ES64L-G16RevC.01  3-Jul-2019

 ----------------------------------------------------------------------
 # B3LYP/6-31G* empiricaldispersion=gd3bj guess=read geom=check nosymm
 integral(ultrafinegrid)
 ----------------------------------------------------------------------

 ------------------------------------------------------
 Candidate Structure: Conf:474 Charge calc in gas phase
 ------------------------------------------------------
 Structure from the checkpoint file:  "conf-474.chk"
 Charge =  1 Multiplicity = 1

                          Input orientation:
 ---------------------------------------------------------------------
 Center     Atomic      Atomic             Coordinates (Angstroms)
 Number     Number       Type             X           Y           Z
 ---------------------------------------------------------------------
      1          7           0       -3.767629    5.716345   -0.877261
      2          1           0       -2.940313    5.336575   -1.494140
      3          1           0       -3.877457    6.727541   -0.978270
      4          1           0       -4.651858    5.259026   -1.170581
      5          6           0       -3.587440    5.305630    0.549347
      6          1           0       -2.543599    5.039589    0.693915
      7          6           0       -4.460529    4.046630    0.694491
      8          6           0       -3.973691    6.437569    1.528267
      9          1           0       -3.173619    7.186588    1.505182
     10          1           0       -3.964719    6.008902    2.534387
     11          8           0       -5.409721    3.877364   -0.075184
     12          6           0       -5.296271    7.091997    1.207654
     13          6           0       -5.326008    8.319860    0.533338
     14          1           0       -4.391288    8.833615    0.313387
     15          6           0       -6.510205    6.467842    1.522490
     16          1           0       -6.505520    5.517503    2.047671
     17          6           0       -6.538978    8.910206    0.172568
     18          1           0       -6.543454    9.865958   -0.343136
     19          6           0       -7.721886    7.055987    1.166828
     20          1           0       -8.654929    6.561551    1.420222
     21          6           0       -7.739968    8.276328    0.487368
     22          1           0       -8.686042    8.732728    0.212395
     23          7           0       -4.130174    3.223959    1.703028
     24          1           0       -3.287837    3.428954    2.239117
     25          6           0       -4.713949    1.898819    1.849702
     26          1           0       -5.767688    1.997807    2.138831
     27          6           0       -3.938764    1.154033    2.938896
     28          6           0       -4.622554    1.057049    0.559472
     29          1           0       -4.994482    0.043637    0.743356
     30          1           0       -3.583248    1.012484    0.226783
     31          1           0       -5.213899    1.522950   -0.228050
     32          8           0       -2.730784    1.329147    3.116962
     33          7           0       -4.671802    0.245318    3.629804
     34          1           0       -5.625253    0.076810    3.333444
     35          6           0       -4.060781   -0.795429    4.465117
     36          1           0       -3.225878   -0.323587    4.988777
     37          6           0       -3.546039   -1.888804    3.508026
     38          6           0       -5.079384   -1.352056    5.449513
     39          1           0       -4.601039   -2.075719    6.115582
     40          1           0       -5.876640   -1.874878    4.912727
     41          1           0       -5.507107   -0.547980    6.054945
     42          8           0       -4.286001   -2.755573    3.050666
     43          7           0       -2.244319   -1.751707    3.158133
     44          1           0       -1.706288   -0.964416    3.501306
     45          6           0       -1.650283   -2.503026    2.074582
     46          1           0       -1.838577   -3.570738    2.234041
     47          6           0       -0.138524   -2.231961    2.129829
     48          6           0       -2.304761   -2.091705    0.713280
     49          1           0       -3.377257   -2.254214    0.854255
     50          1           0       -2.153874   -1.015197    0.575698
     51          8           0        0.334811   -1.470847    2.982659
     52          6           0       -1.795848   -2.853637   -0.483905
     53          6           0       -1.040005   -2.218206   -1.479517
     54          1           0       -0.891224   -1.143472   -1.434332
     55          6           0       -1.949921   -4.245351   -0.565112
     56          1           0       -2.545234   -4.764827    0.181468
     57          6           0       -0.420619   -2.940294   -2.493639
     58          1           0        0.191355   -2.449051   -3.242395
     59          6           0       -1.329691   -4.984049   -1.572383
     60          1           0       -1.449092   -6.064477   -1.607386
     61          8           0        0.130712   -4.995519   -3.513005
     62          1           0       -0.062620   -5.944720   -3.457023
     63          6           0       -0.547318   -4.333000   -2.533012
     64          7           0        0.611566   -2.826544    1.171692
     65          1           0        0.114881   -3.348733    0.460964
     66          6           0        1.988414   -2.438571    0.820381
     67          1           0        2.568958   -2.381836    1.745632
     68          6           0        1.870545   -1.031365    0.188216
     69          6           0        2.575851   -3.449025   -0.163651
     70          1           0        2.056797   -3.322981   -1.119580
     71          1           0        3.622395   -3.172378   -0.344759
     72          8           0        1.895999   -0.861805   -1.040937
     73          6           0        2.501246   -4.920343    0.275234
     74          1           0        1.448142   -5.168644    0.468773
     75          6           0        2.977519   -5.816902   -0.874650
     76          1           0        4.026812   -5.614200   -1.122625
     77          1           0        2.899783   -6.875315   -0.603397
     78          1           0        2.380641   -5.649331   -1.779229
     79          6           0        3.292019   -5.182772    1.561276
     80          1           0        4.349474   -4.920561    1.429463
     81          1           0        2.902088   -4.604382    2.406440
     82          1           0        3.244947   -6.240983    1.839007
     83          7           0        1.629365   -0.041710    1.079233
     84          1           0        1.544278   -0.381918    2.038126
     85          6           0        0.649903    1.019525    0.822032
     86          1           0       -0.345786    0.552851    0.829562
     87          6           0        0.846532    1.725764   -0.520932
     88          6           0        0.684785    2.033142    1.970970
     89          1           0        0.474481    1.493670    2.899893
     90          1           0        1.689154    2.458531    2.044472
     91          8           0        1.861246    2.368246   -0.776489
     92          6           0       -0.364707    3.126956    1.751939
     93          1           0       -1.284359    2.716763    1.331369
     94          1           0        0.000320    3.859980    1.020250
     95          6           0       -0.765797    3.897572    2.980503
     96          8           0       -1.827777    4.486271    3.103193
     97          8           0        0.172775    3.916660    3.939827
     98          7           0       -0.230124    1.604849   -1.353208
     99          1           0       -1.091747    1.326918   -0.887989
    100          6           0       -0.542339    2.622119   -2.354941
    101          1           0        0.365614    3.193916   -2.550730
    102          6           0       -1.633956    3.543378   -1.742199
    103          6           0       -1.120169    2.008757   -3.642217
    104          1           0       -1.244455    2.827225   -4.360580
    105          1           0       -2.129095    1.638444   -3.420914
    106          8           0       -2.351619    3.028264   -0.851542
    107          6           0       -0.331285    0.860646   -4.286446
    108          1           0       -0.820270    0.601469   -5.231442
    109          1           0       -0.389763   -0.039499   -3.662562
    110          6           0        1.140767    1.163392   -4.586098
    111          1           0        1.235199    2.220350   -4.864544
    112          1           0        1.498413    0.564338   -5.431756
    113          7           0        1.975222    0.879453   -3.416687
    114          1           0        1.594200    0.276548   -2.688361
    115          7           0        3.707010    2.342983   -3.940316
    116          1           0        4.651220    2.658639   -3.778560
    117          1           0        3.142625    2.869215   -4.588022
    118          7           0        3.922503    0.863938   -2.167416
    119          1           0        4.480349    1.526676   -1.642966
    120          1           0        3.417463    0.202287   -1.577021
    121          6           0        3.176131    1.382139   -3.166259
    122          8           0       -1.732551    4.710177   -2.221733
    123          1           0       -0.186862    4.442156    4.680310
 ---------------------------------------------------------------------

 SCF Done:  E(RB3LYP) =  -2974.37926485     A.U. after    3 cycles

 Alpha  occ. eigenvalues --  -19.28129 -19.26235 -19.23347 -19.22478 -19.22064
 Alpha  occ. eigenvalues --  -19.20642 -19.20581 -19.19578 -19.18650 -19.17621
 Alpha  occ. eigenvalues --  -19.17000 -14.49413 -14.48368 -14.48312 -14.46813
 Alpha  occ. eigenvalues --  -14.45816 -14.45164 -14.44812 -14.43918 -14.43248
 Alpha  occ. eigenvalues --  -14.42970 -10.44612 -10.40749 -10.39478 -10.38839
 Alpha  occ. eigenvalues --  -10.37606 -10.37415 -10.36476 -10.35728 -10.34929
 Alpha  occ. eigenvalues --  -10.33860 -10.33605 -10.33013 -10.32639 -10.32355
 Alpha  occ. eigenvalues --  -10.32026 -10.31409 -10.30990 -10.29948 -10.28748
 Alpha  occ. eigenvalues --  -10.27842 -10.27790 -10.27723 -10.27680 -10.27665
 Alpha  occ. eigenvalues --  -10.27664 -10.27643 -10.27428 -10.27287 -10.27199
 Alpha  occ. eigenvalues --  -10.26616 -10.26581 -10.26463 -10.25803 -10.25483
 Alpha  occ. eigenvalues --  -10.25382 -10.25307 -10.25207 -10.25079 -10.24841
 Alpha  occ. eigenvalues --  -10.24199 -10.24120  -1.19163  -1.14896  -1.14304
 Alpha  occ. eigenvalues --   -1.13778  -1.13388  -1.12463  -1.12312  -1.11678
 Alpha  occ. eigenvalues --   -1.10727  -1.10539  -1.09839  -1.03979  -1.03192
 Alpha  occ. eigenvalues --   -1.03026  -1.02268  -1.02055  -1.01336  -1.01125
 Alpha  occ. eigenvalues --   -1.00296  -1.00167  -1.00011  -0.94229  -0.92314
 Alpha  occ. eigenvalues --   -0.90053  -0.89377  -0.88878  -0.87524  -0.86800
 Alpha  occ. eigenvalues --   -0.85516  -0.84411  -0.83590  -0.83507  -0.83090
 Alpha  occ. eigenvalues --   -0.81485  -0.80956  -0.80649  -0.79881  -0.77318
 Alpha  occ. eigenvalues --   -0.75392  -0.75378  -0.75190  -0.74285  -0.73840
 Alpha  occ. eigenvalues --   -0.72941  -0.72278  -0.71340  -0.70880  -0.70654
 Alpha  occ. eigenvalues --   -0.69636  -0.68730  -0.68055  -0.67924  -0.67348
 Alpha  occ. eigenvalues --   -0.67220  -0.66994  -0.66379  -0.66012  -0.65558
 Alpha  occ. eigenvalues --   -0.65440  -0.64933  -0.64279  -0.63888  -0.63115
 Alpha  occ. eigenvalues --   -0.62954  -0.62515  -0.62147  -0.61759  -0.61383
 Alpha  occ. eigenvalues --   -0.60121  -0.59729  -0.59413  -0.58930  -0.58460
 Alpha  occ. eigenvalues --   -0.58077  -0.57689  -0.57487  -0.57139  -0.56889
 Alpha  occ. eigenvalues --   -0.56512  -0.56248  -0.55694  -0.55489  -0.54893
 Alpha  occ. eigenvalues --   -0.54833  -0.54662  -0.54279  -0.54059  -0.53769
 Alpha  occ. eigenvalues --   -0.53533  -0.53353  -0.52894  -0.52778  -0.52314
 Alpha  occ. eigenvalues --   -0.52209  -0.52063  -0.51886  -0.51532  -0.51435
 Alpha  occ. eigenvalues --   -0.50912  -0.50745  -0.50251  -0.50190  -0.50080
 Alpha  occ. eigenvalues --   -0.49876  -0.49331  -0.48969  -0.48953  -0.48779
 Alpha  occ. eigenvalues --   -0.48599  -0.48340  -0.48331  -0.48181  -0.47873
 Alpha  occ. eigenvalues --   -0.47622  -0.47436  -0.47200  -0.47012  -0.46985
 Alpha  occ. eigenvalues --   -0.46698  -0.46418  -0.46109  -0.45950  -0.45804
 Alpha  occ. eigenvalues --   -0.45510  -0.45249  -0.45138  -0.44934  -0.44691
 Alpha  occ. eigenvalues --   -0.44436  -0.44224  -0.44123  -0.43857  -0.43662
 Alpha  occ. eigenvalues --   -0.43404  -0.43360  -0.43144  -0.42992  -0.42805
 Alpha  occ. eigenvalues --   -0.42273  -0.41984  -0.41883  -0.40981  -0.40586
 Alpha  occ. eigenvalues --   -0.40184  -0.40180  -0.40033  -0.40006  -0.39896
 Alpha  occ. eigenvalues --   -0.39823  -0.38341  -0.37785  -0.37188  -0.36414
 Alpha  occ. eigenvalues --   -0.36120  -0.35901  -0.35522  -0.34678  -0.34363
 Alpha  occ. eigenvalues --   -0.33939  -0.33773  -0.33712  -0.33101  -0.32882
 Alpha  occ. eigenvalues --   -0.32663  -0.31717  -0.31566  -0.31487  -0.31124
 Alpha  occ. eigenvalues --   -0.30861  -0.30126
 Alpha virt. eigenvalues --   -0.10714  -0.09331  -0.09239  -0.08538  -0.07807
 Alpha virt. eigenvalues --   -0.07351  -0.07196  -0.07078  -0.06938  -0.06796
 Alpha virt. eigenvalues --   -0.05266  -0.05223  -0.04356  -0.03634  -0.02475

 Mulliken charges:
               1
     1  N   -0.790938
     2  H    0.443963
     3  H    0.372395
     4  H    0.401333
     5  C   -0.065938
     6  H    0.199493
     7  C    0.683621
     8  C   -0.392870
     9  H    0.164559
    10  H    0.200297
    11  O   -0.556830
    12  C    0.152808
    13  C   -0.216884
    14  H    0.128910
    15  C   -0.159457
    16  H    0.139051
    17  C   -0.124330
    18  H    0.145617
    19  C   -0.126958
    20  H    0.146199
    21  C   -0.127339
    22  H    0.147601
    23  N   -0.669087
    24  H    0.409534
    25  C   -0.006187
    26  H    0.164690
    27  C    0.599455
    28  C   -0.471442
    29  H    0.147234
    30  H    0.172494
    31  H    0.209204
    32  O   -0.555186
    33  N   -0.588362
    34  H    0.344796
    35  C   -0.056535
    36  H    0.175954
    37  C    0.626015
    38  C   -0.469820
    39  H    0.175198
    40  H    0.179906
    41  H    0.165239
    42  O   -0.533810
    43  N   -0.604445
    44  H    0.365815
    45  C   -0.055163
    46  H    0.195764
    47  C    0.623762
    48  C   -0.374848
    49  H    0.208778
    50  H    0.153497
    51  O   -0.554947
    52  C    0.102598
    53  C   -0.196122
    54  H    0.136768
    55  C   -0.202418
    56  H    0.161895
    57  C   -0.159373
    58  H    0.143055
    59  C   -0.187739
    60  H    0.145425
    61  O   -0.636719
    62  H    0.419537
    63  C    0.355847
    64  N   -0.611515
    65  H    0.375737
    66  C   -0.066420
    67  H    0.189111
    68  C    0.621500
    69  C   -0.298097
    70  H    0.174637
    71  H    0.148153
    72  O   -0.575716
    73  C   -0.079068
    74  H    0.126290
    75  C   -0.454359
    76  H    0.148427
    77  H    0.151831
    78  H    0.146300
    79  C   -0.452588
    80  H    0.146310
    81  H    0.149418
    82  H    0.158440
    83  N   -0.598558
    84  H    0.382226
    85  C   -0.059666
    86  H    0.157980
    87  C    0.615873
    88  C   -0.286170
    89  H    0.183822
    90  H    0.182562
    91  O   -0.554656
    92  C   -0.398092
    93  H    0.214915
    94  H    0.196764
    95  C    0.618173
    96  O   -0.498478
    97  O   -0.547276
    98  N   -0.599445
    99  H    0.350719
   100  C   -0.067830
   101  H    0.164706
   102  C    0.614708
   103  C   -0.285618
   104  H    0.170838
   105  H    0.162917
   106  O   -0.590182
   107  C   -0.309324
   108  H    0.172899
   109  H    0.169657
   110  C   -0.140314
   111  H    0.157572
   112  H    0.188587
   113  N   -0.619685
   114  H    0.419220
   115  N   -0.758199
   116  H    0.376971
   117  H    0.378057
   118  N   -0.760256
   119  H    0.360308
   120  H    0.401835
   121  C    0.800788
   122  O   -0.613823
   123  H    0.422519
 Sum of Mulliken charges =   1.00000

 Dipole moment (field-independent basis, Debye):
    X=              1.0256    Y=              6.1185    Z=             -4.4625  Tot=              7.6421
 Quadrupole moment (field-independent basis, Debye-Ang):
   XX=           -286.3657   YY=           -253.8302   ZZ=           -298.9937
   XY=            -23.6605   XZ=            -37.5664   YZ=             -2.9248

 Normal termination of Gaussian 16 at Sun Jul 24 01:57:59 2022.
