 Gaussian 16, Revision C.01,
 Gaussian 16:  ES64L-G16RevC.01  3-Jul-2019

 ----------------------------------------------------------------------
 # B3LYP/6-31G* empiricaldispersion=gd3bj guess=read geom=check nosymm
 integral(ultrafinegrid)
 ----------------------------------------------------------------------

 ------------------------------------------------------
 Candidate Structure: Conf:746 Charge calc in gas phase
 ------------------------------------------------------
 Structure from the checkpoint file:  "conf-746.chk"
 Charge =  1 Multiplicity = 1

                          Input orientation:
 ---------------------------------------------------------------------
 Center     Atomic      Atomic             Coordinates (Angstroms)
 Number     Number       Type             X           Y           Z
 ---------------------------------------------------------------------
      1          7           0       -0.069634    5.107122    4.967917
      2          1           0        0.322858    4.502112    5.688439
      3          1           0       -0.033606    6.062831    5.321419
      4          1           0        1.193157    5.004843    3.794423
      5          6           0       -1.476125    4.716291    4.760050
      6          1           0       -2.078075    4.933008    5.656813
      7          6           0       -1.496077    3.198952    4.538699
      8          6           0       -2.117043    5.500233    3.586095
      9          1           0       -1.932027    6.566049    3.768232
     10          1           0       -3.203043    5.372975    3.653919
     11          8           0       -0.458187    2.536143    4.628219
     12          6           0       -1.656551    5.133806    2.189810
     13          6           0       -0.533181    5.746583    1.621698
     14          1           0        0.033935    6.471899    2.194972
     15          6           0       -2.381514    4.216141    1.414259
     16          1           0       -3.278900    3.762324    1.820720
     17          6           0       -0.146517    5.458698    0.311553
     18          1           0        0.716537    5.962692   -0.114424
     19          6           0       -1.997856    3.923126    0.106396
     20          1           0       -2.576905    3.220268   -0.485753
     21          6           0       -0.888086    4.557182   -0.454346
     22          1           0       -0.643817    4.389000   -1.496908
     23          7           0       -2.681259    2.654196    4.219579
     24          1           0       -3.538375    3.197116    4.196585
     25          6           0       -2.779429    1.353141    3.568986
     26          1           0       -1.906869    1.237093    2.918051
     27          6           0       -4.072623    1.407614    2.746916
     28          6           0       -2.835937    0.192956    4.571704
     29          1           0       -2.910151   -0.763883    4.044101
     30          1           0       -3.705587    0.299014    5.226802
     31          1           0       -1.927152    0.198386    5.179158
     32          8           0       -5.038342    2.062522    3.146224
     33          7           0       -4.070920    0.682043    1.612914
     34          1           0       -3.205000    0.289032    1.260042
     35          6           0       -5.275753    0.504625    0.793003
     36          1           0       -6.083445    0.189401    1.461208
     37          6           0       -4.940843   -0.694346   -0.108307
     38          6           0       -5.686780    1.798414    0.084256
     39          1           0       -6.547429    1.628684   -0.571378
     40          1           0       -4.862535    2.214980   -0.506868
     41          1           0       -5.963625    2.538736    0.836663
     42          8           0       -4.765811   -1.810112    0.362309
     43          7           0       -4.741779   -0.419774   -1.439510
     44          1           0       -4.648503    0.562103   -1.669851
     45          6           0       -3.801153   -1.267699   -2.140654
     46          1           0       -4.155115   -2.300512   -2.078962
     47          6           0       -2.453355   -1.177587   -1.393791
     48          6           0       -3.676063   -0.841900   -3.622582
     49          1           0       -3.044471   -1.570394   -4.143602
     50          1           0       -4.675833   -0.915772   -4.063128
     51          8           0       -2.247471   -0.310022   -0.538114
     52          6           0       -3.106941    0.546845   -3.783275
     53          6           0       -3.917760    1.688562   -3.683886
     54          1           0       -4.996247    1.576098   -3.593032
     55          6           0       -1.733783    0.733620   -3.972670
     56          1           0       -1.082592   -0.131750   -4.069200
     57          6           0       -3.375638    2.970080   -3.724096
     58          1           0       -4.004250    3.850662   -3.644040
     59          6           0       -1.179528    2.007329   -4.047777
     60          1           0       -0.118837    2.139240   -4.225188
     61          8           0       -1.507055    4.401699   -3.928516
     62          1           0       -0.533246    4.371400   -3.993180
     63          6           0       -1.995931    3.136586   -3.899856
     64          7           0       -1.495222   -2.088939   -1.691866
     65          1           0       -1.725414   -2.809850   -2.363474
     66          6           0       -0.462748   -2.434393   -0.705803
     67          1           0       -0.914002   -2.257602    0.280755
     68          6           0        0.771664   -1.509528   -0.702383
     69          6           0       -0.097194   -3.914454   -0.832201
     70          1           0        0.425182   -4.084643   -1.782322
     71          1           0        0.628698   -4.145376   -0.046448
     72          8           0        1.900709   -1.970484   -0.438971
     73          6           0       -1.287712   -4.885036   -0.694979
     74          1           0       -1.944936   -4.769098   -1.570295
     75          6           0       -0.766455   -6.327428   -0.711825
     76          1           0       -0.139786   -6.524071    0.167399
     77          1           0       -1.594856   -7.042557   -0.695582
     78          1           0       -0.163411   -6.528102   -1.604616
     79          6           0       -2.129047   -4.611305    0.559095
     80          1           0       -1.497294   -4.604351    1.457713
     81          1           0       -2.670480   -3.660411    0.510074
     82          1           0       -2.879404   -5.396896    0.692950
     83          7           0        0.515405   -0.207361   -0.901648
     84          1           0       -0.475745    0.047386   -0.837834
     85          6           0        1.437614    0.874366   -0.583064
     86          1           0        2.458416    0.484268   -0.626904
     87          6           0        1.107605    1.358908    0.849420
     88          6           0        1.269329    1.987710   -1.634920
     89          1           0        1.444078    1.531346   -2.612592
     90          1           0        0.226407    2.313658   -1.624396
     91          8           0        0.019028    1.118343    1.352991
     92          6           0        2.188669    3.194544   -1.457199
     93          1           0        3.249130    2.907837   -1.461474
     94          1           0        2.027574    3.717441   -0.510612
     95          6           0        1.997197    4.221163   -2.547150
     96          8           0        1.258098    4.105545   -3.510307
     97          8           0        2.739962    5.315305   -2.335375
     98          7           0        2.120319    2.001422    1.517817
     99          1           0        2.874724    2.407438    0.964971
    100          6           0        1.823450    2.833138    2.691674
    101          1           0        0.742419    2.862909    2.826227
    102          6           0        2.381679    4.232297    2.411241
    103          6           0        2.463077    2.256560    3.970902
    104          1           0        2.243207    2.932744    4.798737
    105          1           0        3.553836    2.264283    3.839654
    106          8           0        2.020376    5.199527    3.234878
    107          6           0        1.956441    0.830998    4.284881
    108          1           0        1.312593    0.492523    3.467743
    109          1           0        1.304459    0.853985    5.159526
    110          6           0        3.091375   -0.195346    4.492508
    111          1           0        3.357999   -0.304372    5.545934
    112          1           0        4.006948    0.108592    3.974635
    113          7           0        2.748679   -1.537733    3.998921
    114          1           0        2.258692   -2.164834    4.622279
    115          7           0        3.107057   -0.911094    1.788388
    116          1           0        2.934523   -1.162436    0.808216
    117          1           0        3.039539    0.081210    2.000359
    118          7           0        2.274698   -3.008146    2.248445
    119          1           0        2.187551   -3.137549    1.242275
    120          1           0        2.253931   -3.814573    2.854452
    121          6           0        2.700776   -1.811553    2.688389
    122          8           0        3.178939    4.410402    1.504878
    123          1           0        2.570816    5.933717   -3.072322
 ---------------------------------------------------------------------

 SCF Done:  E(RB3LYP) =  -2974.38115859     A.U. after    3 cycles

 Alpha  occ. eigenvalues --  -19.29107 -19.24882 -19.24236 -19.24169 -19.23516
 Alpha  occ. eigenvalues --  -19.23285 -19.22803 -19.21040 -19.20416 -19.19773
 Alpha  occ. eigenvalues --  -19.19261 -14.50627 -14.49726 -14.48223 -14.47380
 Alpha  occ. eigenvalues --  -14.46278 -14.46247 -14.43893 -14.43667 -14.43583
 Alpha  occ. eigenvalues --  -14.43547 -10.46054 -10.42324 -10.40515 -10.39654
 Alpha  occ. eigenvalues --  -10.39577 -10.39360 -10.37325 -10.36681 -10.36202
 Alpha  occ. eigenvalues --  -10.34465 -10.34409 -10.34376 -10.32779 -10.32241
 Alpha  occ. eigenvalues --  -10.31890 -10.31812 -10.30964 -10.30838 -10.29508
 Alpha  occ. eigenvalues --  -10.29194 -10.28804 -10.28587 -10.28540 -10.28476
 Alpha  occ. eigenvalues --  -10.28351 -10.28021 -10.27128 -10.26840 -10.26659
 Alpha  occ. eigenvalues --  -10.26616 -10.26043 -10.26029 -10.25971 -10.25897
 Alpha  occ. eigenvalues --  -10.25881 -10.25754 -10.25702 -10.25610 -10.25506
 Alpha  occ. eigenvalues --  -10.25481 -10.25317  -1.20461  -1.16693  -1.15880
 Alpha  occ. eigenvalues --   -1.15235  -1.14728  -1.14373  -1.12488  -1.12142
 Alpha  occ. eigenvalues --   -1.11820  -1.11221  -1.10989  -1.08643  -1.04599
 Alpha  occ. eigenvalues --   -1.04116  -1.03156  -1.02791  -1.02142  -1.01201
 Alpha  occ. eigenvalues --   -1.00738  -1.00032  -0.99654  -0.92926  -0.92750
 Alpha  occ. eigenvalues --   -0.91313  -0.90647  -0.89673  -0.87813  -0.86850
 Alpha  occ. eigenvalues --   -0.85882  -0.85238  -0.84916  -0.83131  -0.82901
 Alpha  occ. eigenvalues --   -0.82152  -0.81478  -0.80243  -0.79885  -0.78828
 Alpha  occ. eigenvalues --   -0.76733  -0.76339  -0.75786  -0.74782  -0.74467
 Alpha  occ. eigenvalues --   -0.74103  -0.73409  -0.72501  -0.71513  -0.70523
 Alpha  occ. eigenvalues --   -0.70030  -0.69777  -0.69328  -0.68881  -0.68209
 Alpha  occ. eigenvalues --   -0.68057  -0.67692  -0.67244  -0.67132  -0.66496
 Alpha  occ. eigenvalues --   -0.66086  -0.65802  -0.65729  -0.65449  -0.65132
 Alpha  occ. eigenvalues --   -0.63586  -0.63068  -0.62577  -0.61887  -0.61667
 Alpha  occ. eigenvalues --   -0.61030  -0.60353  -0.60167  -0.59620  -0.59267
 Alpha  occ. eigenvalues --   -0.59218  -0.58755  -0.58329  -0.58233  -0.57415
 Alpha  occ. eigenvalues --   -0.57164  -0.56948  -0.56533  -0.56014  -0.55861
 Alpha  occ. eigenvalues --   -0.55631  -0.55249  -0.55124  -0.54844  -0.54239
 Alpha  occ. eigenvalues --   -0.54034  -0.53504  -0.53236  -0.53148  -0.52941
 Alpha  occ. eigenvalues --   -0.52867  -0.52710  -0.52349  -0.52168  -0.52144
 Alpha  occ. eigenvalues --   -0.51846  -0.51562  -0.51421  -0.51015  -0.50820
 Alpha  occ. eigenvalues --   -0.50601  -0.50208  -0.49741  -0.49654  -0.49416
 Alpha  occ. eigenvalues --   -0.49154  -0.49002  -0.48734  -0.48676  -0.48446
 Alpha  occ. eigenvalues --   -0.48215  -0.48060  -0.47703  -0.47578  -0.47391
 Alpha  occ. eigenvalues --   -0.47152  -0.46979  -0.46726  -0.46439  -0.46395
 Alpha  occ. eigenvalues --   -0.46295  -0.45999  -0.45880  -0.45821  -0.45340
 Alpha  occ. eigenvalues --   -0.45168  -0.45072  -0.44805  -0.44625  -0.44391
 Alpha  occ. eigenvalues --   -0.44093  -0.44077  -0.43701  -0.43250  -0.42654
 Alpha  occ. eigenvalues --   -0.42505  -0.42257  -0.41807  -0.41762  -0.41658
 Alpha  occ. eigenvalues --   -0.41479  -0.41219  -0.41022  -0.40918  -0.40418
 Alpha  occ. eigenvalues --   -0.39899  -0.39439  -0.39195  -0.38203  -0.37915
 Alpha  occ. eigenvalues --   -0.37760  -0.37154  -0.37128  -0.36347  -0.36230
 Alpha  occ. eigenvalues --   -0.35607  -0.34942  -0.34580  -0.34461  -0.33899
 Alpha  occ. eigenvalues --   -0.33334  -0.33045  -0.32602  -0.32307  -0.31907
 Alpha  occ. eigenvalues --   -0.31653  -0.28844
 Alpha virt. eigenvalues --   -0.10827  -0.10030  -0.09811  -0.09386  -0.09155
 Alpha virt. eigenvalues --   -0.07952  -0.07786  -0.07420  -0.07263  -0.06788
 Alpha virt. eigenvalues --   -0.06499  -0.06357  -0.05773  -0.04726  -0.03278

 Mulliken charges:
               1
     1  N   -0.776375
     2  H    0.342047
     3  H    0.334991
     4  H    0.487928
     5  C   -0.069002
     6  H    0.166829
     7  C    0.638432
     8  C   -0.377568
     9  H    0.167039
    10  H    0.166151
    11  O   -0.553971
    12  C    0.178222
    13  C   -0.200738
    14  H    0.147805
    15  C   -0.193882
    16  H    0.142170
    17  C   -0.154321
    18  H    0.151226
    19  C   -0.140605
    20  H    0.146423
    21  C   -0.150707
    22  H    0.140914
    23  N   -0.604324
    24  H    0.357787
    25  C   -0.052620
    26  H    0.204968
    27  C    0.622072
    28  C   -0.446248
    29  H    0.155244
    30  H    0.174089
    31  H    0.165232
    32  O   -0.552195
    33  N   -0.632611
    34  H    0.382306
    35  C   -0.003721
    36  H    0.196187
    37  C    0.559531
    38  C   -0.501139
    39  H    0.166547
    40  H    0.159109
    41  H    0.203863
    42  O   -0.507125
    43  N   -0.584236
    44  H    0.353521
    45  C   -0.073023
    46  H    0.192634
    47  C    0.655347
    48  C   -0.378034
    49  H    0.154690
    50  H    0.187712
    51  O   -0.560439
    52  C    0.157964
    53  C   -0.224621
    54  H    0.146339
    55  C   -0.193884
    56  H    0.125006
    57  C   -0.160683
    58  H    0.157221
    59  C   -0.201310
    60  H    0.156845
    61  O   -0.667926
    62  H    0.454184
    63  C    0.350004
    64  N   -0.605057
    65  H    0.349456
    66  C   -0.073775
    67  H    0.202961
    68  C    0.640721
    69  C   -0.292131
    70  H    0.160954
    71  H    0.137019
    72  O   -0.589295
    73  C   -0.085042
    74  H    0.120939
    75  C   -0.443180
    76  H    0.138792
    77  H    0.164450
    78  H    0.152229
    79  C   -0.467650
    80  H    0.127251
    81  H    0.180162
    82  H    0.168010
    83  N   -0.586712
    84  H    0.414970
    85  C   -0.105108
    86  H    0.163775
    87  C    0.609912
    88  C   -0.268460
    89  H    0.179255
    90  H    0.184587
    91  O   -0.494642
    92  C   -0.403412
    93  H    0.189724
    94  H    0.227238
    95  C    0.608775
    96  O   -0.495220
    97  O   -0.538226
    98  N   -0.644916
    99  H    0.361187
   100  C   -0.108602
   101  H    0.231389
   102  C    0.629634
   103  C   -0.268026
   104  H    0.167797
   105  H    0.146779
   106  O   -0.618606
   107  C   -0.295830
   108  H    0.177961
   109  H    0.187702
   110  C   -0.191796
   111  H    0.192222
   112  H    0.187087
   113  N   -0.584872
   114  H    0.357008
   115  N   -0.803072
   116  H    0.412225
   117  H    0.394379
   118  N   -0.801646
   119  H    0.414763
   120  H    0.366350
   121  C    0.793369
   122  O   -0.490757
   123  H    0.427728
 Sum of Mulliken charges =   1.00000

 Dipole moment (field-independent basis, Debye):
    X=              3.9293    Y=             -1.9461    Z=              8.0893  Tot=              9.2013
 Quadrupole moment (field-independent basis, Debye-Ang):
   XX=           -342.0468   YY=           -293.3432   ZZ=           -279.0155
   XY=            -13.1597   XZ=             24.3876   YZ=             14.4095

 Normal termination of Gaussian 16 at Sun Jul 24 01:58:18 2022.
