 Gaussian 16, Revision C.01,
 Gaussian 16:  ES64L-G16RevC.01  3-Jul-2019

 ----------------------------------------------------------------------
 # B3LYP/6-31G* empiricaldispersion=gd3bj guess=read geom=check nosymm
 integral(ultrafinegrid)
 ----------------------------------------------------------------------

 ------------------------------------------------------
 Candidate Structure: Conf:156 Charge calc in gas phase
 ------------------------------------------------------
 Structure from the checkpoint file:  "conf-156.chk"
 Charge =  1 Multiplicity = 1

                          Input orientation:
 ---------------------------------------------------------------------
 Center     Atomic      Atomic             Coordinates (Angstroms)
 Number     Number       Type             X           Y           Z
 ---------------------------------------------------------------------
      1          7           0       -1.654242    6.102086    2.226887
      2          1           0       -2.418237    6.111086    1.530158
      3          1           0       -0.701192    5.968199    1.744733
      4          1           0       -1.710964    6.965622    2.774753
      5          6           0       -1.873539    4.883077    3.067043
      6          1           0       -0.935996    4.329963    3.089828
      7          6           0       -2.923989    4.058171    2.324094
      8          6           0       -2.292703    5.240148    4.513752
      9          1           0       -1.391607    5.546557    5.056898
     10          1           0       -2.642879    4.315057    4.983745
     11          8           0       -3.780417    4.614625    1.635963
     12          6           0       -3.331912    6.332567    4.598492
     13          6           0       -2.937248    7.646832    4.885921
     14          1           0       -1.895258    7.853492    5.125534
     15          6           0       -4.684109    6.076800    4.335665
     16          1           0       -5.006099    5.066302    4.105301
     17          6           0       -3.870261    8.686325    4.906122
     18          1           0       -3.548762    9.697226    5.138528
     19          6           0       -5.616753    7.111144    4.360766
     20          1           0       -6.662014    6.897558    4.157994
     21          6           0       -5.212473    8.418749    4.641971
     22          1           0       -5.942565    9.222204    4.660691
     23          7           0       -2.853472    2.729109    2.532367
     24          1           0       -2.007687    2.316571    2.920919
     25          6           0       -3.738355    1.823065    1.814770
     26          1           0       -4.762617    2.190694    1.932419
     27          6           0       -3.581364    0.442959    2.455335
     28          6           0       -3.391789    1.761603    0.316034
     29          1           0       -4.037403    1.048211   -0.207070
     30          1           0       -2.347485    1.462478    0.189377
     31          1           0       -3.514266    2.752776   -0.122629
     32          8           0       -2.491545    0.071918    2.896064
     33          7           0       -4.696359   -0.328114    2.459792
     34          1           0       -5.517987    0.007164    1.972979
     35          6           0       -4.686419   -1.750283    2.836643
     36          1           0       -4.022438   -1.838042    3.700563
     37          6           0       -4.101169   -2.524355    1.638378
     38          6           0       -6.093530   -2.216468    3.177645
     39          1           0       -6.069610   -3.253157    3.524517
     40          1           0       -6.730120   -2.182974    2.288436
     41          1           0       -6.525246   -1.593678    3.966448
     42          8           0       -4.802069   -2.936098    0.719689
     43          7           0       -2.744687   -2.617828    1.661964
     44          1           0       -2.240131   -2.083107    2.366670
     45          6           0       -1.983885   -2.863726    0.451808
     46          1           0       -2.281717   -3.825962    0.023341
     47          6           0       -0.509944   -2.898819    0.864082
     48          6           0       -2.270548   -1.720685   -0.568620
     49          1           0       -3.354350   -1.739547   -0.723425
     50          1           0       -2.030173   -0.781824   -0.061991
     51          8           0       -0.134578   -2.475023    1.955678
     52          6           0       -1.560664   -1.757677   -1.899621
     53          6           0       -0.964395   -0.589239   -2.390315
     54          1           0       -1.010135    0.321355   -1.800674
     55          6           0       -1.488106   -2.911418   -2.692271
     56          1           0       -1.984285   -3.824581   -2.372374
     57          6           0       -0.301593   -0.568143   -3.610512
     58          1           0        0.137079    0.349567   -3.985713
     59          6           0       -0.773554   -2.921876   -3.894460
     60          1           0       -0.698737   -3.837747   -4.476594
     61          8           0        0.620765   -1.705713   -5.481249
     62          1           0        0.465473   -2.502867   -6.013166
     63          6           0       -0.171158   -1.746750   -4.343001
     64          7           0        0.359836   -3.389101   -0.062767
     65          1           0        0.016860   -3.482367   -1.011898
     66          6           0        1.794013   -3.125697    0.066182
     67          1           0        2.142449   -3.568000    1.002725
     68          6           0        1.950103   -1.595871    0.111571
     69          6           0        2.533053   -3.731653   -1.127251
     70          1           0        2.138024   -3.258283   -2.035295
     71          1           0        3.592578   -3.452928   -1.059857
     72          8           0        1.671991   -0.911532   -0.882887
     73          6           0        2.410146   -5.259368   -1.263499
     74          1           0        1.341646   -5.513149   -1.303736
     75          6           0        3.052667   -5.707112   -2.582026
     76          1           0        4.124613   -5.474052   -2.595424
     77          1           0        2.945233   -6.787228   -2.725205
     78          1           0        2.589421   -5.206488   -3.441720
     79          6           0        3.026801   -5.998651   -0.070560
     80          1           0        4.087243   -5.740440    0.043536
     81          1           0        2.516099   -5.762441    0.868982
     82          1           0        2.962175   -7.082355   -0.212591
     83          7           0        2.310530   -1.066653    1.295076
     84          1           0        2.256512   -1.711917    2.074583
     85          6           0        2.035208    0.317872    1.673446
     86          1           0        0.998042    0.352863    2.031750
     87          6           0        2.215797    1.302287    0.505568
     88          6           0        2.993663    0.764782    2.809867
     89          1           0        3.388266   -0.125565    3.311570
     90          1           0        3.851268    1.277231    2.366002
     91          8           0        3.264172    1.367955   -0.146820
     92          6           0        2.326438    1.645046    3.892334
     93          1           0        3.107484    2.058173    4.536790
     94          1           0        1.648406    1.036797    4.496375
     95          6           0        1.500710    2.767204    3.303669
     96          8           0        0.283287    2.669874    3.160510
     97          8           0        2.213180    3.812282    2.914188
     98          7           0        1.209696    2.190526    0.391015
     99          1           0        0.382367    2.058256    0.959127
    100          6           0        1.372563    3.519246   -0.207796
    101          1           0        2.337153    3.904196    0.133731
    102          6           0        0.259158    4.388146    0.415518
    103          6           0        1.355997    3.495058   -1.752097
    104          1           0        0.691882    4.279644   -2.126072
    105          1           0        0.912432    2.544201   -2.066624
    106          8           0        0.660256    5.274999    1.267190
    107          6           0        2.771353    3.657032   -2.347405
    108          1           0        3.526722    3.444633   -1.585013
    109          1           0        2.935235    4.688119   -2.677222
    110          6           0        3.032359    2.735330   -3.534364
    111          1           0        3.990259    2.980858   -4.010324
    112          1           0        2.238469    2.861345   -4.282676
    113          7           0        3.044115    1.340331   -3.083318
    114          1           0        3.201500    1.180095   -2.079735
    115          7           0        2.724393    0.438671   -5.216050
    116          1           0        2.165546   -0.257282   -5.700394
    117          1           0        2.753957    1.360127   -5.624404
    118          7           0        2.833422   -0.947413   -3.367968
    119          1           0        2.568911   -1.684360   -4.007980
    120          1           0        2.475759   -1.046360   -2.406460
    121          6           0        2.855752    0.293355   -3.879227
    122          8           0       -0.915955    4.150344    0.110473
    123          1           0        1.639165    4.456317    2.382804
 ---------------------------------------------------------------------

 SCF Done:  E(RB3LYP) =  -2974.38782186     A.U. after    1 cycles

 Alpha  occ. eigenvalues --  -19.29519 -19.25920 -19.22202 -19.21940 -19.21208
 Alpha  occ. eigenvalues --  -19.20414 -19.20296 -19.19914 -19.19195 -19.18559
 Alpha  occ. eigenvalues --  -19.17662 -14.49429 -14.47992 -14.47524 -14.46035
 Alpha  occ. eigenvalues --  -14.45794 -14.45118 -14.44973 -14.44424 -14.43739
 Alpha  occ. eigenvalues --  -14.42509 -10.43632 -10.40137 -10.38790 -10.37923
 Alpha  occ. eigenvalues --  -10.37797 -10.37316 -10.36852 -10.35891 -10.35459
 Alpha  occ. eigenvalues --  -10.35002 -10.33063 -10.32822 -10.32688 -10.32028
 Alpha  occ. eigenvalues --  -10.31920 -10.31500 -10.30887 -10.30198 -10.29140
 Alpha  occ. eigenvalues --  -10.28785 -10.28719 -10.28640 -10.28423 -10.28238
 Alpha  occ. eigenvalues --  -10.28223 -10.28027 -10.27970 -10.27496 -10.27493
 Alpha  occ. eigenvalues --  -10.27412 -10.27129 -10.26692 -10.26259 -10.25902
 Alpha  occ. eigenvalues --  -10.25792 -10.25707 -10.25616 -10.25433 -10.25322
 Alpha  occ. eigenvalues --  -10.24998 -10.24893  -1.17670  -1.16734  -1.14448
 Alpha  occ. eigenvalues --   -1.13052  -1.12600  -1.12508  -1.12096  -1.11880
 Alpha  occ. eigenvalues --   -1.11392  -1.10350  -1.08734  -1.04984  -1.02760
 Alpha  occ. eigenvalues --   -1.02545  -1.02107  -1.02010  -1.01110  -1.00866
 Alpha  occ. eigenvalues --   -1.00576  -1.00298  -0.99742  -0.95161  -0.92776
 Alpha  occ. eigenvalues --   -0.90249  -0.89351  -0.88459  -0.87861  -0.87303
 Alpha  occ. eigenvalues --   -0.85771  -0.84617  -0.84575  -0.83641  -0.83329
 Alpha  occ. eigenvalues --   -0.81554  -0.81369  -0.80607  -0.80361  -0.76752
 Alpha  occ. eigenvalues --   -0.76147  -0.75762  -0.74758  -0.74451  -0.73955
 Alpha  occ. eigenvalues --   -0.73154  -0.72421  -0.72112  -0.71188  -0.70148
 Alpha  occ. eigenvalues --   -0.69583  -0.68903  -0.68377  -0.67965  -0.67649
 Alpha  occ. eigenvalues --   -0.67106  -0.66904  -0.66417  -0.66012  -0.65800
 Alpha  occ. eigenvalues --   -0.65520  -0.64938  -0.64905  -0.64796  -0.64395
 Alpha  occ. eigenvalues --   -0.63692  -0.62575  -0.62107  -0.61805  -0.61334
 Alpha  occ. eigenvalues --   -0.60341  -0.59788  -0.58923  -0.58908  -0.58335
 Alpha  occ. eigenvalues --   -0.58154  -0.57671  -0.57451  -0.57058  -0.56554
 Alpha  occ. eigenvalues --   -0.56475  -0.56120  -0.55750  -0.55375  -0.55337
 Alpha  occ. eigenvalues --   -0.54969  -0.54746  -0.54515  -0.54047  -0.54038
 Alpha  occ. eigenvalues --   -0.53574  -0.53423  -0.52798  -0.52673  -0.52492
 Alpha  occ. eigenvalues --   -0.52336  -0.52249  -0.52099  -0.51997  -0.51735
 Alpha  occ. eigenvalues --   -0.51586  -0.51417  -0.50983  -0.50737  -0.50541
 Alpha  occ. eigenvalues --   -0.50130  -0.49890  -0.49746  -0.49512  -0.49285
 Alpha  occ. eigenvalues --   -0.48894  -0.48720  -0.48535  -0.48236  -0.48107
 Alpha  occ. eigenvalues --   -0.47884  -0.47753  -0.47511  -0.47387  -0.47281
 Alpha  occ. eigenvalues --   -0.46738  -0.46636  -0.46448  -0.46123  -0.45724
 Alpha  occ. eigenvalues --   -0.45490  -0.45393  -0.45065  -0.44884  -0.44846
 Alpha  occ. eigenvalues --   -0.44775  -0.44454  -0.44183  -0.44136  -0.43895
 Alpha  occ. eigenvalues --   -0.43663  -0.43430  -0.43323  -0.43047  -0.42799
 Alpha  occ. eigenvalues --   -0.42608  -0.42532  -0.42425  -0.41805  -0.41081
 Alpha  occ. eigenvalues --   -0.41002  -0.40941  -0.40803  -0.40625  -0.39437
 Alpha  occ. eigenvalues --   -0.39314  -0.37405  -0.36835  -0.36659  -0.35863
 Alpha  occ. eigenvalues --   -0.35574  -0.35272  -0.35062  -0.34849  -0.34651
 Alpha  occ. eigenvalues --   -0.34293  -0.33967  -0.33913  -0.33728  -0.33272
 Alpha  occ. eigenvalues --   -0.32953  -0.32800  -0.32012  -0.31784  -0.31642
 Alpha  occ. eigenvalues --   -0.31290  -0.30921
 Alpha virt. eigenvalues --   -0.10597  -0.09505  -0.08685  -0.08477  -0.07928
 Alpha virt. eigenvalues --   -0.07696  -0.07441  -0.07175  -0.07044  -0.06803
 Alpha virt. eigenvalues --   -0.05678  -0.04762  -0.04378  -0.03606  -0.02847

 Mulliken charges:
               1
     1  N   -0.773238
     2  H    0.406992
     3  H    0.436662
     4  H    0.376270
     5  C   -0.102151
     6  H    0.231687
     7  C    0.671048
     8  C   -0.387048
     9  H    0.170327
    10  H    0.187098
    11  O   -0.548984
    12  C    0.147686
    13  C   -0.221100
    14  H    0.134194
    15  C   -0.154183
    16  H    0.140623
    17  C   -0.123617
    18  H    0.148519
    19  C   -0.127489
    20  H    0.148530
    21  C   -0.126869
    22  H    0.149926
    23  N   -0.637351
    24  H    0.383300
    25  C   -0.044570
    26  H    0.172764
    27  C    0.623099
    28  C   -0.456741
    29  H    0.148079
    30  H    0.160132
    31  H    0.214711
    32  O   -0.546687
    33  N   -0.598733
    34  H    0.343717
    35  C   -0.057746
    36  H    0.181538
    37  C    0.621174
    38  C   -0.471023
    39  H    0.177940
    40  H    0.178514
    41  H    0.162760
    42  O   -0.527373
    43  N   -0.611115
    44  H    0.382519
    45  C   -0.067126
    46  H    0.185255
    47  C    0.633004
    48  C   -0.383865
    49  H    0.211690
    50  H    0.164789
    51  O   -0.539888
    52  C    0.169323
    53  C   -0.167599
    54  H    0.158649
    55  C   -0.245731
    56  H    0.160037
    57  C   -0.159186
    58  H    0.136876
    59  C   -0.183934
    60  H    0.145324
    61  O   -0.683088
    62  H    0.427659
    63  C    0.332224
    64  N   -0.609737
    65  H    0.355635
    66  C   -0.048549
    67  H    0.171317
    68  C    0.647551
    69  C   -0.304426
    70  H    0.129243
    71  H    0.161186
    72  O   -0.577672
    73  C   -0.073996
    74  H    0.133380
    75  C   -0.443109
    76  H    0.152370
    77  H    0.162213
    78  H    0.123346
    79  C   -0.455042
    80  H    0.148853
    81  H    0.154327
    82  H    0.162335
    83  N   -0.585306
    84  H    0.356955
    85  C   -0.038529
    86  H    0.194515
    87  C    0.643346
    88  C   -0.316939
    89  H    0.164025
    90  H    0.202405
    91  O   -0.574191
    92  C   -0.331263
    93  H    0.187152
    94  H    0.182797
    95  C    0.579717
    96  O   -0.512038
    97  O   -0.582715
    98  N   -0.622956
    99  H    0.368094
   100  C    0.017378
   101  H    0.173644
   102  C    0.556033
   103  C   -0.289854
   104  H    0.173744
   105  H    0.157484
   106  O   -0.651047
   107  C   -0.311651
   108  H    0.189907
   109  H    0.166519
   110  C   -0.158089
   111  H    0.180764
   112  H    0.154837
   113  N   -0.619549
   114  H    0.423351
   115  N   -0.768403
   116  H    0.391030
   117  H    0.367540
   118  N   -0.794154
   119  H    0.353046
   120  H    0.435610
   121  C    0.758424
   122  O   -0.547897
   123  H    0.458838
 Sum of Mulliken charges =   1.00000

 Dipole moment (field-independent basis, Debye):
    X=              1.8924    Y=              3.3799    Z=             -4.7392  Tot=              6.1209
 Quadrupole moment (field-independent basis, Debye-Ang):
   XX=           -319.8982   YY=           -263.2582   ZZ=           -259.5348
   XY=            -28.5461   XZ=            -42.4759   YZ=             42.8127

 Normal termination of Gaussian 16 at Sun Jul 24 01:49:29 2022.
