 Gaussian 16, Revision C.01,
 Gaussian 16:  ES64L-G16RevC.01  3-Jul-2019

 ----------------------------------------------------------------------
 # B3LYP/6-31G* empiricaldispersion=gd3bj guess=read geom=check nosymm
 integral(ultrafinegrid)
 ----------------------------------------------------------------------

 ------------------------------------------------------
 Candidate Structure: Conf:727 Charge calc in gas phase
 ------------------------------------------------------
 Structure from the checkpoint file:  "conf-727.chk"
 Charge =  1 Multiplicity = 1

                          Input orientation:
 ---------------------------------------------------------------------
 Center     Atomic      Atomic             Coordinates (Angstroms)
 Number     Number       Type             X           Y           Z
 ---------------------------------------------------------------------
      1          7           0       -9.227385   -0.852183    4.694416
      2          1           0      -10.205714   -0.817739    4.393828
      3          1           0       -9.142073   -1.529256    5.457854
      4          1           0       -8.623614   -1.130130    3.861418
      5          6           0       -8.657521    0.508192    5.041051
      6          1           0       -9.485752    1.204757    5.179913
      7          6           0       -7.820316    0.852659    3.783349
      8          6           0       -7.798500    0.421169    6.325140
      9          1           0       -7.038017   -0.356592    6.187356
     10          1           0       -8.451686    0.115719    7.152754
     11          8           0       -7.576737   -0.081726    2.995480
     12          6           0       -7.135470    1.750111    6.612287
     13          6           0       -5.768841    1.921956    6.368661
     14          1           0       -5.166482    1.072922    6.063209
     15          6           0       -7.909885    2.856376    6.988683
     16          1           0       -8.969932    2.734202    7.202492
     17          6           0       -5.185336    3.184635    6.467381
     18          1           0       -4.132265    3.309446    6.241184
     19          6           0       -7.326098    4.120304    7.093031
     20          1           0       -7.932108    4.971872    7.386279
     21          6           0       -5.965703    4.286781    6.821522
     22          1           0       -5.514808    5.271558    6.890496
     23          7           0       -7.403675    2.103629    3.662368
     24          1           0       -7.590729    2.739280    4.431333
     25          6           0       -6.428961    2.577245    2.658689
     26          1           0       -6.670794    2.090055    1.710476
     27          6           0       -4.995338    2.159668    3.070997
     28          6           0       -6.553151    4.087201    2.536504
     29          1           0       -5.782903    4.455279    1.860221
     30          1           0       -6.402633    4.567831    3.509108
     31          1           0       -7.535911    4.351527    2.137061
     32          8           0       -4.120336    2.992011    3.291700
     33          7           0       -4.805070    0.822916    3.199716
     34          1           0       -5.501451    0.195536    2.811670
     35          6           0       -3.511731    0.253330    3.589104
     36          1           0       -3.025255    1.008759    4.213347
     37          6           0       -2.643847    0.021886    2.335655
     38          6           0       -3.709904   -1.044044    4.362271
     39          1           0       -2.743405   -1.449028    4.670163
     40          1           0       -4.189361   -1.799892    3.733609
     41          1           0       -4.319463   -0.871322    5.256172
     42          8           0       -2.355184   -1.118237    1.962973
     43          7           0       -2.274248    1.143617    1.687406
     44          1           0       -2.556652    2.042278    2.066385
     45          6           0       -1.646701    1.091238    0.363989
     46          1           0       -2.018219    0.190355   -0.130105
     47          6           0       -0.119051    0.939114    0.496310
     48          6           0       -2.011532    2.310860   -0.477397
     49          1           0       -1.483974    3.190029   -0.093443
     50          1           0       -1.604529    2.129975   -1.478446
     51          8           0        0.667155    1.827310    0.172742
     52          6           0       -3.497978    2.580533   -0.562377
     53          6           0       -4.442980    1.546951   -0.649362
     54          1           0       -4.109287    0.515485   -0.677932
     55          6           0       -3.967429    3.897374   -0.590278
     56          1           0       -3.256185    4.717047   -0.532291
     57          6           0       -5.806657    1.818521   -0.737234
     58          1           0       -6.534725    1.016523   -0.815418
     59          6           0       -5.328202    4.186541   -0.697378
     60          1           0       -5.667827    5.220442   -0.718687
     61          8           0       -7.610874    3.357222   -0.778000
     62          1           0       -7.773187    4.296085   -0.960005
     63          6           0       -6.253413    3.143020   -0.754922
     64          7           0        0.255518   -0.262781    0.996137
     65          1           0       -0.474229   -0.944384    1.189288
     66          6           0        1.657627   -0.663443    1.122965
     67          1           0        2.225694    0.250388    1.314733
     68          6           0        2.060455   -1.244245   -0.251521
     69          6           0        1.836993   -1.675688    2.251198
     70          1           0        1.441177   -2.639391    1.911501
     71          1           0        2.915005   -1.827102    2.394605
     72          8           0        2.050708   -2.452278   -0.479626
     73          6           0        1.189657   -1.277575    3.588556
     74          1           0        0.101587   -1.237188    3.437040
     75          6           0        1.472498   -2.353258    4.644056
     76          1           0        2.547879   -2.425539    4.849947
     77          1           0        0.968644   -2.122968    5.590621
     78          1           0        1.131077   -3.339320    4.308459
     79          6           0        1.649295    0.103022    4.072906
     80          1           0        2.740684    0.134078    4.185334
     81          1           0        1.360472    0.895852    3.375089
     82          1           0        1.210692    0.340701    5.049732
     83          7           0        2.288190   -0.290563   -1.183772
     84          1           0        2.260764    0.691499   -0.922990
     85          6           0        2.286576   -0.552571   -2.606880
     86          1           0        2.646469   -1.571923   -2.769589
     87          6           0        3.200707    0.476608   -3.294101
     88          6           0        0.866443   -0.389064   -3.203478
     89          1           0        0.539704    0.636487   -2.987399
     90          1           0        0.910204   -0.494030   -4.292940
     91          8           0        3.509770    1.524323   -2.724082
     92          6           0       -0.154612   -1.387578   -2.621719
     93          1           0       -0.135087   -1.369532   -1.532855
     94          1           0        0.084398   -2.401121   -2.956443
     95          6           0       -1.548547   -1.018812   -3.051613
     96          8           0       -2.366258   -0.418976   -2.373868
     97          8           0       -1.809814   -1.384550   -4.322970
     98          7           0        3.545433    0.145385   -4.553523
     99          1           0        3.042810   -0.604663   -5.048796
    100          6           0        3.940648    1.124814   -5.558090
    101          1           0        3.364059    2.046632   -5.407145
    102          6           0        3.547331    0.493204   -6.957393
    103          6           0        5.427106    1.487903   -5.496886
    104          1           0        5.686457    1.812763   -4.482026
    105          1           0        5.582747    2.323948   -6.186456
    106          8           0        4.112837    1.003319   -7.948420
    107          6           0        6.291777    0.314054   -5.953946
    108          1           0        5.937310    0.058723   -6.960760
    109          1           0        6.147577   -0.550222   -5.294754
    110          6           0        7.770780    0.660508   -6.037740
    111          1           0        8.230815    0.744344   -5.045682
    112          1           0        7.906534    1.606458   -6.577576
    113          7           0        8.463053   -0.415370   -6.783938
    114          1           0        7.853039   -1.033664   -7.307366
    115          7           0       10.606345    0.398741   -6.467745
    116          1           0       11.576447    0.181590   -6.292207
    117          1           0       10.234287    1.235215   -6.041935
    118          7           0       10.299051   -1.641298   -7.518006
    119          1           0       11.207044   -1.581032   -7.957093
    120          1           0        9.687012   -2.368648   -7.860915
    121          6           0        9.769079   -0.546891   -6.927987
    122          8           0        2.741003   -0.471492   -6.885350
    123          1           0       -2.702682   -1.052207   -4.533352
 ---------------------------------------------------------------------

 SCF Done:  E(RB3LYP) =  -2974.24035372     A.U. after    3 cycles

 Alpha  occ. eigenvalues --  -19.28146 -19.24215 -19.22801 -19.21363 -19.18410
 Alpha  occ. eigenvalues --  -19.17434 -19.15273 -19.12945 -19.11488 -19.05063
 Alpha  occ. eigenvalues --  -19.04279 -14.61186 -14.50696 -14.49753 -14.49618
 Alpha  occ. eigenvalues --  -14.49060 -14.45215 -14.42085 -14.39101 -14.36667
 Alpha  occ. eigenvalues --  -14.33785 -10.45681 -10.44558 -10.42036 -10.38340
 Alpha  occ. eigenvalues --  -10.35336 -10.35295 -10.35217 -10.34005 -10.32145
 Alpha  occ. eigenvalues --  -10.32089 -10.31476 -10.30865 -10.30792 -10.30775
 Alpha  occ. eigenvalues --  -10.30183 -10.30155 -10.30058 -10.29721 -10.29637
 Alpha  occ. eigenvalues --  -10.28260 -10.27367 -10.26931 -10.26334 -10.25615
 Alpha  occ. eigenvalues --  -10.24817 -10.24634 -10.24478 -10.24400 -10.24307
 Alpha  occ. eigenvalues --  -10.24300 -10.23274 -10.23106 -10.22260 -10.22159
 Alpha  occ. eigenvalues --  -10.22083 -10.21596 -10.21048 -10.20754 -10.20684
 Alpha  occ. eigenvalues --  -10.20021 -10.19316  -1.20484  -1.15038  -1.14350
 Alpha  occ. eigenvalues --   -1.13806  -1.13244  -1.12017  -1.10141  -1.07402
 Alpha  occ. eigenvalues --   -1.07089  -1.04813  -1.04551  -1.03231  -1.03026
 Alpha  occ. eigenvalues --   -1.02709  -1.01707  -0.98552  -0.98177  -0.98053
 Alpha  occ. eigenvalues --   -0.95838  -0.94002  -0.93570  -0.91291  -0.90996
 Alpha  occ. eigenvalues --   -0.89249  -0.88846  -0.86336  -0.85707  -0.85320
 Alpha  occ. eigenvalues --   -0.85296  -0.84268  -0.83431  -0.82352  -0.80866
 Alpha  occ. eigenvalues --   -0.80528  -0.79378  -0.78319  -0.77307  -0.75855
 Alpha  occ. eigenvalues --   -0.75755  -0.75175  -0.74562  -0.74261  -0.73825
 Alpha  occ. eigenvalues --   -0.72553  -0.72108  -0.71790  -0.71648  -0.70362
 Alpha  occ. eigenvalues --   -0.69541  -0.69396  -0.68611  -0.68357  -0.67367
 Alpha  occ. eigenvalues --   -0.67141  -0.66322  -0.65583  -0.64896  -0.64413
 Alpha  occ. eigenvalues --   -0.64023  -0.63119  -0.62703  -0.62632  -0.62372
 Alpha  occ. eigenvalues --   -0.62001  -0.61621  -0.61245  -0.60199  -0.60091
 Alpha  occ. eigenvalues --   -0.59574  -0.59385  -0.59225  -0.58948  -0.57805
 Alpha  occ. eigenvalues --   -0.57204  -0.56868  -0.56484  -0.56123  -0.55546
 Alpha  occ. eigenvalues --   -0.54724  -0.54680  -0.54604  -0.54407  -0.53307
 Alpha  occ. eigenvalues --   -0.53020  -0.52888  -0.52643  -0.52499  -0.52286
 Alpha  occ. eigenvalues --   -0.52024  -0.51841  -0.51553  -0.51245  -0.50984
 Alpha  occ. eigenvalues --   -0.50244  -0.49645  -0.49292  -0.49068  -0.48914
 Alpha  occ. eigenvalues --   -0.48712  -0.48367  -0.48185  -0.47972  -0.47686
 Alpha  occ. eigenvalues --   -0.47551  -0.47430  -0.47061  -0.46664  -0.46504
 Alpha  occ. eigenvalues --   -0.46389  -0.46092  -0.45706  -0.45611  -0.45450
 Alpha  occ. eigenvalues --   -0.45281  -0.45210  -0.44843  -0.44613  -0.44455
 Alpha  occ. eigenvalues --   -0.44323  -0.44029  -0.43745  -0.43640  -0.43081
 Alpha  occ. eigenvalues --   -0.42744  -0.42400  -0.41893  -0.41819  -0.41646
 Alpha  occ. eigenvalues --   -0.41181  -0.41001  -0.40970  -0.40544  -0.40251
 Alpha  occ. eigenvalues --   -0.40135  -0.39466  -0.39029  -0.38894  -0.38831
 Alpha  occ. eigenvalues --   -0.38540  -0.38054  -0.37882  -0.37852  -0.37204
 Alpha  occ. eigenvalues --   -0.36533  -0.36307  -0.36261  -0.36079  -0.35888
 Alpha  occ. eigenvalues --   -0.35794  -0.35467  -0.35450  -0.35356  -0.34936
 Alpha  occ. eigenvalues --   -0.34480  -0.34211  -0.33175  -0.32346  -0.31468
 Alpha  occ. eigenvalues --   -0.30955  -0.30838  -0.30220  -0.28219  -0.27560
 Alpha  occ. eigenvalues --   -0.26974  -0.25845  -0.25312  -0.24825  -0.20512
 Alpha  occ. eigenvalues --   -0.19765  -0.18659
 Alpha virt. eigenvalues --   -0.13945  -0.12332  -0.12114  -0.11494  -0.09813
 Alpha virt. eigenvalues --   -0.08244  -0.06922  -0.06180  -0.05872  -0.05093
 Alpha virt. eigenvalues --   -0.04316  -0.04298  -0.03058  -0.02691  -0.02054

 Mulliken charges:
               1
     1  N   -0.758257
     2  H    0.420966
     3  H    0.417865
     4  H    0.437947
     5  C   -0.114393
     6  H    0.220627
     7  C    0.663471
     8  C   -0.379310
     9  H    0.187809
    10  H    0.190136
    11  O   -0.565126
    12  C    0.125703
    13  C   -0.181300
    14  H    0.163870
    15  C   -0.210246
    16  H    0.138608
    17  C   -0.121357
    18  H    0.181096
    19  C   -0.127216
    20  H    0.166499
    21  C   -0.131647
    22  H    0.171890
    23  N   -0.573123
    24  H    0.369769
    25  C   -0.092642
    26  H    0.225306
    27  C    0.648955
    28  C   -0.475809
    29  H    0.212581
    30  H    0.159441
    31  H    0.158982
    32  O   -0.528664
    33  N   -0.618956
    34  H    0.367516
    35  C   -0.073197
    36  H    0.186482
    37  C    0.644783
    38  C   -0.466177
    39  H    0.194443
    40  H    0.171107
    41  H    0.129351
    42  O   -0.545068
    43  N   -0.602408
    44  H    0.365354
    45  C   -0.104611
    46  H    0.218110
    47  C    0.647927
    48  C   -0.369765
    49  H    0.170218
    50  H    0.196886
    51  O   -0.540168
    52  C    0.149476
    53  C   -0.176661
    54  H    0.168734
    55  C   -0.190195
    56  H    0.144429
    57  C   -0.201640
    58  H    0.139024
    59  C   -0.211713
    60  H    0.127340
    61  O   -0.659917
    62  H    0.410959
    63  C    0.357735
    64  N   -0.629063
    65  H    0.376059
    66  C   -0.066164
    67  H    0.173594
    68  C    0.620915
    69  C   -0.280355
    70  H    0.164652
    71  H    0.143279
    72  O   -0.547714
    73  C   -0.075892
    74  H    0.120009
    75  C   -0.440647
    76  H    0.144079
    77  H    0.128207
    78  H    0.144539
    79  C   -0.452980
    80  H    0.143612
    81  H    0.158690
    82  H    0.127709
    83  N   -0.598207
    84  H    0.369381
    85  C   -0.070965
    86  H    0.175894
    87  C    0.601309
    88  C   -0.296464
    89  H    0.158194
    90  H    0.197082
    91  O   -0.549226
    92  C   -0.332695
    93  H    0.177598
    94  H    0.182611
    95  C    0.561035
    96  O   -0.484923
    97  O   -0.539569
    98  N   -0.614272
    99  H    0.351782
   100  C   -0.065202
   101  H    0.147520
   102  C    0.561352
   103  C   -0.250845
   104  H    0.142663
   105  H    0.146644
   106  O   -0.607083
   107  C   -0.327953
   108  H    0.193517
   109  H    0.159020
   110  C   -0.149496
   111  H    0.172100
   112  H    0.184512
   113  N   -0.594613
   114  H    0.374489
   115  N   -0.755612
   116  H    0.378990
   117  H    0.394815
   118  N   -0.758678
   119  H    0.377293
   120  H    0.381786
   121  C    0.817030
   122  O   -0.604041
   123  H    0.408862
 Sum of Mulliken charges =   1.00000

 Dipole moment (field-independent basis, Debye):
    X=            -15.4341    Y=              1.0806    Z=             17.7086  Tot=             23.5154
 Quadrupole moment (field-independent basis, Debye-Ang):
   XX=            344.9928   YY=           -329.9449   ZZ=           -205.5562
   XY=            -52.6211   XZ=           -385.4954   YZ=             40.8682

 Normal termination of Gaussian 16 at Sun Jul 24 01:57:20 2022.
