 Gaussian 16, Revision C.01,
 Gaussian 16:  ES64L-G16RevC.01  3-Jul-2019

 ----------------------------------------------------------------------
 # B3LYP/6-31G* empiricaldispersion=gd3bj guess=read geom=check nosymm
 integral(ultrafinegrid)
 ----------------------------------------------------------------------

 ------------------------------------------------------
 Candidate Structure: Conf:961 Charge calc in gas phase
 ------------------------------------------------------
 Structure from the checkpoint file:  "conf-961.chk"
 Charge =  1 Multiplicity = 1

                          Input orientation:
 ---------------------------------------------------------------------
 Center     Atomic      Atomic             Coordinates (Angstroms)
 Number     Number       Type             X           Y           Z
 ---------------------------------------------------------------------
      1          7           0      -10.565744    7.382076    2.731808
      2          1           0      -11.179015    7.283277    1.917889
      3          1           0      -10.758417    8.278776    3.186010
      4          1           0      -10.734603    6.558253    3.391272
      5          6           0       -9.100543    7.178325    2.406579
      6          1           0       -8.937022    7.382251    1.347388
      7          6           0       -8.894267    5.687595    2.766763
      8          6           0       -8.245623    8.108005    3.296050
      9          1           0       -8.543572    7.951222    4.339954
     10          1           0       -8.480153    9.147062    3.030488
     11          8           0       -9.711330    5.190934    3.565146
     12          6           0       -6.768337    7.833251    3.134663
     13          6           0       -6.082533    7.081674    4.095127
     14          1           0       -6.604032    6.741659    4.986586
     15          6           0       -6.089302    8.266077    1.989858
     16          1           0       -6.608470    8.862494    1.242228
     17          6           0       -4.737491    6.764560    3.912684
     18          1           0       -4.213805    6.181062    4.663543
     19          6           0       -4.745540    7.943718    1.804604
     20          1           0       -4.228549    8.279521    0.911429
     21          6           0       -4.069474    7.191412    2.764964
     22          1           0       -3.024569    6.937428    2.618301
     23          7           0       -7.853807    5.088253    2.223418
     24          1           0       -7.176820    5.586413    1.633719
     25          6           0       -7.344493    3.777180    2.617414
     26          1           0       -7.308950    3.732804    3.711883
     27          6           0       -5.906623    3.759533    2.054648
     28          6           0       -8.201707    2.627881    2.076168
     29          1           0       -7.773866    1.664534    2.370842
     30          1           0       -8.244409    2.658031    0.984436
     31          1           0       -9.212215    2.696535    2.487990
     32          8           0       -5.532751    4.656615    1.291406
     33          7           0       -5.144712    2.742281    2.466786
     34          1           0       -5.543020    1.935922    2.945858
     35          6           0       -3.829769    2.466146    1.907668
     36          1           0       -3.815060    2.807527    0.869327
     37          6           0       -3.697136    0.934681    1.933692
     38          6           0       -2.711719    3.173758    2.682766
     39          1           0       -1.742945    2.982666    2.213954
     40          1           0       -2.678637    2.827227    3.720610
     41          1           0       -2.896083    4.252096    2.672971
     42          8           0       -4.510006    0.242323    2.552151
     43          7           0       -2.649884    0.451209    1.241399
     44          1           0       -2.075139    1.100634    0.705516
     45          6           0       -2.538717   -0.950874    0.914796
     46          1           0       -3.062047   -1.510556    1.694472
     47          6           0       -1.051755   -1.315894    0.870655
     48          6           0       -3.196928   -1.261494   -0.476339
     49          1           0       -2.493538   -0.981072   -1.267365
     50          1           0       -3.339484   -2.344862   -0.563409
     51          8           0       -0.175434   -0.470723    1.027313
     52          6           0       -4.515124   -0.556019   -0.668432
     53          6           0       -4.554919    0.759384   -1.152561
     54          1           0       -3.628441    1.256806   -1.424364
     55          6           0       -5.722044   -1.162549   -0.313027
     56          1           0       -5.719364   -2.176675    0.077688
     57          6           0       -5.755631    1.452834   -1.273667
     58          1           0       -5.782505    2.471228   -1.647208
     59          6           0       -6.935241   -0.488934   -0.441787
     60          1           0       -7.865833   -0.981623   -0.166809
     61          8           0       -8.116648    1.534096   -1.080575
     62          1           0       -8.864856    0.943689   -0.899451
     63          6           0       -6.951470    0.819649   -0.928121
     64          7           0       -0.750293   -2.611795    0.556582
     65          1           0       -1.502913   -3.179571    0.188592
     66          6           0        0.566793   -2.877391   -0.026646
     67          1           0        1.317972   -2.576978    0.707208
     68          6           0        0.697403   -2.015841   -1.299067
     69          6           0        0.711553   -4.360969   -0.375023
     70          1           0       -0.003899   -4.592221   -1.175262
     71          1           0        1.711462   -4.506126   -0.806332
     72          8           0       -0.188957   -2.026326   -2.152437
     73          6           0        0.522711   -5.334413    0.801448
     74          1           0       -0.495584   -5.203472    1.193839
     75          6           0        0.654967   -6.778400    0.302218
     76          1           0        1.664879   -6.966501   -0.083929
     77          1           0        0.470263   -7.492764    1.111745
     78          1           0       -0.055728   -6.990528   -0.504880
     79          6           0        1.503631   -5.056136    1.946283
     80          1           0        2.541853   -5.111186    1.593188
     81          1           0        1.346379   -4.067052    2.388945
     82          1           0        1.386248   -5.796296    2.745061
     83          7           0        1.817538   -1.263452   -1.390388
     84          1           0        2.469862   -1.225782   -0.618353
     85          6           0        2.023099   -0.279290   -2.435301
     86          1           0        1.499139   -0.631513   -3.327873
     87          6           0        3.520952   -0.143528   -2.709563
     88          6           0        1.497224    1.127723   -2.043245
     89          1           0        2.000734    1.426829   -1.115592
     90          1           0        1.786937    1.849602   -2.814304
     91          8           0        4.344268   -0.504548   -1.826946
     92          6           0       -0.020599    1.142491   -1.832690
     93          1           0       -0.319094    0.376685   -1.122785
     94          1           0       -0.533485    0.931379   -2.780456
     95          6           0       -0.565276    2.442639   -1.303891
     96          8           0       -1.486882    2.540119   -0.503872
     97          8           0        0.037393    3.524230   -1.816494
     98          7           0        3.819314    0.445656   -3.862490
     99          1           0        3.063704    0.950132   -4.373425
    100          6           0        5.023271    1.227248   -4.126474
    101          1           0        5.478216    1.494545   -3.168926
    102          6           0        4.529952    2.565116   -4.811954
    103          6           0        6.057558    0.517954   -5.018352
    104          1           0        5.774949    0.651133   -6.066795
    105          1           0        6.008259   -0.560684   -4.831589
    106          8           0        5.449341    3.336468   -5.124855
    107          6           0        7.486558    1.058360   -4.787836
    108          1           0        7.478727    1.753495   -3.943399
    109          1           0        7.795492    1.683493   -5.629107
    110          6           0        8.582670   -0.013569   -4.599983
    111          1           0        9.480678    0.431280   -4.157027
    112          1           0        8.878031   -0.421477   -5.570184
    113          7           0        8.181338   -1.207553   -3.809265
    114          1           0        8.342933   -2.102200   -4.251265
    115          7           0        7.070046   -0.166737   -2.035637
    116          1           0        6.098481   -0.032907   -1.713568
    117          1           0        7.644694    0.652909   -2.163372
    118          7           0        6.481824   -2.304012   -2.641374
    119          1           0        5.655238   -2.133070   -2.068487
    120          1           0        6.310745   -2.898968   -3.441497
    121          6           0        7.247337   -1.206995   -2.848139
    122          8           0        3.277528    2.638871   -4.957060
    123          1           0       -0.397153    4.308978   -1.431968
 ---------------------------------------------------------------------

 SCF Done:  E(RB3LYP) =  -2974.27660279     A.U. after    2 cycles

 Alpha  occ. eigenvalues --  -19.26141 -19.25541 -19.24297 -19.20950 -19.20019
 Alpha  occ. eigenvalues --  -19.19171 -19.18168 -19.17621 -19.16865 -19.08977
 Alpha  occ. eigenvalues --  -19.07823 -14.59426 -14.47617 -14.47089 -14.46136
 Alpha  occ. eigenvalues --  -14.45334 -14.43034 -14.42052 -14.41694 -14.40889
 Alpha  occ. eigenvalues --  -14.39915 -10.42562 -10.42061 -10.39890 -10.38860
 Alpha  occ. eigenvalues --  -10.36866 -10.34997 -10.34925 -10.34461 -10.34082
 Alpha  occ. eigenvalues --  -10.33365 -10.32898 -10.31201 -10.30680 -10.29950
 Alpha  occ. eigenvalues --  -10.29358 -10.29288 -10.29093 -10.29063 -10.28522
 Alpha  occ. eigenvalues --  -10.28385 -10.27856 -10.27828 -10.27632 -10.26753
 Alpha  occ. eigenvalues --  -10.26191 -10.25289 -10.25036 -10.24858 -10.24785
 Alpha  occ. eigenvalues --  -10.24740 -10.24682 -10.24650 -10.24641 -10.24589
 Alpha  occ. eigenvalues --  -10.24554 -10.24406 -10.24167 -10.24151 -10.23569
 Alpha  occ. eigenvalues --  -10.22520 -10.22439  -1.18097  -1.17324  -1.13095
 Alpha  occ. eigenvalues --   -1.12042  -1.11963  -1.11583  -1.10576  -1.09706
 Alpha  occ. eigenvalues --   -1.09382  -1.08548  -1.07943  -1.04591  -1.02099
 Alpha  occ. eigenvalues --   -1.00907  -0.99996  -0.99198  -0.98683  -0.98410
 Alpha  occ. eigenvalues --   -0.98220  -0.97083  -0.95941  -0.93308  -0.91985
 Alpha  occ. eigenvalues --   -0.90994  -0.87442  -0.87080  -0.86025  -0.85367
 Alpha  occ. eigenvalues --   -0.85016  -0.84182  -0.83651  -0.82265  -0.81539
 Alpha  occ. eigenvalues --   -0.80427  -0.80370  -0.78947  -0.78740  -0.77770
 Alpha  occ. eigenvalues --   -0.75572  -0.74376  -0.73496  -0.73220  -0.72765
 Alpha  occ. eigenvalues --   -0.72540  -0.71898  -0.71364  -0.71157  -0.69948
 Alpha  occ. eigenvalues --   -0.69162  -0.68572  -0.68184  -0.67885  -0.67630
 Alpha  occ. eigenvalues --   -0.66815  -0.66447  -0.65789  -0.65201  -0.64891
 Alpha  occ. eigenvalues --   -0.64380  -0.64132  -0.63671  -0.63251  -0.62213
 Alpha  occ. eigenvalues --   -0.62062  -0.61978  -0.60740  -0.60503  -0.60308
 Alpha  occ. eigenvalues --   -0.60094  -0.59324  -0.58713  -0.58316  -0.57396
 Alpha  occ. eigenvalues --   -0.56424  -0.56110  -0.55871  -0.55728  -0.55624
 Alpha  occ. eigenvalues --   -0.55100  -0.55017  -0.54491  -0.54330  -0.54086
 Alpha  occ. eigenvalues --   -0.53542  -0.53493  -0.53197  -0.52703  -0.52499
 Alpha  occ. eigenvalues --   -0.52365  -0.52013  -0.51504  -0.51438  -0.51288
 Alpha  occ. eigenvalues --   -0.51173  -0.50932  -0.50766  -0.50434  -0.50202
 Alpha  occ. eigenvalues --   -0.49868  -0.49711  -0.49664  -0.49506  -0.48877
 Alpha  occ. eigenvalues --   -0.48576  -0.48476  -0.48037  -0.47884  -0.47771
 Alpha  occ. eigenvalues --   -0.47537  -0.47311  -0.46955  -0.46651  -0.46428
 Alpha  occ. eigenvalues --   -0.46190  -0.45767  -0.45442  -0.45344  -0.44956
 Alpha  occ. eigenvalues --   -0.44846  -0.44618  -0.44521  -0.44371  -0.43807
 Alpha  occ. eigenvalues --   -0.43663  -0.43609  -0.43353  -0.43310  -0.43186
 Alpha  occ. eigenvalues --   -0.43103  -0.42641  -0.42399  -0.41697  -0.41614
 Alpha  occ. eigenvalues --   -0.41216  -0.41103  -0.40951  -0.40636  -0.40179
 Alpha  occ. eigenvalues --   -0.40131  -0.40064  -0.39370  -0.39021  -0.38334
 Alpha  occ. eigenvalues --   -0.38293  -0.38223  -0.38125  -0.38080  -0.37811
 Alpha  occ. eigenvalues --   -0.37793  -0.37522  -0.36382  -0.36045  -0.34777
 Alpha  occ. eigenvalues --   -0.34431  -0.34078  -0.33974  -0.33457  -0.33172
 Alpha  occ. eigenvalues --   -0.33080  -0.32080  -0.31688  -0.31614  -0.31288
 Alpha  occ. eigenvalues --   -0.30908  -0.30132  -0.29813  -0.27540  -0.24002
 Alpha  occ. eigenvalues --   -0.23800  -0.22018
 Alpha virt. eigenvalues --   -0.11450  -0.10369  -0.10167  -0.09389  -0.08480
 Alpha virt. eigenvalues --   -0.06230  -0.05987  -0.05588  -0.05484  -0.05300
 Alpha virt. eigenvalues --   -0.04478  -0.04107  -0.03370  -0.03177  -0.02798

 Mulliken charges:
               1
     1  N   -0.754972
     2  H    0.415525
     3  H    0.412159
     4  H    0.430765
     5  C   -0.110570
     6  H    0.215066
     7  C    0.653626
     8  C   -0.381754
     9  H    0.182017
    10  H    0.182414
    11  O   -0.556806
    12  C    0.148021
    13  C   -0.180258
    14  H    0.140806
    15  C   -0.193520
    16  H    0.131263
    17  C   -0.127225
    18  H    0.156108
    19  C   -0.107489
    20  H    0.157019
    21  C   -0.103173
    22  H    0.156616
    23  N   -0.596352
    24  H    0.388087
    25  C   -0.052863
    26  H    0.185871
    27  C    0.635605
    28  C   -0.485346
    29  H    0.176885
    30  H    0.197065
    31  H    0.174871
    32  O   -0.553937
    33  N   -0.614945
    34  H    0.363131
    35  C   -0.057712
    36  H    0.202198
    37  C    0.626692
    38  C   -0.451455
    39  H    0.177931
    40  H    0.156793
    41  H    0.158894
    42  O   -0.556914
    43  N   -0.621742
    44  H    0.399022
    45  C   -0.072559
    46  H    0.196581
    47  C    0.630256
    48  C   -0.397494
    49  H    0.192686
    50  H    0.145348
    51  O   -0.528712
    52  C    0.180219
    53  C   -0.204546
    54  H    0.144899
    55  C   -0.164909
    56  H    0.131600
    57  C   -0.164906
    58  H    0.145699
    59  C   -0.191517
    60  H    0.124177
    61  O   -0.652645
    62  H    0.409763
    63  C    0.346872
    64  N   -0.592027
    65  H    0.339580
    66  C   -0.045514
    67  H    0.162852
    68  C    0.630050
    69  C   -0.294447
    70  H    0.157585
    71  H    0.140607
    72  O   -0.556702
    73  C   -0.069143
    74  H    0.128348
    75  C   -0.442746
    76  H    0.141632
    77  H    0.151613
    78  H    0.145331
    79  C   -0.452897
    80  H    0.136754
    81  H    0.155891
    82  H    0.153323
    83  N   -0.591423
    84  H    0.343279
    85  C   -0.072157
    86  H    0.193273
    87  C    0.603420
    88  C   -0.288070
    89  H    0.153924
    90  H    0.215822
    91  O   -0.623763
    92  C   -0.374560
    93  H    0.204655
    94  H    0.196051
    95  C    0.598013
    96  O   -0.500809
    97  O   -0.526329
    98  N   -0.576053
    99  H    0.368217
   100  C   -0.085811
   101  H    0.120325
   102  C    0.588213
   103  C   -0.257727
   104  H    0.178163
   105  H    0.103162
   106  O   -0.571828
   107  C   -0.292702
   108  H    0.157352
   109  H    0.199865
   110  C   -0.168766
   111  H    0.182885
   112  H    0.178550
   113  N   -0.580531
   114  H    0.352632
   115  N   -0.727669
   116  H    0.411956
   117  H    0.366905
   118  N   -0.736409
   119  H    0.389635
   120  H    0.353729
   121  C    0.721914
   122  O   -0.601582
   123  H    0.415929
 Sum of Mulliken charges =   1.00000

 Dipole moment (field-independent basis, Debye):
    X=            -24.9262    Y=             14.9476    Z=              9.6296  Tot=             30.6182
 Quadrupole moment (field-independent basis, Debye-Ang):
   XX=            115.5613   YY=           -146.1958   ZZ=           -361.6659
   XY=           -311.6858   XZ=           -113.2154   YZ=            120.2591

 Normal termination of Gaussian 16 at Sun Jul 24 01:56:51 2022.
