 Gaussian 16, Revision C.01,
 Gaussian 16:  ES64L-G16RevC.01  3-Jul-2019

 ----------------------------------------------------------------------
 # B3LYP/6-31G* empiricaldispersion=gd3bj guess=read geom=check nosymm
 integral(ultrafinegrid)
 ----------------------------------------------------------------------

 ------------------------------------------------------
 Candidate Structure: Conf:399 Charge calc in gas phase
 ------------------------------------------------------
 Structure from the checkpoint file:  "conf-399.chk"
 Charge =  1 Multiplicity = 1

                          Input orientation:
 ---------------------------------------------------------------------
 Center     Atomic      Atomic             Coordinates (Angstroms)
 Number     Number       Type             X           Y           Z
 ---------------------------------------------------------------------
      1          7           0      -11.200372    4.270358    3.726202
      2          1           0      -11.412893    4.960760    3.001539
      3          1           0      -11.779055    4.472555    4.556841
      4          1           0      -11.370258    3.307141    3.328875
      5          6           0       -9.736058    4.227082    4.084486
      6          1           0       -9.284127    5.176845    3.793742
      7          6           0       -9.201582    3.034127    3.259371
      8          6           0       -9.577557    3.986642    5.604260
      9          1           0       -8.510985    4.071126    5.835097
     10          1           0       -9.872873    2.955070    5.827672
     11          8           0      -10.033628    2.244842    2.787282
     12          6           0      -10.401840    4.964232    6.407886
     13          6           0       -9.975171    6.287622    6.582073
     14          1           0       -9.002846    6.596222    6.204982
     15          6           0      -11.652741    4.578655    6.914103
     16          1           0      -11.974510    3.542065    6.826938
     17          6           0      -10.780363    7.204852    7.254209
     18          1           0      -10.433796    8.223808    7.395952
     19          6           0      -12.462742    5.501567    7.583138
     20          1           0      -13.421820    5.187456    7.982978
     21          6           0      -12.027514    6.814987    7.751034
     22          1           0      -12.650955    7.531718    8.275979
     23          7           0       -7.884106    2.935497    3.170163
     24          1           0       -7.238999    3.586010    3.628965
     25          6           0       -7.169740    1.825244    2.546036
     26          1           0       -7.570861    0.882939    2.936440
     27          6           0       -5.711219    2.008641    3.021655
     28          6           0       -7.293235    1.845784    1.016826
     29          1           0       -6.755488    1.002087    0.574790
     30          1           0       -6.874101    2.771898    0.611839
     31          1           0       -8.344267    1.769118    0.728378
     32          8           0       -5.397129    3.011366    3.673670
     33          7           0       -4.861610    1.040141    2.667343
     34          1           0       -5.131272    0.263164    2.066308
     35          6           0       -3.428676    1.102042    2.912536
     36          1           0       -3.080438    2.117475    2.690886
     37          6           0       -2.807330    0.110943    1.912068
     38          6           0       -3.074636    0.750894    4.364806
     39          1           0       -1.994891    0.817395    4.529574
     40          1           0       -3.399857   -0.267077    4.600621
     41          1           0       -3.571638    1.452055    5.039586
     42          8           0       -3.518393   -0.675407    1.280095
     43          7           0       -1.469559    0.159938    1.809331
     44          1           0       -0.909711    0.840303    2.314605
     45          6           0       -0.709060   -0.685893    0.905933
     46          1           0       -1.085424   -1.709742    0.989025
     47          6           0        0.743611   -0.613988    1.394557
     48          6           0       -0.872318   -0.193823   -0.561833
     49          1           0       -1.942518   -0.273045   -0.783643
     50          1           0       -0.605847    0.867748   -0.591651
     51          8           0        1.134661    0.361186    2.045600
     52          6           0       -0.044622   -0.944163   -1.579927
     53          6           0        0.789599   -0.236814   -2.454672
     54          1           0        0.781279    0.848786   -2.434356
     55          6           0       -0.057073   -2.343344   -1.667115
     56          1           0       -0.736110   -2.924739   -1.046603
     57          6           0        1.630294   -0.893750   -3.346790
     58          1           0        2.288210   -0.330429   -3.996869
     59          6           0        0.797754   -3.017527   -2.541625
     60          1           0        0.791968   -4.104937   -2.581564
     61          8           0        2.563493   -2.896665   -4.210110
     62          1           0        2.437106   -3.857878   -4.165171
     63          6           0        1.655225   -2.285312   -3.363843
     64          7           0        1.528772   -1.669066    1.078321
     65          1           0        1.188080   -2.297134    0.357951
     66          6           0        2.991042   -1.630307    1.241774
     67          1           0        3.184943   -1.125870    2.189990
     68          6           0        3.506251   -0.788288    0.060188
     69          6           0        3.557155   -3.045337    1.244073
     70          1           0        3.080145   -3.604786    2.059312
     71          1           0        3.273761   -3.527648    0.300302
     72          8           0        3.773759   -1.323518   -1.017078
     73          6           0        5.087364   -3.111385    1.392428
     74          1           0        5.524643   -2.594707    0.528791
     75          6           0        5.582548   -2.418865    2.668810
     76          1           0        5.106417   -2.848317    3.559883
     77          1           0        6.665174   -2.542478    2.778637
     78          1           0        5.379803   -1.342274    2.660835
     79          6           0        5.546324   -4.573650    1.351381
     80          1           0        5.141831   -5.135858    2.202733
     81          1           0        5.213584   -5.070518    0.432518
     82          1           0        6.638496   -4.643495    1.395226
     83          7           0        3.499321    0.541667    0.295493
     84          1           0        3.078977    0.806767    1.180939
     85          6           0        3.340669    1.550714   -0.751216
     86          1           0        2.336303    1.459238   -1.160828
     87          6           0        4.340165    1.385270   -1.893879
     88          6           0        3.454866    2.941991   -0.098723
     89          1           0        2.775691    2.954411    0.764462
     90          1           0        4.473677    3.064035    0.285101
     91          8           0        5.512516    1.030762   -1.674099
     92          6           0        3.117332    4.122565   -1.014229
     93          1           0        3.755576    4.161548   -1.905052
     94          1           0        3.277797    5.065672   -0.482221
     95          6           0        1.712181    4.120861   -1.569097
     96          8           0        0.959671    3.160224   -1.629446
     97          8           0        1.363536    5.335430   -2.014624
     98          7           0        3.821570    1.709673   -3.088430
     99          1           0        2.951220    2.260640   -3.101154
    100          6           0        4.586473    2.095221   -4.269326
    101          1           0        5.618555    2.286628   -3.960384
    102          6           0        3.957127    3.433069   -4.820629
    103          6           0        4.556725    1.025884   -5.382909
    104          1           0        3.746005    1.255005   -6.081054
    105          1           0        4.302930    0.065577   -4.927228
    106          8           0        2.966126    3.861193   -4.159505
    107          6           0        5.884949    0.923083   -6.156114
    108          1           0        6.671667    1.433215   -5.591901
    109          1           0        5.820276    1.479791   -7.094821
    110          6           0        6.329889   -0.515877   -6.493303
    111          1           0        7.386645   -0.528627   -6.784330
    112          1           0        5.765209   -0.891245   -7.351014
    113          7           0        6.098740   -1.521988   -5.425663
    114          1           0        5.500454   -2.293593   -5.687296
    115          7           0        6.897288   -0.326646   -3.580821
    116          1           0        6.529306    0.238998   -2.787195
    117          1           0        7.555043    0.124407   -4.198374
    118          7           0        5.229729   -1.900087   -3.305368
    119          1           0        5.099181   -1.579883   -2.344277
    120          1           0        4.377612   -2.287003   -3.708466
    121          6           0        6.069635   -1.231843   -4.106127
    122          8           0        4.498211    3.855943   -5.852359
    123          1           0        0.549549    5.220509   -2.538928
 ---------------------------------------------------------------------

 SCF Done:  E(RB3LYP) =  -2974.29585925     A.U. after    3 cycles

 Alpha  occ. eigenvalues --  -19.26471 -19.25984 -19.22457 -19.22068 -19.20130
 Alpha  occ. eigenvalues --  -19.20106 -19.17969 -19.17547 -19.16126 -19.07545
 Alpha  occ. eigenvalues --  -19.06325 -14.59512 -14.49111 -14.45306 -14.43994
 Alpha  occ. eigenvalues --  -14.43968 -14.43782 -14.41844 -14.41783 -14.41355
 Alpha  occ. eigenvalues --  -14.38108 -10.43296 -10.40652 -10.39202 -10.38995
 Alpha  occ. eigenvalues --  -10.37125 -10.36828 -10.35744 -10.34726 -10.34653
 Alpha  occ. eigenvalues --  -10.34226 -10.32720 -10.32482 -10.32142 -10.31515
 Alpha  occ. eigenvalues --  -10.31257 -10.31257 -10.30881 -10.30617 -10.30481
 Alpha  occ. eigenvalues --  -10.30204 -10.29525 -10.29057 -10.28305 -10.27310
 Alpha  occ. eigenvalues --  -10.26238 -10.26012 -10.25875 -10.25839 -10.25751
 Alpha  occ. eigenvalues --  -10.25323 -10.24578 -10.24499 -10.24288 -10.24262
 Alpha  occ. eigenvalues --  -10.24024 -10.23252 -10.23089 -10.22904 -10.22209
 Alpha  occ. eigenvalues --  -10.22124 -10.21572  -1.18944  -1.14202  -1.13797
 Alpha  occ. eigenvalues --   -1.13566  -1.13338  -1.12350  -1.11584  -1.09645
 Alpha  occ. eigenvalues --   -1.08111  -1.07053  -1.05931  -1.04669  -1.02171
 Alpha  occ. eigenvalues --   -1.00773  -1.00521  -1.00333  -0.98259  -0.98041
 Alpha  occ. eigenvalues --   -0.97466  -0.95637  -0.95122  -0.93513  -0.92034
 Alpha  occ. eigenvalues --   -0.91777  -0.89354  -0.87510  -0.86728  -0.86232
 Alpha  occ. eigenvalues --   -0.85738  -0.84879  -0.84064  -0.83392  -0.81411
 Alpha  occ. eigenvalues --   -0.81271  -0.79881  -0.79376  -0.78336  -0.77144
 Alpha  occ. eigenvalues --   -0.76722  -0.74798  -0.73927  -0.73372  -0.73326
 Alpha  occ. eigenvalues --   -0.73179  -0.72354  -0.71931  -0.71116  -0.70475
 Alpha  occ. eigenvalues --   -0.70258  -0.69309  -0.69024  -0.68436  -0.67448
 Alpha  occ. eigenvalues --   -0.66808  -0.66518  -0.66293  -0.65356  -0.64548
 Alpha  occ. eigenvalues --   -0.64344  -0.63652  -0.63317  -0.63078  -0.62213
 Alpha  occ. eigenvalues --   -0.61916  -0.61256  -0.60800  -0.60416  -0.60014
 Alpha  occ. eigenvalues --   -0.59672  -0.59204  -0.57819  -0.57738  -0.57631
 Alpha  occ. eigenvalues --   -0.57159  -0.57133  -0.56737  -0.56398  -0.55646
 Alpha  occ. eigenvalues --   -0.55463  -0.55135  -0.54881  -0.54499  -0.54054
 Alpha  occ. eigenvalues --   -0.53849  -0.53668  -0.53477  -0.53365  -0.52948
 Alpha  occ. eigenvalues --   -0.52836  -0.52448  -0.52330  -0.52043  -0.51854
 Alpha  occ. eigenvalues --   -0.51712  -0.51581  -0.51095  -0.50994  -0.50588
 Alpha  occ. eigenvalues --   -0.50347  -0.50266  -0.49946  -0.48965  -0.48913
 Alpha  occ. eigenvalues --   -0.48572  -0.48432  -0.47995  -0.47869  -0.47793
 Alpha  occ. eigenvalues --   -0.47755  -0.47527  -0.47390  -0.47276  -0.47066
 Alpha  occ. eigenvalues --   -0.46497  -0.46148  -0.46075  -0.45991  -0.45856
 Alpha  occ. eigenvalues --   -0.45761  -0.45445  -0.45319  -0.45283  -0.45107
 Alpha  occ. eigenvalues --   -0.44524  -0.44191  -0.43660  -0.43289  -0.43003
 Alpha  occ. eigenvalues --   -0.42574  -0.42358  -0.42001  -0.41802  -0.41602
 Alpha  occ. eigenvalues --   -0.41518  -0.41084  -0.40846  -0.40664  -0.39796
 Alpha  occ. eigenvalues --   -0.39305  -0.39178  -0.39112  -0.38491  -0.38420
 Alpha  occ. eigenvalues --   -0.38224  -0.37787  -0.37484  -0.37209  -0.37036
 Alpha  occ. eigenvalues --   -0.36758  -0.36519  -0.36317  -0.35458  -0.35243
 Alpha  occ. eigenvalues --   -0.35086  -0.34601  -0.34424  -0.34223  -0.33679
 Alpha  occ. eigenvalues --   -0.33261  -0.33091  -0.32455  -0.31706  -0.31066
 Alpha  occ. eigenvalues --   -0.30358  -0.29808  -0.28852  -0.28506  -0.22675
 Alpha  occ. eigenvalues --   -0.22322  -0.20556
 Alpha virt. eigenvalues --   -0.13252  -0.12696  -0.11018  -0.09886  -0.07626
 Alpha virt. eigenvalues --   -0.07290  -0.06778  -0.05970  -0.05120  -0.04988
 Alpha virt. eigenvalues --   -0.04713  -0.03848  -0.02693  -0.02645  -0.01989

 Mulliken charges:
               1
     1  N   -0.751277
     2  H    0.415479
     3  H    0.404646
     4  H    0.426586
     5  C   -0.112221
     6  H    0.214320
     7  C    0.658115
     8  C   -0.385263
     9  H    0.210407
    10  H    0.194356
    11  O   -0.543550
    12  C    0.138196
    13  C   -0.181062
    14  H    0.149000
    15  C   -0.234547
    16  H    0.153329
    17  C   -0.122157
    18  H    0.169719
    19  C   -0.119137
    20  H    0.168939
    21  C   -0.123981
    22  H    0.170858
    23  N   -0.613899
    24  H    0.374255
    25  C   -0.051394
    26  H    0.196668
    27  C    0.630380
    28  C   -0.459798
    29  H    0.181062
    30  H    0.171359
    31  H    0.190105
    32  O   -0.550709
    33  N   -0.620371
    34  H    0.367243
    35  C   -0.046254
    36  H    0.187268
    37  C    0.630641
    38  C   -0.449530
    39  H    0.166139
    40  H    0.165753
    41  H    0.184567
    42  O   -0.548712
    43  N   -0.624833
    44  H    0.361579
    45  C   -0.046819
    46  H    0.179639
    47  C    0.626784
    48  C   -0.363512
    49  H    0.188963
    50  H    0.186369
    51  O   -0.559049
    52  C    0.162321
    53  C   -0.229494
    54  H    0.201650
    55  C   -0.253491
    56  H    0.140997
    57  C   -0.140431
    58  H    0.181322
    59  C   -0.174725
    60  H    0.131819
    61  O   -0.675899
    62  H    0.418876
    63  C    0.350048
    64  N   -0.603971
    65  H    0.352696
    66  C   -0.079971
    67  H    0.180173
    68  C    0.657085
    69  C   -0.265737
    70  H    0.141332
    71  H    0.141926
    72  O   -0.569750
    73  C   -0.083590
    74  H    0.149308
    75  C   -0.453552
    76  H    0.141808
    77  H    0.155453
    78  H    0.146888
    79  C   -0.444541
    80  H    0.142357
    81  H    0.139052
    82  H    0.151864
    83  N   -0.613384
    84  H    0.362327
    85  C   -0.044248
    86  H    0.196329
    87  C    0.634904
    88  C   -0.300105
    89  H    0.148733
    90  H    0.172356
    91  O   -0.595372
    92  C   -0.388685
    93  H    0.233639
    94  H    0.177253
    95  C    0.636020
    96  O   -0.507204
    97  O   -0.547480
    98  N   -0.611384
    99  H    0.363556
   100  C   -0.073547
   101  H    0.138519
   102  C    0.573391
   103  C   -0.273458
   104  H    0.170591
   105  H    0.122888
   106  O   -0.618967
   107  C   -0.285765
   108  H    0.141804
   109  H    0.194365
   110  C   -0.166650
   111  H    0.172908
   112  H    0.170792
   113  N   -0.577539
   114  H    0.344586
   115  N   -0.748500
   116  H    0.427710
   117  H    0.354044
   118  N   -0.788915
   119  H    0.409902
   120  H    0.386591
   121  C    0.699446
   122  O   -0.573503
   123  H    0.415579
 Sum of Mulliken charges =   1.00000

 Dipole moment (field-independent basis, Debye):
    X=            -38.6162    Y=              5.5268    Z=             19.6470  Tot=             43.6779
 Quadrupole moment (field-independent basis, Debye-Ang):
   XX=            131.3720   YY=           -273.6474   ZZ=           -270.8021
   XY=           -256.1919   XZ=           -206.0337   YZ=            154.9212

 Normal termination of Gaussian 16 at Sun Jul 24 01:57:17 2022.
