 Gaussian 16, Revision C.01,
 Gaussian 16:  ES64L-G16RevC.01  3-Jul-2019

 ----------------------------------------------------------------------
 # B3LYP/6-31G* empiricaldispersion=gd3bj guess=read geom=check nosymm
 integral(ultrafinegrid)
 ----------------------------------------------------------------------

 ------------------------------------------------------
 Candidate Structure: Conf:966 Charge calc in gas phase
 ------------------------------------------------------
 Structure from the checkpoint file:  "conf-966.chk"
 Charge =  1 Multiplicity = 1

                          Input orientation:
 ---------------------------------------------------------------------
 Center     Atomic      Atomic             Coordinates (Angstroms)
 Number     Number       Type             X           Y           Z
 ---------------------------------------------------------------------
      1          7           0       -9.709503    3.400750    3.867711
      2          1           0       -9.566104    2.927938    2.949409
      3          1           0      -10.047603    4.365226    3.753243
      4          1           0      -10.370472    2.822697    4.423000
      5          6           0       -8.425188    3.357250    4.644604
      6          1           0       -7.609587    3.511446    3.937778
      7          6           0       -8.411873    1.939908    5.241177
      8          6           0       -8.428216    4.453561    5.726701
      9          1           0       -7.461750    4.406409    6.238979
     10          1           0       -9.199283    4.217590    6.468898
     11          8           0       -9.498589    1.415103    5.512759
     12          6           0       -8.662142    5.813683    5.110809
     13          6           0       -7.633984    6.463031    4.413491
     14          1           0       -6.640463    6.021115    4.384371
     15          6           0       -9.934148    6.402357    5.149077
     16          1           0      -10.731588    5.925664    5.716162
     17          6           0       -7.871138    7.678286    3.774738
     18          1           0       -7.063400    8.178234    3.249034
     19          6           0      -10.173296    7.619761    4.504753
     20          1           0      -11.159395    8.071265    4.553510
     21          6           0       -9.142673    8.257082    3.815809
     22          1           0       -9.324523    9.205134    3.319539
     23          7           0       -7.200167    1.423622    5.419362
     24          1           0       -6.358601    1.927266    5.131810
     25          6           0       -6.884287    0.119776    5.991864
     26          1           0       -7.188876    0.105903    7.046146
     27          6           0       -5.343926    0.052988    5.898520
     28          6           0       -7.558287   -1.039083    5.242253
     29          1           0       -7.448478   -1.973832    5.801062
     30          1           0       -7.109239   -1.170014    4.254849
     31          1           0       -8.626908   -0.840567    5.145163
     32          8           0       -4.702468    1.038671    5.534059
     33          7           0       -4.761403   -1.131142    6.196822
     34          1           0       -5.360338   -1.945550    6.239722
     35          6           0       -3.405926   -1.384859    5.692171
     36          1           0       -2.764447   -0.582517    6.063665
     37          6           0       -3.487846   -1.352212    4.152673
     38          6           0       -2.913148   -2.744044    6.177585
     39          1           0       -1.886764   -2.913623    5.839756
     40          1           0       -3.539765   -3.541274    5.764402
     41          1           0       -2.931846   -2.794180    7.270204
     42          8           0       -4.285890   -2.086066    3.565991
     43          7           0       -2.679413   -0.460754    3.549989
     44          1           0       -1.986218    0.051088    4.085475
     45          6           0       -2.543130   -0.312192    2.115449
     46          1           0       -2.983122   -1.192613    1.640818
     47          6           0       -1.032817   -0.220928    1.825996
     48          6           0       -3.192372    0.987618    1.591713
     49          1           0       -2.689079    1.826456    2.086793
     50          1           0       -2.938020    1.071228    0.525865
     51          8           0       -0.275600    0.262177    2.668871
     52          6           0       -4.692951    1.146150    1.739586
     53          6           0       -5.233682    2.439817    1.720475
     54          1           0       -4.564901    3.295267    1.675961
     55          6           0       -5.581061    0.065930    1.788142
     56          1           0       -5.206890   -0.948760    1.854913
     57          6           0       -6.610633    2.660284    1.714663
     58          1           0       -7.014024    3.666281    1.636580
     59          6           0       -6.962296    0.269967    1.805135
     60          1           0       -7.635554   -0.583334    1.848056
     61          8           0       -8.843119    1.811565    1.758788
     62          1           0       -9.314915    0.980044    1.588956
     63          6           0       -7.469374    1.563711    1.753920
     64          7           0       -0.652507   -0.629723    0.604632
     65          1           0       -1.295708   -1.064105   -0.050814
     66          6           0        0.713796   -0.531866    0.112685
     67          1           0        1.136681    0.413674    0.461818
     68          6           0        0.604247   -0.573974   -1.415483
     69          6           0        1.562892   -1.719772    0.625910
     70          1           0        1.526073   -1.687236    1.721736
     71          1           0        1.053224   -2.638200    0.308355
     72          8           0       -0.295740   -1.223751   -1.948626
     73          6           0        3.028809   -1.759130    0.160204
     74          1           0        3.049448   -1.751213   -0.935811
     75          6           0        3.837614   -0.555101    0.658002
     76          1           0        3.870414   -0.537622    1.754539
     77          1           0        4.863922   -0.597533    0.281005
     78          1           0        3.420316    0.402062    0.327426
     79          6           0        3.682869   -3.068688    0.619089
     80          1           0        3.695572   -3.141882    1.713857
     81          1           0        3.142816   -3.941104    0.231852
     82          1           0        4.720642   -3.127368    0.270792
     83          7           0        1.558070    0.108335   -2.085068
     84          1           0        2.330698    0.513579   -1.565302
     85          6           0        1.891317   -0.152550   -3.481344
     86          1           0        1.269748   -0.977530   -3.826152
     87          6           0        3.377135   -0.548502   -3.475435
     88          6           0        1.611685    1.094951   -4.355657
     89          1           0        0.530254    1.137262   -4.515527
     90          1           0        1.895137    1.985258   -3.784279
     91          8           0        4.169987    0.040003   -2.732142
     92          6           0        2.358953    1.134204   -5.697551
     93          1           0        3.412308    1.389770   -5.548782
     94          1           0        1.935710    1.920765   -6.334690
     95          6           0        2.303367   -0.187374   -6.439647
     96          8           0        1.425977   -1.018577   -6.280833
     97          8           0        3.371940   -0.374916   -7.222487
     98          7           0        3.724685   -1.557544   -4.295940
     99          1           0        3.053010   -1.960820   -4.943356
    100          6           0        5.105989   -1.956356   -4.515618
    101          1           0        5.727896   -1.056056   -4.562428
    102          6           0        5.202004   -2.684360   -5.876717
    103          6           0        5.623475   -2.823228   -3.346615
    104          1           0        5.543107   -2.211969   -2.443586
    105          1           0        6.692893   -3.002483   -3.506224
    106          8           0        6.360382   -3.105822   -6.190232
    107          6           0        4.856082   -4.155448   -3.155416
    108          1           0        3.959358   -4.168405   -3.786666
    109          1           0        4.505091   -4.242481   -2.120711
    110          6           0        5.687974   -5.411818   -3.455358
    111          1           0        5.099046   -6.309896   -3.250314
    112          1           0        6.569253   -5.450733   -2.806696
    113          7           0        6.164454   -5.440349   -4.843522
    114          1           0        6.602166   -4.557262   -5.152061
    115          7           0        4.770871   -7.141282   -5.647570
    116          1           0        4.387984   -7.631282   -6.442519
    117          1           0        4.943317   -7.704711   -4.828484
    118          7           0        5.704019   -5.553254   -7.089161
    119          1           0        5.193295   -5.952319   -7.863228
    120          1           0        5.962451   -4.540336   -7.124678
    121          6           0        5.536702   -6.043546   -5.860900
    122          8           0        4.150734   -2.869207   -6.535099
    123          1           0        3.469574   -1.350852   -7.361713
 ---------------------------------------------------------------------

 SCF Done:  E(RB3LYP) =  -2974.33547542     A.U. after    3 cycles

 Alpha  occ. eigenvalues --  -19.30677 -19.24128 -19.22103 -19.20504 -19.18858
 Alpha  occ. eigenvalues --  -19.18047 -19.16900 -19.16149 -19.15657 -19.14178
 Alpha  occ. eigenvalues --  -19.14018 -14.56352 -14.47457 -14.45870 -14.45340
 Alpha  occ. eigenvalues --  -14.43434 -14.43263 -14.42880 -14.42246 -14.40838
 Alpha  occ. eigenvalues --  -14.39429 -10.41189 -10.40657 -10.38738 -10.37841
 Alpha  occ. eigenvalues --  -10.36068 -10.35269 -10.35161 -10.34488 -10.34078
 Alpha  occ. eigenvalues --  -10.33919 -10.32553 -10.32205 -10.31945 -10.31568
 Alpha  occ. eigenvalues --  -10.30930 -10.30881 -10.29783 -10.29764 -10.29508
 Alpha  occ. eigenvalues --  -10.29260 -10.29177 -10.28903 -10.28816 -10.28771
 Alpha  occ. eigenvalues --  -10.28628 -10.28450 -10.28398 -10.27617 -10.27580
 Alpha  occ. eigenvalues --  -10.27415 -10.27094 -10.26072 -10.26071 -10.24468
 Alpha  occ. eigenvalues --  -10.23677 -10.23632 -10.23433 -10.23364 -10.23231
 Alpha  occ. eigenvalues --  -10.22235 -10.21658  -1.17679  -1.16491  -1.14196
 Alpha  occ. eigenvalues --   -1.12241  -1.11157  -1.10969  -1.09994  -1.09552
 Alpha  occ. eigenvalues --   -1.08822  -1.07687  -1.07078  -1.04347  -1.03384
 Alpha  occ. eigenvalues --   -1.01973  -1.00101  -0.99317  -0.98825  -0.98331
 Alpha  occ. eigenvalues --   -0.97527  -0.97209  -0.96516  -0.95986  -0.94924
 Alpha  occ. eigenvalues --   -0.91601  -0.88541  -0.87562  -0.86247  -0.85314
 Alpha  occ. eigenvalues --   -0.84928  -0.84840  -0.84340  -0.83906  -0.83753
 Alpha  occ. eigenvalues --   -0.82388  -0.79924  -0.79372  -0.78357  -0.76308
 Alpha  occ. eigenvalues --   -0.76075  -0.75129  -0.72938  -0.72846  -0.72520
 Alpha  occ. eigenvalues --   -0.72238  -0.71411  -0.71270  -0.71041  -0.70816
 Alpha  occ. eigenvalues --   -0.70195  -0.69772  -0.68769  -0.68498  -0.68203
 Alpha  occ. eigenvalues --   -0.67092  -0.66465  -0.66131  -0.65870  -0.64856
 Alpha  occ. eigenvalues --   -0.64564  -0.64418  -0.63571  -0.62911  -0.62376
 Alpha  occ. eigenvalues --   -0.61644  -0.61389  -0.61103  -0.60761  -0.60700
 Alpha  occ. eigenvalues --   -0.59487  -0.58880  -0.58613  -0.57873  -0.57560
 Alpha  occ. eigenvalues --   -0.57382  -0.56851  -0.56387  -0.56026  -0.55937
 Alpha  occ. eigenvalues --   -0.55358  -0.55143  -0.54575  -0.54416  -0.54053
 Alpha  occ. eigenvalues --   -0.53868  -0.53550  -0.53347  -0.53070  -0.52957
 Alpha  occ. eigenvalues --   -0.52473  -0.52424  -0.52231  -0.51966  -0.51928
 Alpha  occ. eigenvalues --   -0.51418  -0.51342  -0.51028  -0.50890  -0.50576
 Alpha  occ. eigenvalues --   -0.50226  -0.50086  -0.49934  -0.49842  -0.49301
 Alpha  occ. eigenvalues --   -0.49176  -0.49132  -0.49062  -0.48848  -0.48471
 Alpha  occ. eigenvalues --   -0.48123  -0.48035  -0.47364  -0.47175  -0.47087
 Alpha  occ. eigenvalues --   -0.46905  -0.46822  -0.46682  -0.46296  -0.46036
 Alpha  occ. eigenvalues --   -0.45868  -0.45611  -0.45360  -0.45004  -0.44553
 Alpha  occ. eigenvalues --   -0.44403  -0.44388  -0.44345  -0.44083  -0.43682
 Alpha  occ. eigenvalues --   -0.43537  -0.43454  -0.42930  -0.42613  -0.42376
 Alpha  occ. eigenvalues --   -0.42221  -0.41987  -0.41792  -0.41385  -0.41008
 Alpha  occ. eigenvalues --   -0.40443  -0.40209  -0.39407  -0.39161  -0.38506
 Alpha  occ. eigenvalues --   -0.38484  -0.38208  -0.37937  -0.37578  -0.37416
 Alpha  occ. eigenvalues --   -0.37019  -0.36510  -0.36395  -0.35696  -0.35617
 Alpha  occ. eigenvalues --   -0.35067  -0.34621  -0.33746  -0.33593  -0.33179
 Alpha  occ. eigenvalues --   -0.32521  -0.32324  -0.31767  -0.31416  -0.31328
 Alpha  occ. eigenvalues --   -0.30450  -0.30395  -0.29659  -0.29560  -0.29127
 Alpha  occ. eigenvalues --   -0.28409  -0.27918
 Alpha virt. eigenvalues --   -0.11719  -0.10995  -0.10180  -0.09630  -0.08607
 Alpha virt. eigenvalues --   -0.07850  -0.06056  -0.05633  -0.05073  -0.04207
 Alpha virt. eigenvalues --   -0.03330  -0.03113  -0.02247  -0.02177  -0.02040

 Mulliken charges:
               1
     1  N   -0.770888
     2  H    0.442621
     3  H    0.397218
     4  H    0.407182
     5  C   -0.124655
     6  H    0.205921
     7  C    0.660027
     8  C   -0.370682
     9  H    0.200689
    10  H    0.188930
    11  O   -0.547800
    12  C    0.138319
    13  C   -0.181637
    14  H    0.144427
    15  C   -0.226476
    16  H    0.147359
    17  C   -0.123814
    18  H    0.162402
    19  C   -0.120495
    20  H    0.163305
    21  C   -0.124965
    22  H    0.164827
    23  N   -0.626800
    24  H    0.377927
    25  C   -0.032862
    26  H    0.199854
    27  C    0.626713
    28  C   -0.491690
    29  H    0.162115
    30  H    0.189420
    31  H    0.195650
    32  O   -0.534241
    33  N   -0.588628
    34  H    0.346216
    35  C   -0.049915
    36  H    0.177114
    37  C    0.631799
    38  C   -0.479249
    39  H    0.179175
    40  H    0.176005
    41  H    0.173446
    42  O   -0.556258
    43  N   -0.572489
    44  H    0.356398
    45  C   -0.084600
    46  H    0.180747
    47  C    0.631742
    48  C   -0.354520
    49  H    0.170703
    50  H    0.180426
    51  O   -0.546351
    52  C    0.183601
    53  C   -0.189655
    54  H    0.146814
    55  C   -0.194064
    56  H    0.195592
    57  C   -0.192513
    58  H    0.141885
    59  C   -0.199380
    60  H    0.144371
    61  O   -0.703402
    62  H    0.434160
    63  C    0.350773
    64  N   -0.616666
    65  H    0.353251
    66  C   -0.050298
    67  H    0.173905
    68  C    0.601429
    69  C   -0.253282
    70  H    0.159649
    71  H    0.142285
    72  O   -0.540994
    73  C   -0.100781
    74  H    0.146863
    75  C   -0.443375
    76  H    0.143950
    77  H    0.164135
    78  H    0.136715
    79  C   -0.448283
    80  H    0.144542
    81  H    0.138707
    82  H    0.146497
    83  N   -0.609102
    84  H    0.358661
    85  C   -0.068605
    86  H    0.207579
    87  C    0.608181
    88  C   -0.249975
    89  H    0.168038
    90  H    0.149560
    91  O   -0.563916
    92  C   -0.372187
    93  H    0.186504
    94  H    0.181611
    95  C    0.584009
    96  O   -0.487051
    97  O   -0.585601
    98  N   -0.617051
    99  H    0.372391
   100  C   -0.044819
   101  H    0.185002
   102  C    0.609404
   103  C   -0.296801
   104  H    0.179006
   105  H    0.154016
   106  O   -0.626764
   107  C   -0.277006
   108  H    0.164068
   109  H    0.157016
   110  C   -0.170788
   111  H    0.143789
   112  H    0.178029
   113  N   -0.600012
   114  H    0.402170
   115  N   -0.752687
   116  H    0.362687
   117  H    0.366481
   118  N   -0.749420
   119  H    0.347379
   120  H    0.416380
   121  C    0.762079
   122  O   -0.602099
   123  H    0.443755
 Sum of Mulliken charges =   1.00000

 Dipole moment (field-independent basis, Debye):
    X=            -28.4525    Y=              0.4372    Z=             13.3798  Tot=             31.4445
 Quadrupole moment (field-independent basis, Debye-Ang):
   XX=            -38.1955   YY=           -175.6562   ZZ=           -269.5615
   XY=           -184.6107   XZ=           -152.7919   YZ=             97.7095

 Normal termination of Gaussian 16 at Sun Jul 24 01:57:12 2022.
