 Gaussian 16, Revision C.01,
 Gaussian 16:  ES64L-G16RevC.01  3-Jul-2019

 ----------------------------------------------------------------------
 # B3LYP/6-31G* empiricaldispersion=gd3bj guess=read geom=check nosymm
 integral(ultrafinegrid)
 ----------------------------------------------------------------------

 ------------------------------------------------------
 Candidate Structure: Conf:684 Charge calc in gas phase
 ------------------------------------------------------
 Structure from the checkpoint file:  "conf-684.chk"
 Charge =  1 Multiplicity = 1

                          Input orientation:
 ---------------------------------------------------------------------
 Center     Atomic      Atomic             Coordinates (Angstroms)
 Number     Number       Type             X           Y           Z
 ---------------------------------------------------------------------
      1          7           0      -10.981389    2.824708    3.846460
      2          1           0      -11.149166    1.815613    3.872529
      3          1           0      -11.837716    3.295848    3.514860
      4          1           0      -10.686406    3.134020    4.808364
      5          6           0       -9.795245    3.200528    2.993765
      6          1           0       -9.646425    2.426125    2.240340
      7          6           0       -8.633951    3.283584    4.007147
      8          6           0      -10.061042    4.562708    2.316554
      9          1           0       -9.201393    4.766488    1.674636
     10          1           0      -10.093531    5.340721    3.088201
     11          8           0       -8.919908    3.409989    5.206381
     12          6           0      -11.340130    4.527636    1.516948
     13          6           0      -11.361277    3.918303    0.255018
     14          1           0      -10.432843    3.550015   -0.175576
     15          6           0      -12.535933    5.021125    2.059611
     16          1           0      -12.521066    5.545852    3.014037
     17          6           0      -12.557245    3.807061   -0.450797
     18          1           0      -12.562297    3.346004   -1.433720
     19          6           0      -13.736685    4.903109    1.352179
     20          1           0      -14.653937    5.301509    1.774674
     21          6           0      -13.747473    4.293269    0.098947
     22          1           0      -14.676740    4.206490   -0.455210
     23          7           0       -7.421601    3.255767    3.469129
     24          1           0       -7.356029    3.205941    2.448446
     25          6           0       -6.186060    3.488715    4.226713
     26          1           0       -6.367475    4.339285    4.894816
     27          6           0       -5.146008    3.951198    3.179047
     28          6           0       -5.812239    2.261207    5.060175
     29          1           0       -4.957762    2.479759    5.708479
     30          1           0       -5.566205    1.407879    4.419827
     31          1           0       -6.651465    1.993589    5.706538
     32          8           0       -5.478180    4.756802    2.300042
     33          7           0       -3.912402    3.434354    3.308806
     34          1           0       -3.822829    2.599023    3.878639
     35          6           0       -2.931365    3.454119    2.228390
     36          1           0       -3.385447    3.982827    1.386850
     37          6           0       -2.721840    1.974968    1.834317
     38          6           0       -1.626471    4.144063    2.638662
     39          1           0       -0.925250    4.162320    1.799134
     40          1           0       -1.149437    3.616202    3.470576
     41          1           0       -1.828630    5.174018    2.945469
     42          8           0       -3.220292    1.070353    2.508422
     43          7           0       -1.987824    1.778546    0.723473
     44          1           0       -1.649812    2.574607    0.183359
     45          6           0       -1.947980    0.492014    0.062662
     46          1           0       -2.300286   -0.236478    0.799249
     47          6           0       -0.486323    0.158295   -0.281971
     48          6           0       -2.908902    0.473399   -1.172731
     49          1           0       -2.402903    0.937856   -2.026145
     50          1           0       -3.128234   -0.567461   -1.439820
     51          8           0        0.447196    0.651775    0.348791
     52          6           0       -4.180967    1.226939   -0.871301
     53          6           0       -5.213199    0.652450   -0.124520
     54          1           0       -5.162421   -0.398584    0.145461
     55          6           0       -4.268236    2.586888   -1.196498
     56          1           0       -3.468555    3.052561   -1.763684
     57          6           0       -6.275804    1.425583    0.346040
     58          1           0       -7.050064    0.984369    0.967098
     59          6           0       -5.322113    3.368475   -0.735638
     60          1           0       -5.364576    4.430856   -0.956151
     61          8           0       -7.292382    3.584781    0.644445
     62          1           0       -6.814275    4.373294    0.988868
     63          6           0       -6.303728    2.788466    0.066261
     64          7           0       -0.293500   -0.717786   -1.302530
     65          1           0       -1.069563   -0.957330   -1.903505
     66          6           0        1.047423   -0.936364   -1.854983
     67          1           0        1.718013   -1.062582   -1.002702
     68          6           0        1.433244    0.323127   -2.650396
     69          6           0        1.065981   -2.175350   -2.748024
     70          1           0        0.740119   -3.035748   -2.147965
     71          1           0        0.333247   -2.027950   -3.550999
     72          8           0        1.065815    0.488718   -3.813495
     73          6           0        2.434286   -2.469595   -3.389770
     74          1           0        2.692936   -1.625777   -4.039393
     75          6           0        3.542760   -2.638742   -2.341376
     76          1           0        3.280253   -3.406123   -1.601408
     77          1           0        4.478528   -2.955382   -2.816683
     78          1           0        3.750163   -1.706365   -1.803970
     79          6           0        2.330649   -3.714772   -4.278429
     80          1           0        2.092842   -4.608442   -3.686544
     81          1           0        1.550395   -3.592569   -5.037753
     82          1           0        3.274045   -3.903399   -4.802777
     83          7           0        2.169394    1.229899   -1.966237
     84          1           0        2.320042    1.068498   -0.978633
     85          6           0        2.564050    2.509704   -2.553723
     86          1           0        1.833270    2.720319   -3.340103
     87          6           0        3.957384    2.362108   -3.210949
     88          6           0        2.566295    3.624005   -1.509116
     89          1           0        3.377495    3.445767   -0.796216
     90          1           0        2.814129    4.559184   -2.016389
     91          8           0        4.939526    2.967898   -2.786752
     92          6           0        1.246242    3.762386   -0.737279
     93          1           0        1.324998    4.615094   -0.047816
     94          1           0        1.029066    2.882386   -0.125586
     95          6           0        0.019095    4.014635   -1.575413
     96          8           0       -1.118156    3.676289   -1.271636
     97          8           0        0.264717    4.695529   -2.703635
     98          7           0        3.975927    1.494255   -4.244841
     99          1           0        3.131332    0.992844   -4.511380
    100          6           0        5.202109    1.042098   -4.886979
    101          1           0        5.766128    1.901938   -5.257001
    102          6           0        4.846242    0.129997   -6.072164
    103          6           0        6.081536    0.257608   -3.873155
    104          1           0        5.418466   -0.437463   -3.340590
    105          1           0        6.429607    0.978004   -3.129613
    106          8           0        5.623404    0.103038   -7.040599
    107          6           0        7.276727   -0.508726   -4.485116
    108          1           0        8.182068   -0.325562   -3.894385
    109          1           0        7.469398   -0.152329   -5.502063
    110          6           0        7.069098   -2.031600   -4.508710
    111          1           0        6.879787   -2.398635   -3.494631
    112          1           0        7.971938   -2.550168   -4.846898
    113          7           0        5.928025   -2.468580   -5.322155
    114          1           0        5.028514   -2.077984   -5.033308
    115          7           0        7.098150   -3.034194   -7.274644
    116          1           0        7.139715   -2.888633   -8.273134
    117          1           0        7.975308   -2.904255   -6.794044
    118          7           0        4.784026   -2.688218   -7.300109
    119          1           0        4.842320   -2.716403   -8.309999
    120          1           0        4.140036   -1.941321   -6.922271
    121          6           0        5.953285   -2.688260   -6.644739
    122          8           0        3.829657   -0.638538   -5.880915
    123          1           0       -0.587120    4.812823   -3.165875
 ---------------------------------------------------------------------

 SCF Done:  E(RB3LYP) =  -2974.33168378     A.U. after    1 cycles

 Alpha  occ. eigenvalues --  -19.27641 -19.26751 -19.25390 -19.22488 -19.21460
 Alpha  occ. eigenvalues --  -19.18843 -19.18632 -19.16767 -19.14267 -19.12897
 Alpha  occ. eigenvalues --  -19.11587 -14.58809 -14.47887 -14.44753 -14.44498
 Alpha  occ. eigenvalues --  -14.43154 -14.42969 -14.42150 -14.41448 -14.40694
 Alpha  occ. eigenvalues --  -14.37775 -10.42024 -10.40320 -10.39369 -10.39347
 Alpha  occ. eigenvalues --  -10.38710 -10.35782 -10.35758 -10.33915 -10.33755
 Alpha  occ. eigenvalues --  -10.32758 -10.32710 -10.31369 -10.31360 -10.30937
 Alpha  occ. eigenvalues --  -10.30539 -10.30304 -10.29828 -10.29720 -10.29701
 Alpha  occ. eigenvalues --  -10.29523 -10.29293 -10.29090 -10.28910 -10.27612
 Alpha  occ. eigenvalues --  -10.27407 -10.27222 -10.27063 -10.26973 -10.26868
 Alpha  occ. eigenvalues --  -10.26629 -10.26399 -10.26373 -10.25598 -10.24529
 Alpha  occ. eigenvalues --  -10.24508 -10.23656 -10.23199 -10.22826 -10.22186
 Alpha  occ. eigenvalues --  -10.22128 -10.21264  -1.18820  -1.17822  -1.14437
 Alpha  occ. eigenvalues --   -1.13102  -1.12759  -1.11045  -1.10370  -1.09443
 Alpha  occ. eigenvalues --   -1.08748  -1.08383  -1.06107  -1.05252  -1.04966
 Alpha  occ. eigenvalues --   -1.01584  -0.99655  -0.99389  -0.98086  -0.97907
 Alpha  occ. eigenvalues --   -0.97001  -0.96712  -0.95710  -0.94223  -0.93282
 Alpha  occ. eigenvalues --   -0.92427  -0.88501  -0.87147  -0.86301  -0.85776
 Alpha  occ. eigenvalues --   -0.85399  -0.85125  -0.83813  -0.83616  -0.82676
 Alpha  occ. eigenvalues --   -0.81581  -0.79909  -0.78766  -0.78407  -0.77262
 Alpha  occ. eigenvalues --   -0.76133  -0.74069  -0.73016  -0.72907  -0.72688
 Alpha  occ. eigenvalues --   -0.72602  -0.72393  -0.71041  -0.70939  -0.70184
 Alpha  occ. eigenvalues --   -0.70075  -0.69462  -0.69402  -0.69137  -0.68030
 Alpha  occ. eigenvalues --   -0.66883  -0.66576  -0.65952  -0.65501  -0.65048
 Alpha  occ. eigenvalues --   -0.64867  -0.64381  -0.63889  -0.62336  -0.62225
 Alpha  occ. eigenvalues --   -0.62073  -0.61200  -0.60981  -0.60728  -0.59923
 Alpha  occ. eigenvalues --   -0.58954  -0.58696  -0.57836  -0.57414  -0.56947
 Alpha  occ. eigenvalues --   -0.56704  -0.56600  -0.56489  -0.56283  -0.56054
 Alpha  occ. eigenvalues --   -0.55751  -0.55194  -0.54948  -0.54819  -0.54653
 Alpha  occ. eigenvalues --   -0.54076  -0.53762  -0.53604  -0.53122  -0.52988
 Alpha  occ. eigenvalues --   -0.52867  -0.52593  -0.52488  -0.52385  -0.51727
 Alpha  occ. eigenvalues --   -0.51547  -0.51204  -0.50805  -0.50772  -0.50638
 Alpha  occ. eigenvalues --   -0.50494  -0.50132  -0.49906  -0.49634  -0.49386
 Alpha  occ. eigenvalues --   -0.49228  -0.48932  -0.48330  -0.48236  -0.48089
 Alpha  occ. eigenvalues --   -0.48027  -0.47936  -0.47754  -0.47359  -0.47154
 Alpha  occ. eigenvalues --   -0.46756  -0.46642  -0.46410  -0.46156  -0.45467
 Alpha  occ. eigenvalues --   -0.45312  -0.45072  -0.45015  -0.44894  -0.44779
 Alpha  occ. eigenvalues --   -0.44644  -0.44300  -0.44130  -0.43822  -0.43701
 Alpha  occ. eigenvalues --   -0.43437  -0.42858  -0.42684  -0.42385  -0.42218
 Alpha  occ. eigenvalues --   -0.41725  -0.41699  -0.41097  -0.41036  -0.40856
 Alpha  occ. eigenvalues --   -0.40397  -0.40363  -0.40270  -0.39825  -0.39669
 Alpha  occ. eigenvalues --   -0.38767  -0.38545  -0.37891  -0.37554  -0.37349
 Alpha  occ. eigenvalues --   -0.37021  -0.36451  -0.36070  -0.35837  -0.35641
 Alpha  occ. eigenvalues --   -0.35471  -0.35132  -0.35016  -0.34073  -0.33359
 Alpha  occ. eigenvalues --   -0.32915  -0.32724  -0.32233  -0.31795  -0.31637
 Alpha  occ. eigenvalues --   -0.30431  -0.29822  -0.28366  -0.28159  -0.27669
 Alpha  occ. eigenvalues --   -0.27009  -0.25156
 Alpha virt. eigenvalues --   -0.12245  -0.11801  -0.09915  -0.09037  -0.08796
 Alpha virt. eigenvalues --   -0.07740  -0.07585  -0.07194  -0.05174  -0.04950
 Alpha virt. eigenvalues --   -0.04536  -0.03483  -0.03422  -0.01449  -0.00796

 Mulliken charges:
               1
     1  N   -0.749103
     2  H    0.413378
     3  H    0.403079
     4  H    0.423363
     5  C   -0.121810
     6  H    0.216606
     7  C    0.649238
     8  C   -0.386068
     9  H    0.220986
    10  H    0.188729
    11  O   -0.546068
    12  C    0.138064
    13  C   -0.185846
    14  H    0.163936
    15  C   -0.236635
    16  H    0.149700
    17  C   -0.123602
    18  H    0.165324
    19  C   -0.121264
    20  H    0.164696
    21  C   -0.124307
    22  H    0.166125
    23  N   -0.640822
    24  H    0.407809
    25  C   -0.021631
    26  H    0.206736
    27  C    0.586565
    28  C   -0.500337
    29  H    0.177576
    30  H    0.189248
    31  H    0.187119
    32  O   -0.565228
    33  N   -0.573531
    34  H    0.366696
    35  C   -0.095247
    36  H    0.200997
    37  C    0.638080
    38  C   -0.445329
    39  H    0.164926
    40  H    0.168122
    41  H    0.172177
    42  O   -0.554585
    43  N   -0.623971
    44  H    0.402392
    45  C   -0.058415
    46  H    0.211130
    47  C    0.629492
    48  C   -0.404765
    49  H    0.173378
    50  H    0.156102
    51  O   -0.534065
    52  C    0.164177
    53  C   -0.163824
    54  H    0.141227
    55  C   -0.196943
    56  H    0.163028
    57  C   -0.169218
    58  H    0.116400
    59  C   -0.172516
    60  H    0.146890
    61  O   -0.724631
    62  H    0.451390
    63  C    0.343210
    64  N   -0.613348
    65  H    0.345084
    66  C   -0.049940
    67  H    0.171274
    68  C    0.621960
    69  C   -0.277968
    70  H    0.136754
    71  H    0.152346
    72  O   -0.544572
    73  C   -0.115989
    74  H    0.198163
    75  C   -0.465315
    76  H    0.142809
    77  H    0.139691
    78  H    0.144791
    79  C   -0.449256
    80  H    0.134805
    81  H    0.149798
    82  H    0.145261
    83  N   -0.597280
    84  H    0.354231
    85  C   -0.077739
    86  H    0.189835
    87  C    0.634075
    88  C   -0.287754
    89  H    0.173913
    90  H    0.183743
    91  O   -0.540017
    92  C   -0.401386
    93  H    0.188396
    94  H    0.215294
    95  C    0.608221
    96  O   -0.504380
    97  O   -0.533741
    98  N   -0.646336
    99  H    0.383074
   100  C    0.015567
   101  H    0.167680
   102  C    0.565599
   103  C   -0.316646
   104  H    0.135683
   105  H    0.187055
   106  O   -0.578921
   107  C   -0.273171
   108  H    0.147174
   109  H    0.186161
   110  C   -0.186170
   111  H    0.178592
   112  H    0.144885
   113  N   -0.589904
   114  H    0.390993
   115  N   -0.751320
   116  H    0.365173
   117  H    0.365253
   118  N   -0.739504
   119  H    0.335381
   120  H    0.404662
   121  C    0.761913
   122  O   -0.632718
   123  H    0.419761
 Sum of Mulliken charges =   1.00000

 Dipole moment (field-independent basis, Debye):
    X=            -33.8283    Y=              6.8218    Z=              5.4742  Tot=             34.9408
 Quadrupole moment (field-independent basis, Debye-Ang):
   XX=            143.0100   YY=           -302.3927   ZZ=           -287.5000
   XY=           -164.1357   XZ=           -148.6321   YZ=             67.7282

 Normal termination of Gaussian 16 at Sun Jul 24 01:56:17 2022.
