 Gaussian 16, Revision C.01,
 Gaussian 16:  ES64L-G16RevC.01  3-Jul-2019

 ----------------------------------------------------------------------
 # B3LYP/6-31G* empiricaldispersion=gd3bj guess=read geom=check nosymm
 integral(ultrafinegrid)
 ----------------------------------------------------------------------

 ------------------------------------------------------
 Candidate Structure: Conf:102 Charge calc in gas phase
 ------------------------------------------------------
 Structure from the checkpoint file:  "conf-102.chk"
 Charge =  1 Multiplicity = 1

                          Input orientation:
 ---------------------------------------------------------------------
 Center     Atomic      Atomic             Coordinates (Angstroms)
 Number     Number       Type             X           Y           Z
 ---------------------------------------------------------------------
      1          7           0       -6.126191    6.031144   -0.227379
      2          1           0       -5.650726    5.468939   -0.974514
      3          1           0       -6.027111    7.035720   -0.426411
      4          1           0       -7.129383    5.773063   -0.137192
      5          6           0       -5.511869    5.679712    1.096863
      6          1           0       -4.496777    5.332880    0.895506
      7          6           0       -6.431056    4.567511    1.643110
      8          6           0       -5.510497    6.909521    2.032152
      9          1           0       -4.933085    6.641765    2.922624
     10          1           0       -6.539505    7.100595    2.355365
     11          8           0       -7.629121    4.632316    1.344091
     12          6           0       -4.936756    8.126089    1.343581
     13          6           0       -3.553715    8.252847    1.142560
     14          1           0       -2.866855    7.516637    1.551902
     15          6           0       -5.790378    9.104987    0.815196
     16          1           0       -6.862392    9.033964    0.988345
     17          6           0       -3.037793    9.341105    0.435122
     18          1           0       -1.964315    9.419126    0.300317
     19          6           0       -5.274103   10.193069    0.103643
     20          1           0       -5.948215   10.948160   -0.288742
     21          6           0       -3.899026   10.310671   -0.089121
     22          1           0       -3.495361   11.157120   -0.635605
     23          7           0       -5.832376    3.653713    2.403377
     24          1           0       -4.813265    3.631622    2.482123
     25          6           0       -6.430945    2.469051    3.019046
     26          1           0       -6.873106    2.758183    3.982434
     27          6           0       -5.211543    1.560940    3.313008
     28          6           0       -7.506551    1.787530    2.164259
     29          1           0       -7.962889    0.961624    2.718212
     30          1           0       -7.084925    1.391333    1.237257
     31          1           0       -8.295456    2.495811    1.915192
     32          8           0       -4.066319    2.010833    3.210625
     33          7           0       -5.475948    0.300142    3.696326
     34          1           0       -6.422151   -0.052394    3.658979
     35          6           0       -4.405731   -0.669404    3.963834
     36          1           0       -3.588451   -0.104224    4.418393
     37          6           0       -3.932429   -1.278157    2.624704
     38          6           0       -4.907719   -1.754926    4.905819
     39          1           0       -4.090521   -2.434855    5.160196
     40          1           0       -5.686365   -2.350399    4.420528
     41          1           0       -5.295319   -1.313439    5.828602
     42          8           0       -4.422970   -2.310661    2.176842
     43          7           0       -2.957132   -0.581255    1.996164
     44          1           0       -2.611187    0.301140    2.361319
     45          6           0       -2.314097   -1.088397    0.804678
     46          1           0       -2.189251   -2.170805    0.922990
     47          6           0       -0.946611   -0.411683    0.707920
     48          6           0       -3.153132   -0.874243   -0.489022
     49          1           0       -2.622179   -1.344642   -1.324887
     50          1           0       -4.079967   -1.435805   -0.342059
     51          8           0       -0.699697    0.631840    1.312284
     52          6           0       -3.456082    0.566376   -0.820322
     53          6           0       -4.642733    1.160827   -0.378714
     54          1           0       -5.345064    0.565567    0.197177
     55          6           0       -2.580318    1.338360   -1.594943
     56          1           0       -1.670888    0.900929   -1.995450
     57          6           0       -4.952174    2.485462   -0.684474
     58          1           0       -5.898696    2.915148   -0.373784
     59          6           0       -2.870635    2.667372   -1.900813
     60          1           0       -2.195886    3.240741   -2.529314
     61          8           0       -4.381149    4.561072   -1.725514
     62          1           0       -3.575094    5.095960   -1.884733
     63          6           0       -4.051003    3.241409   -1.431402
     64          7           0       -0.046408   -1.025488   -0.099679
     65          1           0       -0.338330   -1.812011   -0.664741
     66          6           0        1.205001   -0.360422   -0.459413
     67          1           0        1.640972    0.015669    0.469061
     68          6           0        0.891522    0.815123   -1.389458
     69          6           0        2.171404   -1.312380   -1.166331
     70          1           0        1.651545   -1.731809   -2.037142
     71          1           0        2.986005   -0.709182   -1.585534
     72          8           0        0.584193    0.639998   -2.570074
     73          6           0        2.748347   -2.432534   -0.287129
     74          1           0        1.915903   -3.001239    0.153701
     75          6           0        3.573919   -3.389074   -1.157559
     76          1           0        4.425124   -2.862319   -1.607236
     77          1           0        3.968315   -4.221453   -0.564204
     78          1           0        2.971353   -3.808997   -1.971296
     79          6           0        3.604346   -1.878296    0.859327
     80          1           0        4.422536   -1.261764    0.464116
     81          1           0        3.023063   -1.261861    1.553795
     82          1           0        4.050864   -2.692030    1.441027
     83          7           0        0.994809    2.041758   -0.829006
     84          1           0        1.122278    2.109481    0.171860
     85          6           0        0.883273    3.260877   -1.618584
     86          1           0        0.354540    2.971711   -2.532938
     87          6           0        2.311710    3.737130   -1.992602
     88          6           0        0.099629    4.319244   -0.850204
     89          1           0       -0.801742    3.846932   -0.444693
     90          1           0        0.700698    4.694353   -0.016688
     91          8           0        2.739022    4.835722   -1.638450
     92          6           0       -0.273812    5.509811   -1.750654
     93          1           0       -0.803008    5.179464   -2.649576
     94          1           0        0.650073    6.012750   -2.049594
     95          6           0       -1.113469    6.487978   -0.983978
     96          8           0       -0.754879    7.144278   -0.035314
     97          8           0       -2.416029    6.558811   -1.439075
     98          7           0        3.018522    2.815543   -2.676275
     99          1           0        2.606423    1.906952   -2.872236
    100          6           0        4.469943    2.833205   -2.814625
    101          1           0        4.786057    3.695306   -3.406484
    102          6           0        4.905921    1.543476   -3.533477
    103          6           0        5.159597    2.881897   -1.418712
    104          1           0        4.547435    2.290305   -0.725517
    105          1           0        5.130936    3.913135   -1.059512
    106          8           0        5.929781    1.575716   -4.229898
    107          6           0        6.604745    2.346884   -1.410139
    108          1           0        7.164140    2.819643   -0.595589
    109          1           0        7.089662    2.623658   -2.351100
    110          6           0        6.669302    0.806262   -1.240432
    111          1           0        5.696269    0.359536   -1.432559
    112          1           0        6.955234    0.546356   -0.214726
    113          7           0        7.634513    0.173691   -2.148748
    114          1           0        8.517217    0.657348   -2.246784
    115          7           0        6.159108   -1.268905   -3.257562
    116          1           0        6.110710   -2.033259   -3.919203
    117          1           0        5.300499   -0.610636   -3.262681
    118          7           0        8.426140   -1.270311   -3.770912
    119          1           0        8.253252   -1.556560   -4.724712
    120          1           0        9.352871   -0.905316   -3.600299
    121          6           0        7.372908   -0.754616   -3.075311
    122          8           0        4.225042    0.496280   -3.212412
    123          1           0       -2.848356    7.252111   -0.895591
 ---------------------------------------------------------------------

 SCF Done:  E(RB3LYP) =  -2974.33613686     A.U. after    2 cycles

 Alpha  occ. eigenvalues --  -19.29891 -19.28769 -19.24590 -19.23308 -19.22550
 Alpha  occ. eigenvalues --  -19.19797 -19.18606 -19.18211 -19.16476 -19.14335
 Alpha  occ. eigenvalues --  -19.12910 -14.55812 -14.48046 -14.46560 -14.45603
 Alpha  occ. eigenvalues --  -14.45552 -14.44074 -14.43159 -14.42850 -14.41911
 Alpha  occ. eigenvalues --  -14.39632 -10.41763 -10.41392 -10.40890 -10.39463
 Alpha  occ. eigenvalues --  -10.38242 -10.36622 -10.35763 -10.35181 -10.34896
 Alpha  occ. eigenvalues --  -10.34211 -10.33457 -10.32474 -10.31675 -10.31528
 Alpha  occ. eigenvalues --  -10.31219 -10.31097 -10.30332 -10.29945 -10.29877
 Alpha  occ. eigenvalues --  -10.29853 -10.29743 -10.29528 -10.29453 -10.29140
 Alpha  occ. eigenvalues --  -10.28344 -10.27905 -10.27768 -10.27637 -10.27560
 Alpha  occ. eigenvalues --  -10.27403 -10.26948 -10.26912 -10.26837 -10.26070
 Alpha  occ. eigenvalues --  -10.25639 -10.24770 -10.24429 -10.24008 -10.23523
 Alpha  occ. eigenvalues --  -10.23092 -10.22616  -1.19873  -1.17018  -1.15873
 Alpha  occ. eigenvalues --   -1.14561  -1.11949  -1.10933  -1.10878  -1.10548
 Alpha  occ. eigenvalues --   -1.10219  -1.09561  -1.08140  -1.06939  -1.04829
 Alpha  occ. eigenvalues --   -1.02802  -1.00421  -0.99747  -0.99608  -0.99415
 Alpha  occ. eigenvalues --   -0.98337  -0.97023  -0.96765  -0.95959  -0.94025
 Alpha  occ. eigenvalues --   -0.91841  -0.89043  -0.88410  -0.87612  -0.86548
 Alpha  occ. eigenvalues --   -0.85572  -0.85327  -0.85125  -0.84071  -0.83474
 Alpha  occ. eigenvalues --   -0.82948  -0.81360  -0.79706  -0.78801  -0.78741
 Alpha  occ. eigenvalues --   -0.76718  -0.75051  -0.74116  -0.73849  -0.72672
 Alpha  occ. eigenvalues --   -0.72270  -0.71951  -0.71190  -0.70971  -0.70822
 Alpha  occ. eigenvalues --   -0.70621  -0.69992  -0.69546  -0.69142  -0.68193
 Alpha  occ. eigenvalues --   -0.67823  -0.67803  -0.67178  -0.67109  -0.65323
 Alpha  occ. eigenvalues --   -0.64967  -0.64924  -0.64654  -0.63825  -0.63256
 Alpha  occ. eigenvalues --   -0.63073  -0.62190  -0.61775  -0.61419  -0.60952
 Alpha  occ. eigenvalues --   -0.60347  -0.59512  -0.59168  -0.58499  -0.58212
 Alpha  occ. eigenvalues --   -0.58012  -0.57664  -0.57050  -0.57000  -0.56591
 Alpha  occ. eigenvalues --   -0.56443  -0.56270  -0.55918  -0.55705  -0.55383
 Alpha  occ. eigenvalues --   -0.55254  -0.54877  -0.54418  -0.54160  -0.54078
 Alpha  occ. eigenvalues --   -0.53825  -0.53296  -0.53104  -0.52854  -0.52581
 Alpha  occ. eigenvalues --   -0.52493  -0.52288  -0.51811  -0.51618  -0.51221
 Alpha  occ. eigenvalues --   -0.50889  -0.50718  -0.50694  -0.50533  -0.50400
 Alpha  occ. eigenvalues --   -0.49671  -0.49527  -0.49399  -0.49236  -0.49019
 Alpha  occ. eigenvalues --   -0.48892  -0.48698  -0.48291  -0.47915  -0.47466
 Alpha  occ. eigenvalues --   -0.47390  -0.47185  -0.47013  -0.46853  -0.46581
 Alpha  occ. eigenvalues --   -0.46532  -0.45983  -0.45772  -0.45477  -0.45191
 Alpha  occ. eigenvalues --   -0.45081  -0.44871  -0.44827  -0.44722  -0.44534
 Alpha  occ. eigenvalues --   -0.44410  -0.43953  -0.43884  -0.43774  -0.43435
 Alpha  occ. eigenvalues --   -0.43256  -0.42721  -0.42352  -0.42100  -0.42051
 Alpha  occ. eigenvalues --   -0.41897  -0.41776  -0.41676  -0.41142  -0.40985
 Alpha  occ. eigenvalues --   -0.39250  -0.38805  -0.38636  -0.38400  -0.38290
 Alpha  occ. eigenvalues --   -0.38187  -0.38088  -0.37171  -0.37130  -0.36233
 Alpha  occ. eigenvalues --   -0.36227  -0.35982  -0.35708  -0.35116  -0.34188
 Alpha  occ. eigenvalues --   -0.33702  -0.33642  -0.33292  -0.32717  -0.31798
 Alpha  occ. eigenvalues --   -0.31289  -0.30795  -0.29952  -0.29782  -0.29247
 Alpha  occ. eigenvalues --   -0.28796  -0.26691
 Alpha virt. eigenvalues --   -0.12486  -0.11709  -0.10215  -0.09093  -0.08627
 Alpha virt. eigenvalues --   -0.08265  -0.07874  -0.06118  -0.06080  -0.05791
 Alpha virt. eigenvalues --   -0.05473  -0.04660  -0.03095  -0.02562  -0.02364

 Mulliken charges:
               1
     1  N   -0.782344
     2  H    0.450370
     3  H    0.390916
     4  H    0.412711
     5  C   -0.103552
     6  H    0.201997
     7  C    0.650481
     8  C   -0.369720
     9  H    0.201854
    10  H    0.194065
    11  O   -0.547332
    12  C    0.138647
    13  C   -0.234560
    14  H    0.173593
    15  C   -0.222539
    16  H    0.154477
    17  C   -0.149996
    18  H    0.194125
    19  C   -0.118441
    20  H    0.167948
    21  C   -0.122202
    22  H    0.170190
    23  N   -0.623368
    24  H    0.378120
    25  C   -0.028101
    26  H    0.202066
    27  C    0.634594
    28  C   -0.496917
    29  H    0.160662
    30  H    0.180834
    31  H    0.219326
    32  O   -0.543868
    33  N   -0.605042
    34  H    0.348493
    35  C   -0.057815
    36  H    0.184972
    37  C    0.621204
    38  C   -0.469602
    39  H    0.181280
    40  H    0.180892
    41  H    0.160167
    42  O   -0.526450
    43  N   -0.615428
    44  H    0.374910
    45  C   -0.040894
    46  H    0.183595
    47  C    0.633926
    48  C   -0.382802
    49  H    0.158458
    50  H    0.192717
    51  O   -0.546438
    52  C    0.183652
    53  C   -0.195177
    54  H    0.143848
    55  C   -0.201618
    56  H    0.189859
    57  C   -0.185252
    58  H    0.126205
    59  C   -0.195389
    60  H    0.149785
    61  O   -0.741601
    62  H    0.455493
    63  C    0.345765
    64  N   -0.604833
    65  H    0.341233
    66  C   -0.052424
    67  H    0.162477
    68  C    0.642061
    69  C   -0.319098
    70  H    0.152895
    71  H    0.199515
    72  O   -0.556202
    73  C   -0.071017
    74  H    0.121134
    75  C   -0.453893
    76  H    0.152526
    77  H    0.146438
    78  H    0.142070
    79  C   -0.455946
    80  H    0.140790
    81  H    0.145893
    82  H    0.152081
    83  N   -0.589502
    84  H    0.351588
    85  C   -0.072458
    86  H    0.187348
    87  C    0.630032
    88  C   -0.293289
    89  H    0.157588
    90  H    0.186908
    91  O   -0.542577
    92  C   -0.361341
    93  H    0.159192
    94  H    0.236625
    95  C    0.577957
    96  O   -0.443592
    97  O   -0.629571
    98  N   -0.635219
    99  H    0.377592
   100  C    0.021109
   101  H    0.166798
   102  C    0.565422
   103  C   -0.290363
   104  H    0.128495
   105  H    0.179390
   106  O   -0.572472
   107  C   -0.302962
   108  H    0.144391
   109  H    0.184401
   110  C   -0.164905
   111  H    0.207867
   112  H    0.166020
   113  N   -0.578459
   114  H    0.341940
   115  N   -0.769653
   116  H    0.338781
   117  H    0.438139
   118  N   -0.757560
   119  H    0.365776
   120  H    0.353638
   121  C    0.782047
   122  O   -0.635472
   123  H    0.418903
 Sum of Mulliken charges =   1.00000

 Dipole moment (field-independent basis, Debye):
    X=             -9.6205    Y=             15.5837    Z=              2.1854  Tot=             18.4440
 Quadrupole moment (field-independent basis, Debye-Ang):
   XX=           -115.6782   YY=           -211.5896   ZZ=           -338.0616
   XY=           -144.6264   XZ=            -59.1258   YZ=             13.3928

 Normal termination of Gaussian 16 at Sun Jul 24 01:50:48 2022.
