 Gaussian 16, Revision C.01,
 Gaussian 16:  ES64L-G16RevC.01  3-Jul-2019

 ----------------------------------------------------------------------
 # B3LYP/6-31G* empiricaldispersion=gd3bj guess=read geom=check nosymm
 integral(ultrafinegrid)
 ----------------------------------------------------------------------

 ------------------------------------------------------
 Candidate Structure: Conf:950 Charge calc in gas phase
 ------------------------------------------------------
 Structure from the checkpoint file:  "conf-950.chk"
 Charge =  1 Multiplicity = 1

                          Input orientation:
 ---------------------------------------------------------------------
 Center     Atomic      Atomic             Coordinates (Angstroms)
 Number     Number       Type             X           Y           Z
 ---------------------------------------------------------------------
      1          7           0       -6.476616   -1.274855    7.587782
      2          1           0       -7.098289   -1.627692    8.318017
      3          1           0       -5.595938   -0.935527    8.010892
      4          1           0       -6.227832   -2.020361    6.878601
      5          6           0       -7.078569   -0.187934    6.730588
      6          1           0       -8.166006   -0.277906    6.806047
      7          6           0       -6.637673   -0.611200    5.302965
      8          6           0       -6.611148    1.207424    7.198556
      9          1           0       -7.060977    1.409494    8.177296
     10          1           0       -7.028436    1.952857    6.514559
     11          8           0       -6.138165   -1.735885    5.162927
     12          6           0       -5.104617    1.309171    7.270039
     13          6           0       -4.437243    0.966524    8.457682
     14          1           0       -5.010186    0.762765    9.362288
     15          6           0       -4.350284    1.677298    6.147351
     16          1           0       -4.851115    1.986484    5.234719
     17          6           0       -3.040620    0.961390    8.514943
     18          1           0       -2.538460    0.704841    9.442475
     19          6           0       -2.957719    1.681769    6.211821
     20          1           0       -2.382431    1.982020    5.341928
     21          6           0       -2.299964    1.311597    7.387296
     22          1           0       -1.215433    1.315890    7.428591
     23          7           0       -6.857039    0.258964    4.324639
     24          1           0       -7.112123    1.228067    4.513082
     25          6           0       -6.320326    0.088396    2.977583
     26          1           0       -5.431801   -0.546303    3.048291
     27          6           0       -5.907108    1.511060    2.542739
     28          6           0       -7.340937   -0.549020    2.027035
     29          1           0       -6.914106   -0.678804    1.027892
     30          1           0       -8.234694    0.076518    1.942554
     31          1           0       -7.630308   -1.533562    2.403990
     32          8           0       -6.251918    2.488076    3.219411
     33          7           0       -5.165470    1.560660    1.430593
     34          1           0       -4.995340    0.719427    0.882512
     35          6           0       -4.664053    2.765654    0.775727
     36          1           0       -5.512995    3.340377    0.379476
     37          6           0       -3.848885    2.225576   -0.419874
     38          6           0       -3.848437    3.660646    1.717786
     39          1           0       -3.578958    4.603258    1.230144
     40          1           0       -2.932297    3.156091    2.037246
     41          1           0       -4.450008    3.904193    2.593999
     42          8           0       -4.006551    1.052657   -0.796417
     43          7           0       -2.968852    3.067999   -0.969861
     44          1           0       -2.832890    3.986743   -0.562808
     45          6           0       -2.054437    2.738867   -2.066876
     46          1           0       -2.602475    2.104205   -2.771916
     47          6           0       -0.850226    1.915178   -1.544296
     48          6           0       -1.609976    4.044265   -2.766967
     49          1           0       -0.726770    3.809517   -3.364959
     50          1           0       -2.408469    4.342835   -3.453354
     51          8           0        0.317019    2.284020   -1.686030
     52          6           0       -1.324368    5.179387   -1.804822
     53          6           0       -2.329989    6.111758   -1.499005
     54          1           0       -3.286036    6.053430   -2.015294
     55          6           0       -0.092591    5.303078   -1.147623
     56          1           0        0.693790    4.588412   -1.360677
     57          6           0       -2.128692    7.125004   -0.564492
     58          1           0       -2.903124    7.851583   -0.342284
     59          6           0        0.125728    6.318001   -0.219845
     60          1           0        1.092388    6.402306    0.272573
     61          8           0       -0.741339    8.237800    0.985426
     62          1           0        0.174035    8.246758    1.306534
     63          6           0       -0.891865    7.231127    0.079866
     64          7           0       -1.189009    0.762847   -0.924443
     65          1           0       -2.168313    0.485593   -0.929529
     66          6           0       -0.229623   -0.040440   -0.169653
     67          1           0        0.525516    0.656795    0.209404
     68          6           0        0.517887   -1.033018   -1.082867
     69          6           0       -0.925957   -0.755172    0.989682
     70          1           0       -1.607484   -1.510171    0.579708
     71          1           0       -0.163175   -1.314653    1.543189
     72          8           0        0.447263   -2.260287   -0.897020
     73          6           0       -1.689504    0.173692    1.949626
     74          1           0       -2.481855    0.671944    1.379341
     75          6           0       -2.371167   -0.650078    3.049183
     76          1           0       -1.631183   -1.158384    3.679474
     77          1           0       -2.977913   -0.012202    3.703502
     78          1           0       -3.023684   -1.421780    2.622629
     79          6           0       -0.789547    1.258972    2.551976
     80          1           0        0.061358    0.814939    3.083313
     81          1           0       -0.392407    1.935092    1.787683
     82          1           0       -1.345290    1.872703    3.271445
     83          7           0        1.232184   -0.457224   -2.061447
     84          1           0        1.332063    0.556383   -2.041984
     85          6           0        2.113496   -1.249860   -2.903143
     86          1           0        1.637004   -2.219759   -3.009497
     87          6           0        3.465671   -1.421464   -2.171087
     88          6           0        2.244999   -0.651299   -4.310576
     89          1           0        1.250234   -0.675630   -4.766949
     90          1           0        2.550969    0.398759   -4.238225
     91          8           0        4.064076   -0.466507   -1.683979
     92          6           0        3.268228   -1.390146   -5.205278
     93          1           0        4.274357   -0.998008   -5.041606
     94          1           0        3.020098   -1.211803   -6.258105
     95          6           0        3.316540   -2.892213   -4.951957
     96          8           0        2.315730   -3.557373   -4.687363
     97          8           0        4.547961   -3.367750   -4.947154
     98          7           0        3.841473   -2.714132   -2.101047
     99          1           0        3.301171   -3.383454   -2.631403
    100          6           0        5.072175   -3.265916   -1.541742
    101          1           0        5.928053   -2.820967   -2.067981
    102          6           0        5.035035   -4.788409   -1.890544
    103          6           0        5.234051   -2.991006   -0.039351
    104          1           0        5.592714   -1.964242    0.082435
    105          1           0        6.014924   -3.668155    0.316804
    106          8           0        5.339618   -5.602708   -0.989073
    107          6           0        3.987559   -3.131361    0.854936
    108          1           0        3.290008   -2.310076    0.640048
    109          1           0        4.316574   -2.977758    1.890058
    110          6           0        3.204989   -4.458436    0.822956
    111          1           0        2.629825   -4.570328    1.750390
    112          1           0        3.887726   -5.300407    0.730648
    113          7           0        2.256656   -4.460573   -0.295266
    114          1           0        1.743582   -3.588631   -0.428589
    115          7           0        2.754050   -6.520363   -1.300735
    116          1           0        2.618358   -7.042896   -2.157454
    117          1           0        3.755136   -6.481603   -1.032855
    118          7           0        1.164064   -5.078049   -2.230141
    119          1           0        1.483880   -5.222174   -3.185961
    120          1           0        0.689999   -4.185350   -2.119565
    121          6           0        2.093729   -5.351084   -1.266688
    122          8           0        4.584301   -5.101392   -3.036795
    123          1           0        4.581078   -4.192098   -4.343036
 ---------------------------------------------------------------------

 SCF Done:  E(RB3LYP) =  -2974.33434727     A.U. after    3 cycles

 Alpha  occ. eigenvalues --  -19.27520 -19.24743 -19.23812 -19.23212 -19.20811
 Alpha  occ. eigenvalues --  -19.19789 -19.19746 -19.16834 -19.15040 -19.13406
 Alpha  occ. eigenvalues --  -19.12763 -14.59926 -14.50084 -14.47288 -14.46816
 Alpha  occ. eigenvalues --  -14.44208 -14.43035 -14.42498 -14.41736 -14.40820
 Alpha  occ. eigenvalues --  -14.39239 -10.44315 -10.41561 -10.40705 -10.40013
 Alpha  occ. eigenvalues --  -10.38462 -10.37546 -10.36292 -10.35692 -10.35049
 Alpha  occ. eigenvalues --  -10.35011 -10.34706 -10.32995 -10.32924 -10.32200
 Alpha  occ. eigenvalues --  -10.32155 -10.31885 -10.31240 -10.31161 -10.31007
 Alpha  occ. eigenvalues --  -10.30990 -10.30875 -10.30687 -10.29426 -10.28106
 Alpha  occ. eigenvalues --  -10.27779 -10.27720 -10.27571 -10.27274 -10.26644
 Alpha  occ. eigenvalues --  -10.26584 -10.26543 -10.26425 -10.26132 -10.26015
 Alpha  occ. eigenvalues --  -10.25858 -10.25824 -10.25501 -10.24672 -10.23872
 Alpha  occ. eigenvalues --  -10.23533 -10.21386  -1.20035  -1.15842  -1.14939
 Alpha  occ. eigenvalues --   -1.14194  -1.12904  -1.12555  -1.12178  -1.10956
 Alpha  occ. eigenvalues --   -1.07645  -1.07052  -1.06902  -1.06219  -1.04181
 Alpha  occ. eigenvalues --   -1.03577  -1.03314  -1.01119  -0.99079  -0.98505
 Alpha  occ. eigenvalues --   -0.97776  -0.97029  -0.95783  -0.94806  -0.94155
 Alpha  occ. eigenvalues --   -0.92757  -0.90565  -0.89796  -0.88387  -0.87002
 Alpha  occ. eigenvalues --   -0.86651  -0.85623  -0.85372  -0.83515  -0.83260
 Alpha  occ. eigenvalues --   -0.81969  -0.80841  -0.80650  -0.79012  -0.78203
 Alpha  occ. eigenvalues --   -0.77262  -0.77006  -0.76838  -0.75136  -0.74368
 Alpha  occ. eigenvalues --   -0.73842  -0.72969  -0.72414  -0.72081  -0.71694
 Alpha  occ. eigenvalues --   -0.70949  -0.70146  -0.69361  -0.68807  -0.68328
 Alpha  occ. eigenvalues --   -0.68126  -0.67754  -0.67342  -0.65952  -0.65661
 Alpha  occ. eigenvalues --   -0.64895  -0.64581  -0.64471  -0.63522  -0.63149
 Alpha  occ. eigenvalues --   -0.62125  -0.61662  -0.61496  -0.61060  -0.60953
 Alpha  occ. eigenvalues --   -0.60617  -0.60201  -0.59530  -0.59305  -0.59023
 Alpha  occ. eigenvalues --   -0.58454  -0.58221  -0.57711  -0.57393  -0.57087
 Alpha  occ. eigenvalues --   -0.56322  -0.56214  -0.56014  -0.55182  -0.54739
 Alpha  occ. eigenvalues --   -0.54638  -0.54416  -0.54331  -0.54211  -0.54144
 Alpha  occ. eigenvalues --   -0.53692  -0.53356  -0.53127  -0.53001  -0.52892
 Alpha  occ. eigenvalues --   -0.52455  -0.52324  -0.52011  -0.51884  -0.51440
 Alpha  occ. eigenvalues --   -0.50870  -0.50748  -0.50642  -0.50313  -0.50033
 Alpha  occ. eigenvalues --   -0.49983  -0.49682  -0.49468  -0.49185  -0.49029
 Alpha  occ. eigenvalues --   -0.48775  -0.48673  -0.48446  -0.48338  -0.48269
 Alpha  occ. eigenvalues --   -0.47691  -0.47683  -0.47381  -0.47350  -0.47155
 Alpha  occ. eigenvalues --   -0.47075  -0.46818  -0.46404  -0.46392  -0.46330
 Alpha  occ. eigenvalues --   -0.45997  -0.45871  -0.45663  -0.45045  -0.44485
 Alpha  occ. eigenvalues --   -0.44225  -0.44044  -0.43792  -0.43188  -0.42612
 Alpha  occ. eigenvalues --   -0.42269  -0.42122  -0.42036  -0.41795  -0.41357
 Alpha  occ. eigenvalues --   -0.41155  -0.41029  -0.40592  -0.40293  -0.40208
 Alpha  occ. eigenvalues --   -0.40000  -0.39917  -0.39190  -0.38191  -0.38108
 Alpha  occ. eigenvalues --   -0.37707  -0.37635  -0.37562  -0.37449  -0.37415
 Alpha  occ. eigenvalues --   -0.37010  -0.36584  -0.36128  -0.34439  -0.33642
 Alpha  occ. eigenvalues --   -0.33521  -0.33388  -0.32545  -0.32088  -0.31875
 Alpha  occ. eigenvalues --   -0.30484  -0.29159  -0.29086  -0.28951  -0.28459
 Alpha  occ. eigenvalues --   -0.27498  -0.26701
 Alpha virt. eigenvalues --   -0.13725  -0.13143  -0.13021  -0.10042  -0.09401
 Alpha virt. eigenvalues --   -0.09079  -0.07708  -0.07025  -0.06401  -0.05589
 Alpha virt. eigenvalues --   -0.05002  -0.04587  -0.04361  -0.03235  -0.02912

 Mulliken charges:
               1
     1  N   -0.756490
     2  H    0.411203
     3  H    0.403416
     4  H    0.433890
     5  C   -0.114109
     6  H    0.229802
     7  C    0.654273
     8  C   -0.395901
     9  H    0.191966
    10  H    0.209452
    11  O   -0.536464
    12  C    0.141506
    13  C   -0.243929
    14  H    0.146403
    15  C   -0.188975
    16  H    0.170225
    17  C   -0.118440
    18  H    0.168135
    19  C   -0.130267
    20  H    0.169625
    21  C   -0.125296
    22  H    0.168118
    23  N   -0.598905
    24  H    0.373531
    25  C   -0.082983
    26  H    0.208161
    27  C    0.647477
    28  C   -0.449647
    29  H    0.178302
    30  H    0.175829
    31  H    0.186948
    32  O   -0.550771
    33  N   -0.634207
    34  H    0.374917
    35  C   -0.019969
    36  H    0.201530
    37  C    0.628065
    38  C   -0.505273
    39  H    0.175415
    40  H    0.174053
    41  H    0.205418
    42  O   -0.570133
    43  N   -0.614298
    44  H    0.371863
    45  C   -0.074209
    46  H    0.198642
    47  C    0.635364
    48  C   -0.359872
    49  H    0.193090
    50  H    0.163408
    51  O   -0.534287
    52  C    0.099843
    53  C   -0.222595
    54  H    0.136866
    55  C   -0.182821
    56  H    0.183135
    57  C   -0.156123
    58  H    0.153492
    59  C   -0.194701
    60  H    0.136864
    61  O   -0.633814
    62  H    0.415320
    63  C    0.353415
    64  N   -0.621285
    65  H    0.384237
    66  C   -0.082976
    67  H    0.193687
    68  C    0.645993
    69  C   -0.278251
    70  H    0.156938
    71  H    0.156884
    72  O   -0.576478
    73  C   -0.082078
    74  H    0.117059
    75  C   -0.457546
    76  H    0.153466
    77  H    0.128017
    78  H    0.147205
    79  C   -0.471846
    80  H    0.154091
    81  H    0.164324
    82  H    0.143079
    83  N   -0.600686
    84  H    0.382223
    85  C   -0.084205
    86  H    0.178376
    87  C    0.614122
    88  C   -0.269625
    89  H    0.156289
    90  H    0.161020
    91  O   -0.548140
    92  C   -0.362374
    93  H    0.190892
    94  H    0.180049
    95  C    0.584201
    96  O   -0.523386
    97  O   -0.584227
    98  N   -0.641666
    99  H    0.358018
   100  C   -0.018165
   101  H    0.174840
   102  C    0.577892
   103  C   -0.262612
   104  H    0.157746
   105  H    0.169291
   106  O   -0.572403
   107  C   -0.291653
   108  H    0.139093
   109  H    0.144467
   110  C   -0.148889
   111  H    0.149462
   112  H    0.213350
   113  N   -0.590363
   114  H    0.398077
   115  N   -0.723361
   116  H    0.354009
   117  H    0.399078
   118  N   -0.774190
   119  H    0.380857
   120  H    0.372830
   121  C    0.678350
   122  O   -0.625811
   123  H    0.458222
 Sum of Mulliken charges =   1.00000

 Dipole moment (field-independent basis, Debye):
    X=            -32.2899    Y=              5.9642    Z=             29.4718  Tot=             44.1225
 Quadrupole moment (field-independent basis, Debye-Ang):
   XX=           -215.0099   YY=           -351.0244   ZZ=           -133.4067
   XY=             32.8807   XZ=           -154.1309   YZ=            -29.1836

 Normal termination of Gaussian 16 at Sun Jul 24 01:57:33 2022.
