 Gaussian 16, Revision C.01,
 Gaussian 16:  ES64L-G16RevC.01  3-Jul-2019

 ----------------------------------------------------------------------
 # B3LYP/6-31G* empiricaldispersion=gd3bj guess=read geom=check nosymm
 integral(ultrafinegrid)
 ----------------------------------------------------------------------

 ------------------------------------------------------
 Candidate Structure: Conf:231 Charge calc in gas phase
 ------------------------------------------------------
 Structure from the checkpoint file:  "conf-231.chk"
 Charge =  1 Multiplicity = 1

                          Input orientation:
 ---------------------------------------------------------------------
 Center     Atomic      Atomic             Coordinates (Angstroms)
 Number     Number       Type             X           Y           Z
 ---------------------------------------------------------------------
      1          7           0      -10.791616   -0.291741    2.601377
      2          1           0      -11.144344    0.142756    1.744104
      3          1           0      -11.550965   -0.330705    3.286239
      4          1           0      -10.424950   -1.266061    2.367347
      5          6           0       -9.538751    0.379622    3.131388
      6          1           0       -9.452779    1.378673    2.702252
      7          6           0       -8.429601   -0.568185    2.605248
      8          6           0       -9.598972    0.442073    4.678204
      9          1           0       -9.459904   -0.568178    5.080055
     10          1           0      -10.605547    0.773874    4.964311
     11          8           0       -8.783878   -1.705790    2.244804
     12          6           0       -8.587867    1.405448    5.257941
     13          6           0       -7.293592    0.990311    5.583225
     14          1           0       -7.013045   -0.051659    5.467650
     15          6           0       -8.933693    2.754638    5.421703
     16          1           0       -9.942243    3.087564    5.188087
     17          6           0       -6.346533    1.910750    6.032793
     18          1           0       -5.338343    1.576544    6.250263
     19          6           0       -7.991947    3.676029    5.882550
     20          1           0       -8.273721    4.715987    6.016361
     21          6           0       -6.691898    3.253682    6.181789
     22          1           0       -5.958010    3.968956    6.540167
     23          7           0       -7.188010   -0.113181    2.602102
     24          1           0       -6.981405    0.841701    2.899011
     25          6           0       -6.051241   -0.925967    2.176696
     26          1           0       -6.176739   -1.932207    2.590635
     27          6           0       -4.801036   -0.262578    2.777415
     28          6           0       -5.968255   -1.005793    0.642994
     29          1           0       -5.140303   -1.643906    0.321154
     30          1           0       -5.814530   -0.008092    0.223335
     31          1           0       -6.894097   -1.430908    0.247894
     32          8           0       -4.880625    0.805179    3.380365
     33          7           0       -3.638514   -0.932403    2.577959
     34          1           0       -3.638132   -1.707249    1.924630
     35          6           0       -2.347212   -0.244821    2.692207
     36          1           0       -2.496827    0.565918    3.407240
     37          6           0       -2.049147    0.300590    1.286879
     38          6           0       -1.254104   -1.197275    3.165093
     39          1           0       -0.314470   -0.649697    3.294122
     40          1           0       -1.082089   -1.985328    2.426626
     41          1           0       -1.530480   -1.644827    4.123724
     42          8           0       -1.938947   -0.479184    0.334059
     43          7           0       -1.988509    1.641395    1.164098
     44          1           0       -2.196028    2.209378    1.974731
     45          6           0       -1.964066    2.305929   -0.144458
     46          1           0       -2.532155    1.661431   -0.823717
     47          6           0       -0.508151    2.401228   -0.652671
     48          6           0       -2.623719    3.689200   -0.054655
     49          1           0       -1.954020    4.361645    0.489898
     50          1           0       -2.695247    4.088324   -1.071722
     51          8           0        0.140454    3.439842   -0.596952
     52          6           0       -3.977968    3.605145    0.607710
     53          6           0       -5.053666    2.971341   -0.029514
     54          1           0       -4.943413    2.630050   -1.055805
     55          6           0       -4.165351    4.059305    1.917256
     56          1           0       -3.355070    4.577840    2.424385
     57          6           0       -6.261648    2.761558    0.629686
     58          1           0       -7.094148    2.271751    0.134221
     59          6           0       -5.365336    3.850295    2.595369
     60          1           0       -5.479385    4.170923    3.626860
     61          8           0       -7.576676    2.853940    2.604176
     62          1           0       -7.572919    3.242800    3.497295
     63          6           0       -6.401662    3.179476    1.953425
     64          7           0       -0.048074    1.227068   -1.141633
     65          1           0       -0.620525    0.391433   -1.040956
     66          6           0        1.333222    1.028729   -1.547699
     67          1           0        1.628230    1.869858   -2.180707
     68          6           0        1.362333   -0.282507   -2.330394
     69          6           0        2.274718    0.950139   -0.322306
     70          1           0        2.143699    1.885300    0.234152
     71          1           0        1.905642    0.140727    0.321646
     72          8           0        0.635889   -1.230882   -1.992115
     73          6           0        3.766802    0.728358   -0.621705
     74          1           0        3.890439   -0.185133   -1.215774
     75          6           0        4.375715    1.892284   -1.414957
     76          1           0        4.278092    2.836379   -0.864938
     77          1           0        5.439077    1.713691   -1.602397
     78          1           0        3.897521    2.038281   -2.391426
     79          6           0        4.526457    0.527560    0.695431
     80          1           0        4.459819    1.419759    1.330894
     81          1           0        4.122411   -0.320024    1.262821
     82          1           0        5.585993    0.325949    0.507143
     83          7           0        2.211737   -0.341980   -3.369446
     84          1           0        2.869911    0.417158   -3.491165
     85          6           0        2.527607   -1.592961   -4.057268
     86          1           0        1.592284   -2.151855   -4.141245
     87          6           0        3.565001   -2.377990   -3.223722
     88          6           0        3.095030   -1.274986   -5.441762
     89          1           0        2.376915   -0.667833   -6.001338
     90          1           0        4.003556   -0.674680   -5.317656
     91          8           0        4.628553   -1.833790   -2.913291
     92          6           0        3.435639   -2.536459   -6.231947
     93          1           0        2.570903   -3.208537   -6.311435
     94          1           0        4.221256   -3.119764   -5.738596
     95          6           0        3.899621   -2.208277   -7.633501
     96          8           0        3.932696   -1.101771   -8.124720
     97          8           0        4.279890   -3.322467   -8.299959
     98          7           0        3.181466   -3.624342   -2.917787
     99          1           0        2.254287   -3.965258   -3.174289
    100          6           0        3.892465   -4.662508   -2.174624
    101          1           0        4.594753   -5.171510   -2.850852
    102          6           0        2.796817   -5.702117   -1.766762
    103          6           0        4.721284   -4.152129   -0.982588
    104          1           0        5.562457   -3.586637   -1.388445
    105          1           0        5.116605   -5.042198   -0.483969
    106          8           0        3.060808   -6.463455   -0.812081
    107          6           0        4.024114   -3.244198    0.046817
    108          1           0        3.420903   -2.487168   -0.467778
    109          1           0        4.807126   -2.689349    0.578367
    110          6           0        3.173827   -3.934267    1.127048
    111          1           0        2.984218   -3.247005    1.961967
    112          1           0        3.711819   -4.786435    1.547027
    113          7           0        1.895915   -4.473434    0.643201
    114          1           0        1.991456   -5.424588    0.258919
    115          7           0        0.756612   -2.431623    0.565685
    116          1           0        0.421457   -1.777265   -0.142994
    117          1           0        1.475060   -2.057090    1.167829
    118          7           0        0.066002   -4.216857   -0.751480
    119          1           0       -0.572959   -3.556304   -1.175701
    120          1           0        0.467295   -4.941453   -1.387511
    121          6           0        0.932073   -3.705783    0.133085
    122          8           0        1.693988   -5.605603   -2.393148
    123          1           0        4.560806   -3.029613   -9.187409
 ---------------------------------------------------------------------

 SCF Done:  E(RB3LYP) =  -2974.32979159     A.U. after    2 cycles

 Alpha  occ. eigenvalues --  -19.28737 -19.27359 -19.23478 -19.23423 -19.21555
 Alpha  occ. eigenvalues --  -19.19969 -19.18349 -19.17985 -19.15282 -19.12809
 Alpha  occ. eigenvalues --  -19.11775 -14.60579 -14.49826 -14.47076 -14.46228
 Alpha  occ. eigenvalues --  -14.43665 -14.43331 -14.42439 -14.42277 -14.41592
 Alpha  occ. eigenvalues --  -14.39277 -10.43965 -10.41086 -10.40403 -10.39098
 Alpha  occ. eigenvalues --  -10.38452 -10.36570 -10.36201 -10.35756 -10.35510
 Alpha  occ. eigenvalues --  -10.35137 -10.34496 -10.33374 -10.32597 -10.32489
 Alpha  occ. eigenvalues --  -10.31875 -10.31183 -10.30800 -10.30776 -10.30502
 Alpha  occ. eigenvalues --  -10.30399 -10.30347 -10.30221 -10.29349 -10.28868
 Alpha  occ. eigenvalues --  -10.28656 -10.28444 -10.28402 -10.28373 -10.28350
 Alpha  occ. eigenvalues --  -10.28303 -10.27528 -10.27080 -10.25463 -10.25136
 Alpha  occ. eigenvalues --  -10.24869 -10.24455 -10.24330 -10.23668 -10.22799
 Alpha  occ. eigenvalues --  -10.22766 -10.21712  -1.19901  -1.16250  -1.15519
 Alpha  occ. eigenvalues --   -1.14451  -1.14355  -1.13401  -1.11660  -1.10118
 Alpha  occ. eigenvalues --   -1.08201  -1.07155  -1.06741  -1.05711  -1.05486
 Alpha  occ. eigenvalues --   -1.03666  -1.02445  -0.99993  -0.99248  -0.98309
 Alpha  occ. eigenvalues --   -0.97978  -0.97038  -0.96031  -0.95196  -0.94862
 Alpha  occ. eigenvalues --   -0.93953  -0.90228  -0.88370  -0.87387  -0.86812
 Alpha  occ. eigenvalues --   -0.86314  -0.85859  -0.85513  -0.84352  -0.83680
 Alpha  occ. eigenvalues --   -0.82917  -0.81059  -0.80886  -0.79188  -0.77893
 Alpha  occ. eigenvalues --   -0.77341  -0.75606  -0.74499  -0.74082  -0.74036
 Alpha  occ. eigenvalues --   -0.73743  -0.72994  -0.72502  -0.72254  -0.72118
 Alpha  occ. eigenvalues --   -0.70966  -0.70208  -0.69857  -0.69528  -0.68949
 Alpha  occ. eigenvalues --   -0.68285  -0.68213  -0.66928  -0.66675  -0.65353
 Alpha  occ. eigenvalues --   -0.64989  -0.64247  -0.64189  -0.63960  -0.63205
 Alpha  occ. eigenvalues --   -0.62699  -0.62502  -0.61980  -0.61476  -0.60896
 Alpha  occ. eigenvalues --   -0.60581  -0.59801  -0.59500  -0.59036  -0.58457
 Alpha  occ. eigenvalues --   -0.57945  -0.57774  -0.57524  -0.57175  -0.56977
 Alpha  occ. eigenvalues --   -0.56519  -0.56292  -0.55855  -0.55635  -0.55434
 Alpha  occ. eigenvalues --   -0.55051  -0.54786  -0.54272  -0.53830  -0.53774
 Alpha  occ. eigenvalues --   -0.53323  -0.53178  -0.53046  -0.52834  -0.52647
 Alpha  occ. eigenvalues --   -0.52319  -0.52246  -0.51907  -0.51854  -0.51578
 Alpha  occ. eigenvalues --   -0.51411  -0.51252  -0.50940  -0.50651  -0.50422
 Alpha  occ. eigenvalues --   -0.50223  -0.49834  -0.49668  -0.49551  -0.48956
 Alpha  occ. eigenvalues --   -0.48738  -0.48544  -0.48510  -0.48032  -0.47860
 Alpha  occ. eigenvalues --   -0.47733  -0.47595  -0.47474  -0.46983  -0.46743
 Alpha  occ. eigenvalues --   -0.46568  -0.46223  -0.46120  -0.45835  -0.45792
 Alpha  occ. eigenvalues --   -0.45216  -0.44954  -0.44812  -0.44445  -0.44036
 Alpha  occ. eigenvalues --   -0.43766  -0.43695  -0.43507  -0.42974  -0.42948
 Alpha  occ. eigenvalues --   -0.42875  -0.42723  -0.42279  -0.42137  -0.42020
 Alpha  occ. eigenvalues --   -0.41899  -0.40829  -0.40367  -0.39926  -0.39906
 Alpha  occ. eigenvalues --   -0.39670  -0.39181  -0.38551  -0.38465  -0.38070
 Alpha  occ. eigenvalues --   -0.37786  -0.37567  -0.37303  -0.36719  -0.36656
 Alpha  occ. eigenvalues --   -0.36388  -0.35782  -0.35514  -0.34858  -0.34399
 Alpha  occ. eigenvalues --   -0.34138  -0.33541  -0.32488  -0.31857  -0.31774
 Alpha  occ. eigenvalues --   -0.31664  -0.31150  -0.29731  -0.28883  -0.28001
 Alpha  occ. eigenvalues --   -0.27321  -0.25714
 Alpha virt. eigenvalues --   -0.13356  -0.12492  -0.12118  -0.11589  -0.10059
 Alpha virt. eigenvalues --   -0.09639  -0.08633  -0.07341  -0.06926  -0.06073
 Alpha virt. eigenvalues --   -0.05509  -0.04488  -0.03574  -0.03261  -0.03032

 Mulliken charges:
               1
     1  N   -0.758134
     2  H    0.417682
     3  H    0.411017
     4  H    0.434166
     5  C   -0.112902
     6  H    0.241554
     7  C    0.638357
     8  C   -0.389914
     9  H    0.197791
    10  H    0.175075
    11  O   -0.551977
    12  C    0.163026
    13  C   -0.176160
    14  H    0.147717
    15  C   -0.204986
    16  H    0.142775
    17  C   -0.097742
    18  H    0.167647
    19  C   -0.161134
    20  H    0.168984
    21  C   -0.137228
    22  H    0.166558
    23  N   -0.617735
    24  H    0.428116
    25  C   -0.068843
    26  H    0.201759
    27  C    0.625257
    28  C   -0.467819
    29  H    0.176200
    30  H    0.178386
    31  H    0.185593
    32  O   -0.530299
    33  N   -0.586890
    34  H    0.349959
    35  C   -0.067747
    36  H    0.176843
    37  C    0.630912
    38  C   -0.470112
    39  H    0.161068
    40  H    0.198178
    41  H    0.170818
    42  O   -0.558510
    43  N   -0.591461
    44  H    0.348452
    45  C   -0.061574
    46  H    0.175938
    47  C    0.642271
    48  C   -0.400681
    49  H    0.188256
    50  H    0.183545
    51  O   -0.526201
    52  C    0.176610
    53  C   -0.185924
    54  H    0.144773
    55  C   -0.219144
    56  H    0.146426
    57  C   -0.166355
    58  H    0.129324
    59  C   -0.156530
    60  H    0.137843
    61  O   -0.705275
    62  H    0.434719
    63  C    0.344728
    64  N   -0.646394
    65  H    0.381845
    66  C   -0.044953
    67  H    0.179479
    68  C    0.633751
    69  C   -0.260123
    70  H    0.172121
    71  H    0.101458
    72  O   -0.583412
    73  C   -0.117084
    74  H    0.178229
    75  C   -0.450251
    76  H    0.153834
    77  H    0.167458
    78  H    0.125241
    79  C   -0.443591
    80  H    0.142859
    81  H    0.123523
    82  H    0.162645
    83  N   -0.594860
    84  H    0.357044
    85  C   -0.053474
    86  H    0.165384
    87  C    0.632435
    88  C   -0.283762
    89  H    0.169797
    90  H    0.174176
    91  O   -0.561763
    92  C   -0.372815
    93  H    0.182747
    94  H    0.203312
    95  C    0.585924
    96  O   -0.460054
    97  O   -0.565180
    98  N   -0.623887
    99  H    0.354869
   100  C   -0.034319
   101  H    0.169401
   102  C    0.579430
   103  C   -0.272427
   104  H    0.171367
   105  H    0.164493
   106  O   -0.582116
   107  C   -0.280430
   108  H    0.145450
   109  H    0.151689
   110  C   -0.180778
   111  H    0.140080
   112  H    0.194731
   113  N   -0.580873
   114  H    0.396182
   115  N   -0.782355
   116  H    0.399926
   117  H    0.352829
   118  N   -0.761656
   119  H    0.351450
   120  H    0.410128
   121  C    0.721384
   122  O   -0.611419
   123  H    0.414261
 Sum of Mulliken charges =   1.00000

 Dipole moment (field-independent basis, Debye):
    X=            -42.0554    Y=              7.5819    Z=             16.6362  Tot=             45.8575
 Quadrupole moment (field-independent basis, Debye-Ang):
   XX=             53.9039   YY=           -403.2606   ZZ=           -285.5851
   XY=            -15.6772   XZ=           -124.1348   YZ=             17.4690

 Normal termination of Gaussian 16 at Sun Jul 24 01:49:41 2022.
