 Gaussian 16, Revision C.01,
 Gaussian 16:  ES64L-G16RevC.01  3-Jul-2019

 ----------------------------------------------------------------------
 # B3LYP/6-31G* empiricaldispersion=gd3bj guess=read geom=check nosymm
 integral(ultrafinegrid)
 ----------------------------------------------------------------------

 ------------------------------------------------------
 Candidate Structure: Conf:669 Charge calc in gas phase
 ------------------------------------------------------
 Structure from the checkpoint file:  "conf-669.chk"
 Charge =  1 Multiplicity = 1

                          Input orientation:
 ---------------------------------------------------------------------
 Center     Atomic      Atomic             Coordinates (Angstroms)
 Number     Number       Type             X           Y           Z
 ---------------------------------------------------------------------
      1          7           0       -3.098811    4.858123    1.206666
      2          1           0       -2.938369    5.377256    0.342048
      3          1           0       -2.207063    4.749141    1.714361
      4          1           0       -3.802146    5.342012    1.830460
      5          6           0       -3.723861    3.495128    0.996686
      6          1           0       -4.267977    3.531901    0.047007
      7          6           0       -4.792976    3.444222    2.117049
      8          6           0       -2.638456    2.416254    0.960979
      9          1           0       -2.090598    2.512430    0.017383
     10          1           0       -3.127149    1.439941    0.932789
     11          8           0       -5.109084    4.523900    2.644079
     12          6           0       -1.670923    2.494618    2.122934
     13          6           0       -0.347892    2.902685    1.895509
     14          1           0       -0.021532    3.146199    0.887753
     15          6           0       -2.053823    2.128356    3.425788
     16          1           0       -3.055748    1.765399    3.624505
     17          6           0        0.589119    2.918081    2.931956
     18          1           0        1.617853    3.182603    2.713493
     19          6           0       -1.122143    2.163418    4.461735
     20          1           0       -1.425586    1.864988    5.460603
     21          6           0        0.199008    2.551955    4.218939
     22          1           0        0.921384    2.556880    5.029447
     23          7           0       -5.373159    2.278321    2.389214
     24          1           0       -4.976362    1.400621    2.049248
     25          6           0       -6.497348    2.216742    3.343135
     26          1           0       -6.212493    2.811177    4.216844
     27          6           0       -6.557589    0.762150    3.826322
     28          6           0       -7.774458    2.799475    2.737469
     29          1           0       -8.596742    2.749047    3.458298
     30          1           0       -8.062407    2.273134    1.821909
     31          1           0       -7.613254    3.849590    2.485197
     32          8           0       -5.609509    0.300857    4.464356
     33          7           0       -7.635348    0.030959    3.466611
     34          1           0       -8.351094    0.450315    2.889951
     35          6           0       -7.747433   -1.410486    3.732255
     36          1           0       -7.240879   -1.584008    4.686755
     37          6           0       -6.992103   -2.194848    2.623147
     38          6           0       -9.208659   -1.824446    3.810113
     39          1           0       -9.282141   -2.893904    4.017912
     40          1           0       -9.715507   -1.648873    2.855903
     41          1           0       -9.719540   -1.271304    4.603351
     42          8           0       -7.571847   -2.949891    1.851723
     43          7           0       -5.667495   -1.903278    2.594642
     44          1           0       -5.330539   -1.234670    3.284703
     45          6           0       -4.690400   -2.336734    1.612840
     46          1           0       -4.358863   -3.359095    1.839476
     47          6           0       -3.518341   -1.362400    1.753819
     48          6           0       -5.182808   -2.325700    0.132853
     49          1           0       -4.442840   -2.880725   -0.453404
     50          1           0       -6.119816   -2.884427    0.105123
     51          8           0       -3.713253   -0.198518    2.131331
     52          6           0       -5.341030   -0.941028   -0.440163
     53          6           0       -6.437737   -0.134572   -0.104549
     54          1           0       -7.233281   -0.550242    0.504874
     55          6           0       -4.363521   -0.414526   -1.292859
     56          1           0       -3.508335   -1.017612   -1.583340
     57          6           0       -6.534093    1.177257   -0.563811
     58          1           0       -7.384612    1.804525   -0.319185
     59          6           0       -4.459159    0.891152   -1.773158
     60          1           0       -3.706157    1.272489   -2.456707
     61          8           0       -5.624380    3.022629   -1.758376
     62          1           0       -5.131402    3.145854   -2.585465
     63          6           0       -5.532539    1.692698   -1.387263
     64          7           0       -2.296912   -1.830508    1.445170
     65          1           0       -2.207840   -2.739381    1.009005
     66          6           0       -1.116132   -0.985585    1.472830
     67          1           0       -1.442635   -0.032205    1.887780
     68          6           0       -0.613378   -0.757072    0.041731
     69          6           0       -0.005356   -1.537890    2.386255
     70          1           0        0.324270   -2.519899    2.020096
     71          1           0        0.855977   -0.868271    2.279679
     72          8           0       -0.951391   -1.482147   -0.892460
     73          6           0       -0.407412   -1.620048    3.876856
     74          1           0       -1.142607   -0.825593    4.067242
     75          6           0       -1.051072   -2.965341    4.238051
     76          1           0       -0.341311   -3.787379    4.081116
     77          1           0       -1.350437   -2.982442    5.291651
     78          1           0       -1.940530   -3.168998    3.634832
     79          6           0        0.811871   -1.350859    4.767736
     80          1           0        1.602881   -2.088516    4.583161
     81          1           0        1.227925   -0.355248    4.575625
     82          1           0        0.545004   -1.409368    5.828780
     83          7           0        0.216632    0.307660   -0.073694
     84          1           0        0.551144    0.775069    0.766903
     85          6           0        1.092032    0.539589   -1.210785
     86          1           0        1.283659   -0.410136   -1.716927
     87          6           0        2.388646    1.134241   -0.631661
     88          6           0        0.493505    1.531810   -2.229529
     89          1           0        0.405336    2.515195   -1.750425
     90          1           0        1.188690    1.639592   -3.067388
     91          8           0        2.403647    1.592907    0.519529
     92          6           0       -0.873913    1.101478   -2.748071
     93          1           0       -1.300602    1.882946   -3.391397
     94          1           0       -1.575673    0.950666   -1.923836
     95          6           0       -0.817965   -0.172647   -3.561964
     96          8           0        0.188891   -0.710156   -3.962403
     97          8           0       -2.061940   -0.630517   -3.837721
     98          7           0        3.433524    1.152745   -1.466814
     99          1           0        3.350038    0.869574   -2.442750
    100          6           0        4.672947    1.876422   -1.206874
    101          1           0        4.429801    2.850326   -0.768917
    102          6           0        5.392514    2.109950   -2.556363
    103          6           0        5.588093    1.144826   -0.203402
    104          1           0        5.053076    1.114484    0.751110
    105          1           0        6.474279    1.772926   -0.064463
    106          8           0        6.438563    2.767756   -2.530715
    107          6           0        6.009680   -0.295239   -0.557569
    108          1           0        5.160846   -0.847474   -0.983211
    109          1           0        6.256117   -0.811020    0.377470
    110          6           0        7.238879   -0.469725   -1.465740
    111          1           0        7.640338   -1.481852   -1.332204
    112          1           0        8.012037    0.247664   -1.164196
    113          7           0        6.923396   -0.264705   -2.884387
    114          1           0        5.938425   -0.103587   -3.106973
    115          7           0        9.072386    0.310483   -3.581701
    116          1           0        9.652644    1.006116   -4.026072
    117          1           0        9.463989   -0.160177   -2.780479
    118          7           0        7.193886    0.925598   -4.830132
    119          1           0        7.800052    1.430578   -5.461118
    120          1           0        6.237692    1.311719   -4.652287
    121          6           0        7.734900    0.350898   -3.752474
    122          8           0        4.877551    1.492719   -3.564950
    123          1           0       -1.948215   -1.451015   -4.353709
 ---------------------------------------------------------------------

 SCF Done:  E(RB3LYP) =  -2974.34765954     A.U. after    1 cycles

 Alpha  occ. eigenvalues --  -19.27167 -19.26357 -19.24692 -19.21568 -19.20944
 Alpha  occ. eigenvalues --  -19.20598 -19.19783 -19.18989 -19.18939 -19.15348
 Alpha  occ. eigenvalues --  -19.13667 -14.57196 -14.47535 -14.46428 -14.45972
 Alpha  occ. eigenvalues --  -14.45598 -14.44371 -14.43327 -14.43003 -14.42833
 Alpha  occ. eigenvalues --  -14.41884 -10.41376 -10.41092 -10.38904 -10.38435
 Alpha  occ. eigenvalues --  -10.38322 -10.37875 -10.36633 -10.36022 -10.35683
 Alpha  occ. eigenvalues --  -10.33522 -10.33347 -10.32249 -10.32199 -10.31418
 Alpha  occ. eigenvalues --  -10.31155 -10.30729 -10.30688 -10.30547 -10.29837
 Alpha  occ. eigenvalues --  -10.28615 -10.28062 -10.28014 -10.27976 -10.27925
 Alpha  occ. eigenvalues --  -10.27831 -10.27724 -10.27528 -10.27328 -10.27261
 Alpha  occ. eigenvalues --  -10.27214 -10.27182 -10.27135 -10.26826 -10.26806
 Alpha  occ. eigenvalues --  -10.26444 -10.26212 -10.25876 -10.25318 -10.24458
 Alpha  occ. eigenvalues --  -10.23765 -10.23724  -1.17148  -1.17146  -1.14703
 Alpha  occ. eigenvalues --   -1.13718  -1.13135  -1.11615  -1.11420  -1.10682
 Alpha  occ. eigenvalues --   -1.10448  -1.10181  -1.08235  -1.07710  -1.04080
 Alpha  occ. eigenvalues --   -1.02070  -1.02019  -1.00323  -0.99902  -0.99840
 Alpha  occ. eigenvalues --   -0.99415  -0.98232  -0.97534  -0.95450  -0.93717
 Alpha  occ. eigenvalues --   -0.91025  -0.89239  -0.88109  -0.87780  -0.86807
 Alpha  occ. eigenvalues --   -0.86178  -0.84662  -0.83722  -0.83664  -0.83484
 Alpha  occ. eigenvalues --   -0.83100  -0.81991  -0.80744  -0.79156  -0.77901
 Alpha  occ. eigenvalues --   -0.76013  -0.75141  -0.74697  -0.74408  -0.73660
 Alpha  occ. eigenvalues --   -0.72729  -0.72193  -0.71915  -0.71014  -0.70640
 Alpha  occ. eigenvalues --   -0.70238  -0.69820  -0.69367  -0.68536  -0.68406
 Alpha  occ. eigenvalues --   -0.67978  -0.67661  -0.67397  -0.66605  -0.66097
 Alpha  occ. eigenvalues --   -0.65317  -0.64933  -0.64176  -0.63948  -0.63624
 Alpha  occ. eigenvalues --   -0.62881  -0.62771  -0.62416  -0.61596  -0.61297
 Alpha  occ. eigenvalues --   -0.59424  -0.59030  -0.58652  -0.58479  -0.58436
 Alpha  occ. eigenvalues --   -0.57837  -0.57520  -0.57102  -0.56776  -0.56489
 Alpha  occ. eigenvalues --   -0.55982  -0.55911  -0.55875  -0.55281  -0.55206
 Alpha  occ. eigenvalues --   -0.54935  -0.54832  -0.54572  -0.54432  -0.53827
 Alpha  occ. eigenvalues --   -0.53587  -0.53183  -0.53093  -0.52726  -0.52432
 Alpha  occ. eigenvalues --   -0.52046  -0.51944  -0.51562  -0.51111  -0.50931
 Alpha  occ. eigenvalues --   -0.50771  -0.50737  -0.50485  -0.50357  -0.50152
 Alpha  occ. eigenvalues --   -0.50081  -0.49695  -0.49622  -0.49354  -0.48940
 Alpha  occ. eigenvalues --   -0.48717  -0.48689  -0.48353  -0.48235  -0.47980
 Alpha  occ. eigenvalues --   -0.47666  -0.47468  -0.47365  -0.47316  -0.46831
 Alpha  occ. eigenvalues --   -0.46705  -0.46469  -0.46241  -0.45707  -0.45359
 Alpha  occ. eigenvalues --   -0.45298  -0.45219  -0.44889  -0.44755  -0.44555
 Alpha  occ. eigenvalues --   -0.44362  -0.44192  -0.43856  -0.43765  -0.43544
 Alpha  occ. eigenvalues --   -0.43384  -0.43324  -0.43013  -0.42892  -0.42460
 Alpha  occ. eigenvalues --   -0.42296  -0.41892  -0.41338  -0.40915  -0.40815
 Alpha  occ. eigenvalues --   -0.40243  -0.39737  -0.39545  -0.39331  -0.39165
 Alpha  occ. eigenvalues --   -0.38465  -0.37474  -0.36861  -0.36423  -0.35645
 Alpha  occ. eigenvalues --   -0.35412  -0.34846  -0.34672  -0.34455  -0.34209
 Alpha  occ. eigenvalues --   -0.33931  -0.33606  -0.33388  -0.33077  -0.32893
 Alpha  occ. eigenvalues --   -0.32611  -0.32299  -0.31673  -0.30451  -0.30357
 Alpha  occ. eigenvalues --   -0.30121  -0.27700
 Alpha virt. eigenvalues --   -0.11026  -0.10513  -0.09661  -0.09056  -0.08422
 Alpha virt. eigenvalues --   -0.07815  -0.07367  -0.06902  -0.06137  -0.06074
 Alpha virt. eigenvalues --   -0.05558  -0.04796  -0.04651  -0.03443  -0.02176

 Mulliken charges:
               1
     1  N   -0.753299
     2  H    0.404326
     3  H    0.402536
     4  H    0.429438
     5  C   -0.134271
     6  H    0.247674
     7  C    0.654701
     8  C   -0.397036
     9  H    0.167364
    10  H    0.240113
    11  O   -0.553647
    12  C    0.076185
    13  C   -0.236950
    14  H    0.148399
    15  C   -0.182525
    16  H    0.186562
    17  C   -0.115272
    18  H    0.178067
    19  C   -0.132095
    20  H    0.161892
    21  C   -0.130724
    22  H    0.159119
    23  N   -0.629692
    24  H    0.417341
    25  C   -0.012622
    26  H    0.208067
    27  C    0.578085
    28  C   -0.495121
    29  H    0.177706
    30  H    0.157856
    31  H    0.199070
    32  O   -0.525742
    33  N   -0.590810
    34  H    0.348144
    35  C   -0.079297
    36  H    0.197658
    37  C    0.630111
    38  C   -0.459214
    39  H    0.189024
    40  H    0.165212
    41  H    0.161568
    42  O   -0.521038
    43  N   -0.657588
    44  H    0.399365
    45  C    0.002164
    46  H    0.170519
    47  C    0.619134
    48  C   -0.388918
    49  H    0.156384
    50  H    0.224938
    51  O   -0.563425
    52  C    0.161308
    53  C   -0.197668
    54  H    0.144369
    55  C   -0.214776
    56  H    0.180955
    57  C   -0.169571
    58  H    0.148966
    59  C   -0.200997
    60  H    0.137681
    61  O   -0.661433
    62  H    0.414252
    63  C    0.323091
    64  N   -0.576857
    65  H    0.349668
    66  C   -0.119614
    67  H    0.209184
    68  C    0.624788
    69  C   -0.278093
    70  H    0.147387
    71  H    0.158506
    72  O   -0.540946
    73  C   -0.070687
    74  H    0.139714
    75  C   -0.447330
    76  H    0.147114
    77  H    0.153889
    78  H    0.134457
    79  C   -0.454185
    80  H    0.148337
    81  H    0.144274
    82  H    0.149774
    83  N   -0.638483
    84  H    0.383601
    85  C   -0.067137
    86  H    0.206063
    87  C    0.611882
    88  C   -0.263208
    89  H    0.130899
    90  H    0.183483
    91  O   -0.567385
    92  C   -0.378953
    93  H    0.169130
    94  H    0.187123
    95  C    0.627876
    96  O   -0.462964
    97  O   -0.576029
    98  N   -0.613595
    99  H    0.364787
   100  C   -0.042562
   101  H    0.167514
   102  C    0.587681
   103  C   -0.267407
   104  H    0.163554
   105  H    0.163954
   106  O   -0.566226
   107  C   -0.311705
   108  H    0.157018
   109  H    0.158158
   110  C   -0.140842
   111  H    0.164794
   112  H    0.165203
   113  N   -0.588831
   114  H    0.370481
   115  N   -0.758319
   116  H    0.368197
   117  H    0.370534
   118  N   -0.749985
   119  H    0.342516
   120  H    0.411088
   121  C    0.782646
   122  O   -0.648936
   123  H    0.419391
 Sum of Mulliken charges =   1.00000

 Dipole moment (field-independent basis, Debye):
    X=             -2.1891    Y=              9.1511    Z=              1.5672  Tot=              9.5389
 Quadrupole moment (field-independent basis, Debye-Ang):
   XX=           -157.0682   YY=           -308.8011   ZZ=           -319.5929
   XY=            -49.8769   XZ=            -59.4670   YZ=             -1.3100

 Normal termination of Gaussian 16 at Sun Jul 24 01:56:30 2022.
