 Gaussian 16, Revision C.01,
 Gaussian 16:  ES64L-G16RevC.01  3-Jul-2019

 ----------------------------------------------------------------------
 # B3LYP/6-31G* empiricaldispersion=gd3bj guess=read geom=check nosymm
 integral(ultrafinegrid)
 ----------------------------------------------------------------------

 ------------------------------------------------------
 Candidate Structure: Conf:962 Charge calc in gas phase
 ------------------------------------------------------
 Structure from the checkpoint file:  "conf-962.chk"
 Charge =  1 Multiplicity = 1

                          Input orientation:
 ---------------------------------------------------------------------
 Center     Atomic      Atomic             Coordinates (Angstroms)
 Number     Number       Type             X           Y           Z
 ---------------------------------------------------------------------
      1          7           0       -8.599239    7.217343    1.859709
      2          1           0       -8.887919    7.613994    0.963147
      3          1           0       -8.396619    7.984787    2.507035
      4          1           0       -9.359559    6.586041    2.279496
      5          6           0       -7.442249    6.240293    1.753558
      6          1           0       -7.356106    5.968552    0.698605
      7          6           0       -7.986666    5.012049    2.535340
      8          6           0       -6.127756    6.865716    2.242970
      9          1           0       -6.165386    6.987512    3.331840
     10          1           0       -6.049888    7.869916    1.803864
     11          8           0       -9.189355    5.048964    2.862493
     12          6           0       -4.921781    6.042546    1.842163
     13          6           0       -4.123437    5.424135    2.809247
     14          1           0       -4.371495    5.525580    3.862416
     15          6           0       -4.593236    5.894911    0.486961
     16          1           0       -5.191238    6.389317   -0.277036
     17          6           0       -3.015597    4.667337    2.428068
     18          1           0       -2.407910    4.180247    3.180595
     19          6           0       -3.487426    5.136933    0.109114
     20          1           0       -3.239456    5.031674   -0.942697
     21          6           0       -2.695172    4.519326    1.079995
     22          1           0       -1.835715    3.925325    0.791010
     23          7           0       -7.170581    4.000215    2.775232
     24          1           0       -6.170910    4.027727    2.561325
     25          6           0       -7.629004    2.770528    3.423451
     26          1           0       -8.246397    3.045786    4.285202
     27          6           0       -6.357572    2.044015    3.884236
     28          6           0       -8.442884    1.900428    2.450889
     29          1           0       -8.863520    1.032545    2.966247
     30          1           0       -7.804143    1.528678    1.646655
     31          1           0       -9.272305    2.482645    2.042069
     32          8           0       -5.247106    2.454138    3.554326
     33          7           0       -6.553819    0.935937    4.640954
     34          1           0       -7.496924    0.569493    4.671151
     35          6           0       -5.495636   -0.069740    4.690937
     36          1           0       -4.623185    0.383219    5.170700
     37          6           0       -5.134583   -0.464679    3.239138
     38          6           0       -5.968096   -1.285208    5.488477
     39          1           0       -5.167300   -2.026214    5.557115
     40          1           0       -6.822174   -1.759825    4.991672
     41          1           0       -6.259992   -0.995755    6.502648
     42          8           0       -5.970798   -0.407135    2.338174
     43          7           0       -3.863329   -0.865084    3.068190
     44          1           0       -3.188556   -0.892157    3.829173
     45          6           0       -3.279186   -1.147060    1.771034
     46          1           0       -3.865042   -1.925513    1.268880
     47          6           0       -1.852331   -1.636006    2.072945
     48          6           0       -3.244569    0.123308    0.859743
     49          1           0       -3.252698   -0.205030   -0.185841
     50          1           0       -4.186871    0.653448    1.025845
     51          8           0       -1.398870   -1.567174    3.216808
     52          6           0       -2.036406    1.000768    1.091110
     53          6           0       -1.715642    1.507324    2.360464
     54          1           0       -2.416895    1.377253    3.177822
     55          6           0       -1.134116    1.241270    0.050486
     56          1           0       -1.359065    0.871316   -0.947693
     57          6           0       -0.504751    2.151127    2.599490
     58          1           0       -0.236351    2.489581    3.595386
     59          6           0        0.061486    1.922517    0.263906
     60          1           0        0.754213    2.101168   -0.548958
     61          8           0        1.615390    2.896861    1.833403
     62          1           0        2.250656    2.635873    1.134818
     63          6           0        0.415588    2.331442    1.556549
     64          7           0       -1.113700   -2.036538    1.019478
     65          1           0       -1.508529   -2.105648    0.090426
     66          6           0        0.341837   -2.124404    1.130756
     67          1           0        0.640089   -1.380242    1.872790
     68          6           0        0.920655   -1.797059   -0.246765
     69          6           0        0.798164   -3.521882    1.579501
     70          1           0        0.312581   -3.728691    2.540579
     71          1           0        0.414666   -4.243623    0.849174
     72          8           0        0.572234   -2.439378   -1.238251
     73          6           0        2.320426   -3.689303    1.719946
     74          1           0        2.777270   -3.492966    0.738799
     75          6           0        2.926082   -2.709999    2.734907
     76          1           0        2.436475   -2.809192    3.711590
     77          1           0        3.994684   -2.907998    2.874083
     78          1           0        2.828929   -1.666442    2.417167
     79          6           0        2.645388   -5.137771    2.105254
     80          1           0        2.217905   -5.384528    3.085265
     81          1           0        2.238208   -5.845493    1.374251
     82          1           0        3.727901   -5.296869    2.164449
     83          7           0        1.838451   -0.805117   -0.261326
     84          1           0        1.943923   -0.200485    0.545650
     85          6           0        2.578054   -0.371208   -1.434673
     86          1           0        3.192282   -1.207517   -1.790121
     87          6           0        3.504426    0.763834   -0.953894
     88          6           0        1.641979    0.070897   -2.586875
     89          1           0        0.999212   -0.781790   -2.813484
     90          1           0        1.002137    0.881419   -2.228348
     91          8           0        3.197881    1.454907    0.030000
     92          6           0        2.348937    0.571929   -3.867233
     93          1           0        2.941304    1.470504   -3.665686
     94          1           0        1.577264    0.802070   -4.607491
     95          6           0        3.276652   -0.452741   -4.459352
     96          8           0        4.474771   -0.563024   -4.204311
     97          8           0        2.672036   -1.297619   -5.303680
     98          7           0        4.629305    0.899801   -1.660088
     99          1           0        4.697611    0.348316   -2.511373
    100          6           0        5.566031    2.008070   -1.536213
    101          1           0        5.267843    2.573158   -0.649069
    102          6           0        5.476938    2.964019   -2.763215
    103          6           0        6.992952    1.477127   -1.320356
    104          1           0        7.027260    0.997252   -0.335376
    105          1           0        7.659526    2.343522   -1.291760
    106          8           0        6.433054    3.734414   -2.949758
    107          6           0        7.517808    0.451594   -2.345462
    108          1           0        6.793438   -0.358173   -2.501376
    109          1           0        8.396813   -0.031708   -1.902693
    110          6           0        7.988084    0.986091   -3.706831
    111          1           0        8.646021    0.241697   -4.172639
    112          1           0        8.561762    1.902635   -3.541327
    113          7           0        6.894797    1.303373   -4.632909
    114          1           0        6.012925    0.806555   -4.520008
    115          7           0        8.003484    2.992125   -5.803506
    116          1           0        7.995086    4.001921   -5.860690
    117          1           0        8.882345    2.595827   -5.502723
    118          7           0        5.669022    2.862907   -5.807657
    119          1           0        5.709927    3.655160   -6.436899
    120          1           0        4.972278    2.942784   -5.001671
    121          6           0        6.854994    2.401287   -5.391072
    122          8           0        4.442684    2.820582   -3.502313
    123          1           0        3.343653   -1.940517   -5.603991
 ---------------------------------------------------------------------

 SCF Done:  E(RB3LYP) =  -2974.32600625     A.U. after    3 cycles

 Alpha  occ. eigenvalues --  -19.27161 -19.26227 -19.22107 -19.21354 -19.20312
 Alpha  occ. eigenvalues --  -19.18063 -19.17817 -19.17739 -19.16858 -19.13468
 Alpha  occ. eigenvalues --  -19.12166 -14.59069 -14.48495 -14.44616 -14.44581
 Alpha  occ. eigenvalues --  -14.43898 -14.41914 -14.41817 -14.41471 -14.40978
 Alpha  occ. eigenvalues --  -14.40860 -10.42848 -10.40087 -10.39870 -10.39599
 Alpha  occ. eigenvalues --  -10.38071 -10.34934 -10.34778 -10.34724 -10.33984
 Alpha  occ. eigenvalues --  -10.33757 -10.33237 -10.30964 -10.30751 -10.29724
 Alpha  occ. eigenvalues --  -10.29566 -10.29536 -10.29532 -10.29263 -10.28122
 Alpha  occ. eigenvalues --  -10.28042 -10.27673 -10.27224 -10.27082 -10.26604
 Alpha  occ. eigenvalues --  -10.26363 -10.26127 -10.26083 -10.25371 -10.25053
 Alpha  occ. eigenvalues --  -10.24990 -10.24954 -10.24101 -10.24002 -10.23792
 Alpha  occ. eigenvalues --  -10.23250 -10.23225 -10.23179 -10.23107 -10.22481
 Alpha  occ. eigenvalues --  -10.21324 -10.21116  -1.18726  -1.18352  -1.13532
 Alpha  occ. eigenvalues --   -1.12860  -1.10263  -1.09846  -1.09369  -1.08995
 Alpha  occ. eigenvalues --   -1.08839  -1.08660  -1.08491  -1.06078  -1.05198
 Alpha  occ. eigenvalues --   -1.01354  -0.98858  -0.98361  -0.98207  -0.98189
 Alpha  occ. eigenvalues --   -0.98079  -0.97325  -0.95738  -0.95574  -0.91742
 Alpha  occ. eigenvalues --   -0.90281  -0.87969  -0.86751  -0.85709  -0.85007
 Alpha  occ. eigenvalues --   -0.84938  -0.84065  -0.83034  -0.82855  -0.81068
 Alpha  occ. eigenvalues --   -0.79749  -0.79589  -0.78765  -0.78246  -0.77064
 Alpha  occ. eigenvalues --   -0.76132  -0.73884  -0.73245  -0.73079  -0.72240
 Alpha  occ. eigenvalues --   -0.71926  -0.71693  -0.71378  -0.70232  -0.70118
 Alpha  occ. eigenvalues --   -0.69204  -0.69058  -0.67589  -0.66842  -0.66807
 Alpha  occ. eigenvalues --   -0.66589  -0.66256  -0.65256  -0.64892  -0.64848
 Alpha  occ. eigenvalues --   -0.64346  -0.63505  -0.63308  -0.62586  -0.62460
 Alpha  occ. eigenvalues --   -0.61760  -0.61470  -0.60544  -0.59904  -0.59305
 Alpha  occ. eigenvalues --   -0.59247  -0.58623  -0.58289  -0.57877  -0.57157
 Alpha  occ. eigenvalues --   -0.56846  -0.56338  -0.55890  -0.55833  -0.55631
 Alpha  occ. eigenvalues --   -0.55279  -0.54398  -0.54276  -0.54232  -0.54104
 Alpha  occ. eigenvalues --   -0.53846  -0.53687  -0.53312  -0.53062  -0.52656
 Alpha  occ. eigenvalues --   -0.52217  -0.51842  -0.51514  -0.51250  -0.51115
 Alpha  occ. eigenvalues --   -0.50630  -0.50488  -0.50294  -0.50052  -0.49979
 Alpha  occ. eigenvalues --   -0.49794  -0.49579  -0.49452  -0.49030  -0.48648
 Alpha  occ. eigenvalues --   -0.48392  -0.48212  -0.47885  -0.47770  -0.47692
 Alpha  occ. eigenvalues --   -0.47527  -0.46905  -0.46764  -0.46447  -0.46335
 Alpha  occ. eigenvalues --   -0.46187  -0.45919  -0.45746  -0.45553  -0.45473
 Alpha  occ. eigenvalues --   -0.44937  -0.44666  -0.44535  -0.44375  -0.44226
 Alpha  occ. eigenvalues --   -0.44090  -0.43714  -0.43299  -0.43067  -0.42761
 Alpha  occ. eigenvalues --   -0.42623  -0.42521  -0.42262  -0.42071  -0.41818
 Alpha  occ. eigenvalues --   -0.41708  -0.41470  -0.40894  -0.40817  -0.40495
 Alpha  occ. eigenvalues --   -0.40162  -0.40128  -0.39681  -0.39503  -0.39131
 Alpha  occ. eigenvalues --   -0.38469  -0.38279  -0.38057  -0.37469  -0.36679
 Alpha  occ. eigenvalues --   -0.36504  -0.36304  -0.35719  -0.35663  -0.35386
 Alpha  occ. eigenvalues --   -0.34880  -0.33358  -0.33203  -0.33051  -0.32665
 Alpha  occ. eigenvalues --   -0.32298  -0.32018  -0.31802  -0.31492  -0.31259
 Alpha  occ. eigenvalues --   -0.30813  -0.30055  -0.29377  -0.28887  -0.27909
 Alpha  occ. eigenvalues --   -0.26144  -0.25918
 Alpha virt. eigenvalues --   -0.12192  -0.10236  -0.09192  -0.08684  -0.07314
 Alpha virt. eigenvalues --   -0.07275  -0.05756  -0.05618  -0.05415  -0.04479
 Alpha virt. eigenvalues --   -0.04148  -0.03871  -0.03201  -0.02563  -0.01745

 Mulliken charges:
               1
     1  N   -0.763737
     2  H    0.413016
     3  H    0.411833
     4  H    0.437409
     5  C   -0.107593
     6  H    0.229285
     7  C    0.649506
     8  C   -0.380050
     9  H    0.181421
    10  H    0.180411
    11  O   -0.554590
    12  C    0.127845
    13  C   -0.190840
    14  H    0.141005
    15  C   -0.181741
    16  H    0.118104
    17  C   -0.100075
    18  H    0.161580
    19  C   -0.133582
    20  H    0.151143
    21  C   -0.117524
    22  H    0.180786
    23  N   -0.612637
    24  H    0.406940
    25  C   -0.070172
    26  H    0.194488
    27  C    0.641314
    28  C   -0.452405
    29  H    0.165343
    30  H    0.200932
    31  H    0.175105
    32  O   -0.530688
    33  N   -0.587722
    34  H    0.339354
    35  C   -0.054331
    36  H    0.178856
    37  C    0.646080
    38  C   -0.479879
    39  H    0.183058
    40  H    0.168296
    41  H    0.174795
    42  O   -0.557643
    43  N   -0.618972
    44  H    0.360912
    45  C   -0.043311
    46  H    0.178995
    47  C    0.635689
    48  C   -0.359284
    49  H    0.139230
    50  H    0.191107
    51  O   -0.544543
    52  C    0.140892
    53  C   -0.174174
    54  H    0.135984
    55  C   -0.208596
    56  H    0.123331
    57  C   -0.177912
    58  H    0.140843
    59  C   -0.213620
    60  H    0.143726
    61  O   -0.670212
    62  H    0.452997
    63  C    0.347017
    64  N   -0.615244
    65  H    0.342947
    66  C   -0.025518
    67  H    0.175366
    68  C    0.607455
    69  C   -0.254243
    70  H    0.157153
    71  H    0.151379
    72  O   -0.550775
    73  C   -0.083841
    74  H    0.130738
    75  C   -0.449099
    76  H    0.151859
    77  H    0.146236
    78  H    0.136456
    79  C   -0.443361
    80  H    0.144395
    81  H    0.145791
    82  H    0.144016
    83  N   -0.635228
    84  H    0.367820
    85  C   -0.031968
    86  H    0.171602
    87  C    0.612418
    88  C   -0.300716
    89  H    0.206082
    90  H    0.165309
    91  O   -0.583089
    92  C   -0.404857
    93  H    0.256605
    94  H    0.173750
    95  C    0.598371
    96  O   -0.513873
    97  O   -0.531820
    98  N   -0.609208
    99  H    0.388339
   100  C   -0.083338
   101  H    0.188226
   102  C    0.606828
   103  C   -0.256048
   104  H    0.144831
   105  H    0.171474
   106  O   -0.584017
   107  C   -0.315279
   108  H    0.155939
   109  H    0.159263
   110  C   -0.141802
   111  H    0.161998
   112  H    0.174434
   113  N   -0.592653
   114  H    0.394507
   115  N   -0.745357
   116  H    0.367840
   117  H    0.360541
   118  N   -0.756189
   119  H    0.332891
   120  H    0.414964
   121  C    0.739553
   122  O   -0.622188
   123  H    0.419540
 Sum of Mulliken charges =   1.00000

 Dipole moment (field-independent basis, Debye):
    X=            -19.8000    Y=             21.6988    Z=             -0.6781  Tot=             29.3826
 Quadrupole moment (field-independent basis, Debye-Ang):
   XX=            -22.3679   YY=           -189.3702   ZZ=           -272.5953
   XY=           -186.7059   XZ=           -136.8351   YZ=             17.3068

 Normal termination of Gaussian 16 at Sun Jul 24 01:57:26 2022.
