 Gaussian 16, Revision C.01,
 Gaussian 16:  ES64L-G16RevC.01  3-Jul-2019

 ----------------------------------------------------------------------
 # B3LYP/6-31G* empiricaldispersion=gd3bj guess=read geom=check nosymm
 integral(ultrafinegrid)
 ----------------------------------------------------------------------

 ------------------------------------------------------
 Candidate Structure: Conf:306 Charge calc in gas phase
 ------------------------------------------------------
 Structure from the checkpoint file:  "conf-306.chk"
 Charge =  1 Multiplicity = 1

                          Input orientation:
 ---------------------------------------------------------------------
 Center     Atomic      Atomic             Coordinates (Angstroms)
 Number     Number       Type             X           Y           Z
 ---------------------------------------------------------------------
      1          7           0       -7.348936    0.653714    2.396828
      2          1           0       -7.596690   -0.255126    2.793606
      3          1           0       -6.339028    0.892978    2.619171
      4          1           0       -7.404657    0.646848    1.367460
      5          6           0       -8.239416    1.771076    2.880907
      6          1           0       -9.276368    1.445708    2.753581
      7          6           0       -7.907820    2.907921    1.881437
      8          6           0       -7.916476    2.039178    4.362483
      9          1           0       -6.869231    2.346102    4.427729
     10          1           0       -8.003482    1.084496    4.898658
     11          8           0       -7.397219    2.585854    0.802258
     12          6           0       -8.811410    3.069011    5.018285
     13          6           0       -8.279396    4.288475    5.462973
     14          1           0       -7.219963    4.497416    5.342181
     15          6           0      -10.183135    2.828575    5.171249
     16          1           0      -10.608992    1.881273    4.847436
     17          6           0       -9.108855    5.252611    6.039300
     18          1           0       -8.682892    6.192660    6.375647
     19          6           0      -11.009659    3.790221    5.749951
     20          1           0      -12.070532    3.590705    5.864868
     21          6           0      -10.474267    5.005587    6.182287
     22          1           0      -11.119444    5.754564    6.630590
     23          7           0       -8.124311    4.172785    2.267760
     24          1           0       -8.500851    4.323122    3.199218
     25          6           0       -7.270716    5.266725    1.760940
     26          1           0       -7.055010    5.047425    0.713049
     27          6           0       -5.973847    5.180411    2.617052
     28          6           0       -7.965515    6.608601    1.912001
     29          1           0       -7.313669    7.407990    1.551363
     30          1           0       -8.184925    6.813058    2.963618
     31          1           0       -8.894351    6.619810    1.335842
     32          8           0       -5.750457    5.972016    3.521334
     33          7           0       -5.227883    4.068726    2.345274
     34          1           0       -5.398118    3.605537    1.458940
     35          6           0       -4.044436    3.623246    3.077397
     36          1           0       -3.168893    4.195940    2.744618
     37          6           0       -3.836075    2.144787    2.721200
     38          6           0       -4.156206    3.751221    4.603374
     39          1           0       -3.242438    3.359679    5.060937
     40          1           0       -5.001493    3.168694    4.980763
     41          1           0       -4.286796    4.793218    4.889732
     42          8           0       -4.759490    1.306510    2.787463
     43          7           0       -2.594622    1.816236    2.376348
     44          1           0       -1.870384    2.526541    2.269336
     45          6           0       -2.193469    0.538035    1.818836
     46          1           0       -2.395186   -0.263987    2.535949
     47          6           0       -0.676704    0.658086    1.585708
     48          6           0       -2.938792    0.220415    0.480439
     49          1           0       -2.348508   -0.514310   -0.078455
     50          1           0       -3.888696   -0.257978    0.729455
     51          8           0       -0.129156    1.762311    1.611215
     52          6           0       -3.211467    1.457721   -0.343314
     53          6           0       -4.524099    1.929163   -0.480476
     54          1           0       -5.341719    1.364598   -0.046587
     55          6           0       -2.181364    2.214558   -0.923021
     56          1           0       -1.149819    1.887884   -0.852073
     57          6           0       -4.815773    3.112694   -1.150916
     58          1           0       -5.839663    3.454371   -1.256503
     59          6           0       -2.458337    3.399123   -1.606549
     60          1           0       -1.642973    3.965228   -2.050974
     61          8           0       -4.109684    5.015284   -2.350872
     62          1           0       -3.313581    5.420669   -2.729637
     63          6           0       -3.774687    3.859815   -1.715208
     64          7           0       -0.056952   -0.507468    1.333663
     65          1           0       -0.619081   -1.336972    1.146930
     66          6           0        1.249793   -0.598096    0.695446
     67          1           0        1.469987    0.367191    0.231955
     68          6           0        1.085174   -1.655662   -0.409364
     69          6           0        2.361066   -0.993417    1.684529
     70          1           0        2.088093   -1.961085    2.125766
     71          1           0        3.287915   -1.159342    1.118154
     72          8           0        0.084234   -2.380615   -0.443682
     73          6           0        2.631388    0.029596    2.799494
     74          1           0        1.679654    0.230549    3.309748
     75          6           0        3.604604   -0.569096    3.822825
     76          1           0        4.574280   -0.789479    3.357786
     77          1           0        3.785419    0.129070    4.647240
     78          1           0        3.217746   -1.502285    4.248762
     79          6           0        3.164631    1.356456    2.245672
     80          1           0        4.082385    1.195819    1.664150
     81          1           0        2.427012    1.854664    1.611290
     82          1           0        3.409494    2.042790    3.063752
     83          7           0        2.100504   -1.735969   -1.282055
     84          1           0        2.857224   -1.063445   -1.255066
     85          6           0        2.083755   -2.581628   -2.460087
     86          1           0        1.581798   -3.517537   -2.198664
     87          6           0        3.536035   -2.853120   -2.861397
     88          6           0        1.375062   -1.942868   -3.682887
     89          1           0        1.839543   -0.970737   -3.881626
     90          1           0        1.575656   -2.581361   -4.550585
     91          8           0        4.437679   -2.062069   -2.473116
     92          6           0       -0.140653   -1.776295   -3.544528
     93          1           0       -0.593624   -2.627603   -3.025127
     94          1           0       -0.602332   -1.750348   -4.539049
     95          6           0       -0.586337   -0.522601   -2.829031
     96          8           0        0.132739    0.329075   -2.340281
     97          8           0       -1.934368   -0.432145   -2.809144
     98          7           0        3.699874   -3.886017   -3.678636
     99          1           0        2.857136   -4.287518   -4.146547
    100          6           0        4.756409   -4.012981   -4.678953
    101          1           0        5.195253   -3.025319   -4.843629
    102          6           0        4.027333   -4.440654   -6.017414
    103          6           0        5.859464   -5.023372   -4.320339
    104          1           0        5.521891   -6.029436   -4.586037
    105          1           0        5.995649   -5.031830   -3.232990
    106          8           0        4.796708   -4.628196   -6.970351
    107          6           0        7.186705   -4.706938   -5.045855
    108          1           0        7.093269   -3.752184   -5.571129
    109          1           0        7.358283   -5.424763   -5.851542
    110          6           0        8.451095   -4.717538   -4.159098
    111          1           0        9.277349   -4.205814   -4.664808
    112          1           0        8.777004   -5.745883   -3.982630
    113          7           0        8.279454   -4.150547   -2.794671
    114          1           0        8.575216   -4.743971   -2.031584
    115          7           0        7.072509   -2.214601   -3.302861
    116          1           0        6.107406   -1.864003   -3.211484
    117          1           0        7.502063   -2.189703   -4.215742
    118          7           0        6.825720   -3.193479   -1.237910
    119          1           0        6.001724   -2.597374   -1.163146
    120          1           0        6.727772   -4.087943   -0.775508
    121          6           0        7.391712   -3.201883   -2.467974
    122          8           0        2.772491   -4.545676   -5.908147
    123          1           0       -2.167334    0.418977   -2.386042
 ---------------------------------------------------------------------

 SCF Done:  E(RB3LYP) =  -2974.29562045     A.U. after    1 cycles

 Alpha  occ. eigenvalues --  -19.25806 -19.25278 -19.25168 -19.24027 -19.21510
 Alpha  occ. eigenvalues --  -19.20928 -19.20068 -19.20005 -19.19185 -19.09582
 Alpha  occ. eigenvalues --  -19.08387 -14.56906 -14.47998 -14.47613 -14.46736
 Alpha  occ. eigenvalues --  -14.46666 -14.45969 -14.45759 -14.43966 -14.42894
 Alpha  occ. eigenvalues --  -14.40568 -10.43142 -10.42337 -10.40380 -10.39254
 Alpha  occ. eigenvalues --  -10.38578 -10.38125 -10.37720 -10.36076 -10.35753
 Alpha  occ. eigenvalues --  -10.33986 -10.33643 -10.33342 -10.33284 -10.32761
 Alpha  occ. eigenvalues --  -10.31645 -10.30854 -10.30492 -10.29957 -10.29447
 Alpha  occ. eigenvalues --  -10.29134 -10.28900 -10.28779 -10.28625 -10.28478
 Alpha  occ. eigenvalues --  -10.27818 -10.27576 -10.27429 -10.27317 -10.27257
 Alpha  occ. eigenvalues --  -10.27153 -10.26890 -10.26733 -10.25676 -10.25465
 Alpha  occ. eigenvalues --  -10.25375 -10.25297 -10.25043 -10.24864 -10.24089
 Alpha  occ. eigenvalues --  -10.23235 -10.22636  -1.17772  -1.16274  -1.15257
 Alpha  occ. eigenvalues --   -1.13996  -1.13358  -1.12826  -1.12160  -1.11572
 Alpha  occ. eigenvalues --   -1.11158  -1.10193  -1.07278  -1.05142  -1.03531
 Alpha  occ. eigenvalues --   -1.02708  -1.02192  -1.01460  -1.01062  -0.99823
 Alpha  occ. eigenvalues --   -0.99720  -0.97786  -0.96441  -0.93990  -0.93903
 Alpha  occ. eigenvalues --   -0.91897  -0.89387  -0.88056  -0.87178  -0.86445
 Alpha  occ. eigenvalues --   -0.85823  -0.85733  -0.84685  -0.84367  -0.83249
 Alpha  occ. eigenvalues --   -0.83069  -0.81687  -0.80657  -0.78850  -0.78785
 Alpha  occ. eigenvalues --   -0.76922  -0.75730  -0.74939  -0.73955  -0.73672
 Alpha  occ. eigenvalues --   -0.72698  -0.72362  -0.72009  -0.71376  -0.71116
 Alpha  occ. eigenvalues --   -0.70785  -0.70643  -0.70108  -0.69064  -0.68724
 Alpha  occ. eigenvalues --   -0.67550  -0.67394  -0.66866  -0.66762  -0.66215
 Alpha  occ. eigenvalues --   -0.65415  -0.65290  -0.64370  -0.63967  -0.63628
 Alpha  occ. eigenvalues --   -0.62960  -0.62668  -0.62530  -0.61692  -0.61251
 Alpha  occ. eigenvalues --   -0.60970  -0.60394  -0.59746  -0.59309  -0.59178
 Alpha  occ. eigenvalues --   -0.58710  -0.58117  -0.57212  -0.56959  -0.56408
 Alpha  occ. eigenvalues --   -0.56200  -0.56117  -0.55896  -0.55603  -0.55509
 Alpha  occ. eigenvalues --   -0.55412  -0.54736  -0.54418  -0.54250  -0.54169
 Alpha  occ. eigenvalues --   -0.53844  -0.53591  -0.53078  -0.52893  -0.52725
 Alpha  occ. eigenvalues --   -0.52443  -0.52224  -0.52070  -0.51928  -0.51416
 Alpha  occ. eigenvalues --   -0.51277  -0.51069  -0.50903  -0.50429  -0.50119
 Alpha  occ. eigenvalues --   -0.49887  -0.49683  -0.49330  -0.49170  -0.49133
 Alpha  occ. eigenvalues --   -0.49028  -0.48501  -0.48430  -0.47910  -0.47653
 Alpha  occ. eigenvalues --   -0.47608  -0.47336  -0.47260  -0.47050  -0.46907
 Alpha  occ. eigenvalues --   -0.46577  -0.46522  -0.46326  -0.45822  -0.45572
 Alpha  occ. eigenvalues --   -0.45278  -0.45177  -0.44741  -0.44587  -0.44394
 Alpha  occ. eigenvalues --   -0.44029  -0.43935  -0.43901  -0.43739  -0.43273
 Alpha  occ. eigenvalues --   -0.42740  -0.42352  -0.41830  -0.41665  -0.41399
 Alpha  occ. eigenvalues --   -0.41103  -0.40954  -0.40555  -0.39757  -0.39547
 Alpha  occ. eigenvalues --   -0.39295  -0.38993  -0.38840  -0.38665  -0.38590
 Alpha  occ. eigenvalues --   -0.38115  -0.38018  -0.37753  -0.36990  -0.36960
 Alpha  occ. eigenvalues --   -0.36580  -0.35690  -0.35230  -0.34952  -0.34893
 Alpha  occ. eigenvalues --   -0.34650  -0.34429  -0.33957  -0.33746  -0.33433
 Alpha  occ. eigenvalues --   -0.32939  -0.32382  -0.31601  -0.30260  -0.24582
 Alpha  occ. eigenvalues --   -0.24402  -0.22554
 Alpha virt. eigenvalues --   -0.13107  -0.10808  -0.10515  -0.10247  -0.09056
 Alpha virt. eigenvalues --   -0.08693  -0.08082  -0.07750  -0.06475  -0.06361
 Alpha virt. eigenvalues --   -0.05752  -0.05341  -0.04200  -0.03902  -0.03324

 Mulliken charges:
               1
     1  N   -0.776327
     2  H    0.397476
     3  H    0.465983
     4  H    0.421640
     5  C   -0.130456
     6  H    0.220555
     7  C    0.651546
     8  C   -0.384384
     9  H    0.198796
    10  H    0.177992
    11  O   -0.540838
    12  C    0.121982
    13  C   -0.231022
    14  H    0.173508
    15  C   -0.172238
    16  H    0.133588
    17  C   -0.122562
    18  H    0.168518
    19  C   -0.123786
    20  H    0.161864
    21  C   -0.123315
    22  H    0.164377
    23  N   -0.587530
    24  H    0.373120
    25  C   -0.096200
    26  H    0.200657
    27  C    0.622044
    28  C   -0.452191
    29  H    0.184761
    30  H    0.173840
    31  H    0.170434
    32  O   -0.502572
    33  N   -0.657607
    34  H    0.374358
    35  C    0.007814
    36  H    0.175639
    37  C    0.622362
    38  C   -0.482621
    39  H    0.169559
    40  H    0.160600
    41  H    0.219369
    42  O   -0.614481
    43  N   -0.595008
    44  H    0.376435
    45  C   -0.030757
    46  H    0.183308
    47  C    0.623649
    48  C   -0.380287
    49  H    0.190694
    50  H    0.152653
    51  O   -0.542769
    52  C    0.140215
    53  C   -0.198774
    54  H    0.117607
    55  C   -0.253292
    56  H    0.197545
    57  C   -0.187806
    58  H    0.165729
    59  C   -0.188454
    60  H    0.148530
    61  O   -0.632824
    62  H    0.419182
    63  C    0.359563
    64  N   -0.598353
    65  H    0.357943
    66  C   -0.089565
    67  H    0.199977
    68  C    0.651771
    69  C   -0.249976
    70  H    0.142627
    71  H    0.129784
    72  O   -0.570180
    73  C   -0.067057
    74  H    0.134256
    75  C   -0.443941
    76  H    0.137403
    77  H    0.151445
    78  H    0.141787
    79  C   -0.462125
    80  H    0.129472
    81  H    0.174877
    82  H    0.148598
    83  N   -0.596498
    84  H    0.348185
    85  C   -0.061003
    86  H    0.188990
    87  C    0.599645
    88  C   -0.288517
    89  H    0.162954
    90  H    0.204670
    91  O   -0.625717
    92  C   -0.359957
    93  H    0.204428
    94  H    0.196396
    95  C    0.595326
    96  O   -0.496231
    97  O   -0.584788
    98  N   -0.577277
    99  H    0.369662
   100  C   -0.087987
   101  H    0.121782
   102  C    0.591241
   103  C   -0.257875
   104  H    0.179278
   105  H    0.102333
   106  O   -0.566751
   107  C   -0.293304
   108  H    0.158219
   109  H    0.201949
   110  C   -0.169292
   111  H    0.184526
   112  H    0.179491
   113  N   -0.580302
   114  H    0.353199
   115  N   -0.727565
   116  H    0.411475
   117  H    0.368881
   118  N   -0.736454
   119  H    0.388019
   120  H    0.353704
   121  C    0.722815
   122  O   -0.601268
   123  H    0.425487
 Sum of Mulliken charges =   1.00000

 Dipole moment (field-independent basis, Debye):
    X=            -15.3889    Y=              6.0069    Z=             17.7885  Tot=             24.2762
 Quadrupole moment (field-independent basis, Debye-Ang):
   XX=             12.5829   YY=           -318.8330   ZZ=           -389.4818
   XY=           -112.8970   XZ=           -105.9377   YZ=            -24.9204

 Normal termination of Gaussian 16 at Sun Jul 24 01:48:58 2022.
