 Gaussian 16, Revision C.01,
 Gaussian 16:  ES64L-G16RevC.01  3-Jul-2019

 ----------------------------------------------------------------------
 # B3LYP/6-31G* empiricaldispersion=gd3 guess=read geom=check nosymm in
 tegral(ultrafinegrid)
 ----------------------------------------------------------------------

 ------------------------------------------------------
 Candidate Structure: Conf:126 Charge calc in gas phase
 ------------------------------------------------------
 Structure from the checkpoint file:  "conf-126.chk"
 Charge =  1 Multiplicity = 1

                          Input orientation:
 ---------------------------------------------------------------------
 Center     Atomic      Atomic             Coordinates (Angstroms)
 Number     Number       Type             X           Y           Z
 ---------------------------------------------------------------------
      1          7           0       -6.462679    2.543358    2.244707
      2          1           0       -5.948228    3.297759    2.694802
      3          1           0       -7.188450    2.247183    2.895097
      4          6           0       -5.577962    1.429428    1.922971
      5          1           0       -5.165444    0.899471    2.800832
      6          6           0       -4.414961    1.958322    1.063342
      7          6           0       -6.401397    0.411014    1.089911
      8          1           0       -7.229462    0.034134    1.695444
      9          1           0       -6.798436    0.951976    0.225476
     10          8           0       -4.533529    2.150748   -0.149820
     11          6           0       -5.618316   -0.793773    0.647539
     12          7           0       -4.674742   -0.543961   -0.546083
     13          1           0       -4.933393    0.299130   -1.077113
     14          1           0       -4.651135   -1.385674   -1.130950
     15          8           0       -5.620415   -1.896792    1.094094
     16          7           0       -3.251191    2.157591    1.719191
     17          1           0       -3.173748    1.841899    2.676445
     18          6           0       -2.015437    2.452666    1.007241
     19          1           0       -2.132096    3.411488    0.490719
     20          6           0       -1.774540    1.358858   -0.049054
     21          6           0       -0.835381    2.544603    2.021756
     22          1           0       -0.752103    1.556088    2.496152
     23          8           0       -2.198138    0.192760    0.106483
     24          6           0       -1.129703    3.579173    3.138198
     25          1           0       -0.266934    3.570894    3.814975
     26          1           0       -1.978709    3.247840    3.750875
     27          6           0        0.508386    2.843258    1.334956
     28          1           0        0.460852    3.754099    0.725267
     29          1           0        1.276379    3.010157    2.096269
     30          1           0        0.859685    2.026360    0.699926
     31          6           0       -1.391822    5.011737    2.659959
     32          1           0       -1.526769    5.677532    3.517971
     33          1           0       -0.557277    5.405355    2.070641
     34          1           0       -2.300537    5.080519    2.050372
     35          7           0       -1.040340    1.709177   -1.110990
     36          1           0       -0.645269    2.641771   -1.137221
     37          6           0       -0.463154    0.729070   -2.048097
     38          1           0       -1.230625   -0.029614   -2.222474
     39          6           0        0.764626    0.100220   -1.345068
     40          6           0       -0.066416    1.414228   -3.348507
     41          1           0        0.311532    0.673182   -4.058357
     42          1           0       -0.925857    1.923329   -3.796130
     43          1           0        0.741499    2.129047   -3.166881
     44          8           0        1.875082    0.624000   -1.424052
     45          7           0        0.490996   -0.983311   -0.592331
     46          1           0       -0.442925   -1.374583   -0.544611
     47          6           0        1.492189   -1.661725    0.225533
     48          1           0        2.200041   -0.911733    0.592882
     49          6           0        2.220762   -2.690686   -0.663734
     50          6           0        0.769658   -2.365370    1.394745
     51          1           0        1.516026   -2.985801    1.911604
     52          8           0        1.865688   -3.875138   -0.697687
     53          6           0        0.147730   -1.384876    2.381327
     54          1           0        0.905325   -0.709409    2.794504
     55          1           0       -0.314278   -1.939450    3.203069
     56          1           0       -0.630711   -0.794459    1.886915
     57          8           0       -0.281506   -3.174146    0.874717
     58          1           0        0.178415   -3.833977    0.313727
     59          7           0        3.216511   -2.184541   -1.413908
     60          1           0        3.420328   -1.187201   -1.402306
     61          6           0        3.909677   -2.965950   -2.419658
     62          1           0        4.119201   -3.964757   -2.025540
     63          6           0        5.190160   -2.229566   -2.791673
     64          6           0        3.022584   -3.120397   -3.697052
     65          1           0        2.725590   -2.112053   -4.021676
     66          1           0        2.127011   -3.672529   -3.396917
     67          8           0        5.343119   -1.032748   -2.561197
     68          8           0        3.664252   -3.838167   -4.726883
     69          1           0        4.167120   -3.183043   -5.259235
     70          7           0        6.103670   -2.977828   -3.482377
     71          1           0        5.740317   -3.848283   -3.857991
     72          6           0        7.040357   -2.255394   -4.324406
     73          1           0        7.694923   -1.641056   -3.700697
     74          1           0        7.658823   -2.979357   -4.863233
     75          6           0        6.274350   -1.380429   -5.333647
     76          8           0        5.174773   -1.724734   -5.784891
     77          7           0        6.869347   -0.229155   -5.693476
     78          1           0        7.720945    0.082672   -5.241028
     79          6           0        6.174000    0.763189   -6.503450
     80          1           0        5.703951    0.258577   -7.352041
     81          6           0        7.222507    1.742718   -7.003488
     82          6           0        5.083286    1.481449   -5.665297
     83          1           0        4.526382    0.689940   -5.153167
     84          1           0        5.578594    2.074110   -4.885184
     85          8           0        8.291885    1.929034   -6.462828
     86          6           0        4.112681    2.350140   -6.470467
     87          1           0        4.648160    3.173588   -6.957742
     88          1           0        3.673920    1.749310   -7.279773
     89          6           0        2.992007    2.912539   -5.587454
     90          1           0        3.429230    3.508417   -4.771853
     91          1           0        2.456712    2.080627   -5.104528
     92          6           0        1.985182    3.780302   -6.357767
     93          1           0        2.511488    4.614553   -6.839094
     94          1           0        1.538527    3.192096   -7.170208
     95          7           0        0.889561    4.345394   -5.561164
     96          1           0        1.275854    4.911287   -4.805702
     97          1           0        0.372661    3.590523   -5.112364
     98          8           0        6.808407    2.413720   -8.094608
     99          1           0        7.513902    3.048808   -8.325369
    100          1           0       -3.678808   -0.340111   -0.205261
 ---------------------------------------------------------------------

 SCF Done:  E(RB3LYP) =  -2418.55026505     A.U. after    1 cycles

 Alpha  occ. eigenvalues --  -19.32598 -19.27045 -19.26633 -19.25885 -19.21538
 Alpha  occ. eigenvalues --  -19.21399 -19.21383 -19.19660 -19.19541 -19.19525
 Alpha  occ. eigenvalues --  -19.19079 -14.57912 -14.50352 -14.50285 -14.45850
 Alpha  occ. eigenvalues --  -14.44789 -14.43511 -14.43378 -14.42669 -14.37480
 Alpha  occ. eigenvalues --  -10.48414 -10.43257 -10.42778 -10.39356 -10.38747
 Alpha  occ. eigenvalues --  -10.37621 -10.36698 -10.36600 -10.36451 -10.35617
 Alpha  occ. eigenvalues --  -10.35307 -10.34977 -10.32078 -10.32005 -10.31616
 Alpha  occ. eigenvalues --  -10.30801 -10.30231 -10.29750 -10.29624 -10.29418
 Alpha  occ. eigenvalues --  -10.28819 -10.28496 -10.27465 -10.26414 -10.25916
 Alpha  occ. eigenvalues --  -10.25256 -10.24406 -10.24217  -1.24189  -1.18698
 Alpha  occ. eigenvalues --   -1.17969  -1.17225  -1.13583  -1.11906  -1.11556
 Alpha  occ. eigenvalues --   -1.11479  -1.10408  -1.09030  -1.08860  -1.07145
 Alpha  occ. eigenvalues --   -1.06733  -1.06388  -1.02638  -1.02101  -1.00084
 Alpha  occ. eigenvalues --   -0.99826  -0.99253  -0.94040  -0.93414  -0.91985
 Alpha  occ. eigenvalues --   -0.89548  -0.86974  -0.86164  -0.85387  -0.83689
 Alpha  occ. eigenvalues --   -0.82849  -0.82376  -0.79985  -0.79637  -0.78223
 Alpha  occ. eigenvalues --   -0.76700  -0.75296  -0.75095  -0.74870  -0.73355
 Alpha  occ. eigenvalues --   -0.72390  -0.71785  -0.71436  -0.70216  -0.70003
 Alpha  occ. eigenvalues --   -0.69078  -0.68319  -0.67854  -0.67509  -0.66002
 Alpha  occ. eigenvalues --   -0.65603  -0.65427  -0.65107  -0.64963  -0.64580
 Alpha  occ. eigenvalues --   -0.64306  -0.63306  -0.61866  -0.61516  -0.61104
 Alpha  occ. eigenvalues --   -0.60034  -0.59750  -0.59293  -0.59169  -0.58188
 Alpha  occ. eigenvalues --   -0.57924  -0.57501  -0.56996  -0.56571  -0.56363
 Alpha  occ. eigenvalues --   -0.56268  -0.56034  -0.55530  -0.55165  -0.54941
 Alpha  occ. eigenvalues --   -0.54585  -0.54356  -0.54075  -0.53654  -0.53128
 Alpha  occ. eigenvalues --   -0.52659  -0.51964  -0.51887  -0.51756  -0.51448
 Alpha  occ. eigenvalues --   -0.51224  -0.51062  -0.50781  -0.50571  -0.50027
 Alpha  occ. eigenvalues --   -0.49818  -0.49618  -0.49490  -0.49264  -0.49019
 Alpha  occ. eigenvalues --   -0.48706  -0.48630  -0.48422  -0.48195  -0.47541
 Alpha  occ. eigenvalues --   -0.47372  -0.47256  -0.46994  -0.46572  -0.46040
 Alpha  occ. eigenvalues --   -0.45646  -0.45240  -0.45038  -0.44725  -0.44515
 Alpha  occ. eigenvalues --   -0.44232  -0.43981  -0.43761  -0.43516  -0.43397
 Alpha  occ. eigenvalues --   -0.42577  -0.41738  -0.41330  -0.41096  -0.40926
 Alpha  occ. eigenvalues --   -0.40582  -0.40078  -0.39901  -0.39254  -0.39222
 Alpha  occ. eigenvalues --   -0.38957  -0.38354  -0.36845  -0.36796  -0.35742
 Alpha  occ. eigenvalues --   -0.35284  -0.35087  -0.34672  -0.34115  -0.33322
 Alpha  occ. eigenvalues --   -0.33019  -0.32239  -0.32068  -0.30917  -0.29266
 Alpha virt. eigenvalues --   -0.18837  -0.13565  -0.12345  -0.08361  -0.07732
 Alpha virt. eigenvalues --   -0.06492  -0.06007  -0.05834  -0.05326  -0.04317
 Alpha virt. eigenvalues --   -0.04055  -0.03541  -0.02531  -0.01904  -0.01103

 Mulliken charges:
               1
     1  N   -0.702636
     2  H    0.327356
     3  H    0.330117
     4  C   -0.068062
     5  H    0.151425
     6  C    0.613775
     7  C   -0.352888
     8  H    0.218569
     9  H    0.223455
    10  O   -0.548145
    11  C    0.529148
    12  N   -0.828781
    13  H    0.424430
    14  H    0.412733
    15  O   -0.326920
    16  N   -0.599055
    17  H    0.353898
    18  C   -0.030454
    19  H    0.188781
    20  C    0.665403
    21  C   -0.129601
    22  H    0.159638
    23  O   -0.612991
    24  C   -0.263141
    25  H    0.168588
    26  H    0.126095
    27  C   -0.501179
    28  H    0.151300
    29  H    0.181541
    30  H    0.186741
    31  C   -0.463124
    32  H    0.175239
    33  H    0.165209
    34  H    0.149180
    35  N   -0.566218
    36  H    0.358997
    37  C   -0.053547
    38  H    0.158957
    39  C    0.636452
    40  C   -0.488539
    41  H    0.191484
    42  H    0.168463
    43  H    0.189755
    44  O   -0.536281
    45  N   -0.590698
    46  H    0.354607
    47  C   -0.081207
    48  H    0.177229
    49  C    0.646436
    50  C    0.113999
    51  H    0.153875
    52  O   -0.552507
    53  C   -0.474070
    54  H    0.145854
    55  H    0.172352
    56  H    0.151370
    57  O   -0.657447
    58  H    0.425945
    59  N   -0.618410
    60  H    0.377591
    61  C   -0.069508
    62  H    0.192774
    63  C    0.596632
    64  C   -0.039061
    65  H    0.132538
    66  H    0.170001
    67  O   -0.530999
    68  O   -0.649054
    69  H    0.437998
    70  N   -0.570394
    71  H    0.350153
    72  C   -0.248498
    73  H    0.192963
    74  H    0.196831
    75  C    0.651634
    76  O   -0.560076
    77  N   -0.601622
    78  H    0.357762
    79  C   -0.030114
    80  H    0.197050
    81  C    0.582928
    82  C   -0.274746
    83  H    0.180987
    84  H    0.151169
    85  O   -0.463397
    86  C   -0.268215
    87  H    0.151629
    88  H    0.142747
    89  C   -0.270541
    90  H    0.127860
    91  H    0.124572
    92  C   -0.146570
    93  H    0.151037
    94  H    0.145509
    95  N   -0.710621
    96  H    0.289766
    97  H    0.288804
    98  O   -0.556687
    99  H    0.423177
   100  H    0.473503
 Sum of Mulliken charges =   1.00000

 Dipole moment (field-independent basis, Debye):
    X=            -10.3216    Y=              6.9135    Z=              0.1076  Tot=             12.4235
 Quadrupole moment (field-independent basis, Debye-Ang):
   XX=           -153.2143   YY=           -277.1616   ZZ=           -226.9617
   XY=             -4.2753   XZ=            -58.2053   YZ=             13.1838

 Normal termination of Gaussian 16 at Mon Jun  6 03:16:18 2022.
