 Gaussian 16, Revision C.01,
 Gaussian 16:  ES64L-G16RevC.01  3-Jul-2019

 ----------------------------------------------------------------------
 # B3LYP/6-31G* empiricaldispersion=gd3 guess=read geom=check nosymm in
 tegral(ultrafinegrid)
 ----------------------------------------------------------------------

 ------------------------------------------------------
 Candidate Structure: Conf:304 Charge calc in gas phase
 ------------------------------------------------------
 Structure from the checkpoint file:  "conf-304.chk"
 Charge =  1 Multiplicity = 1

                          Input orientation:
 ---------------------------------------------------------------------
 Center     Atomic      Atomic             Coordinates (Angstroms)
 Number     Number       Type             X           Y           Z
 ---------------------------------------------------------------------
      1          7           0       -5.871529   -0.562767    2.128250
      2          1           0       -6.377342   -1.270830    2.655390
      3          1           0       -6.068885   -0.700113    1.138621
      4          6           0       -4.444611   -0.615629    2.375598
      5          1           0       -4.287370   -0.418288    3.444364
      6          6           0       -3.762495    0.476275    1.535487
      7          6           0       -3.773315   -1.989514    2.001484
      8          1           0       -4.090744   -2.743486    2.734398
      9          1           0       -4.113643   -2.295228    1.010977
     10          8           0       -3.464027    0.250733    0.364269
     11          6           0       -2.269451   -1.963401    1.935773
     12          7           0       -1.574476   -1.382773    3.135476
     13          1           0       -0.574521   -1.807193    3.226492
     14          1           0       -2.096580   -1.476336    4.009489
     15          8           0       -1.570327   -2.290370    1.018784
     16          7           0       -3.419940    1.631563    2.159734
     17          1           0       -3.668213    1.781417    3.127461
     18          6           0       -2.430878    2.515354    1.541267
     19          1           0       -2.853251    2.940338    0.624955
     20          6           0       -1.232751    1.617464    1.195070
     21          6           0       -2.002654    3.644216    2.505604
     22          1           0       -1.585329    3.148550    3.394392
     23          8           0       -0.781970    0.835979    2.055511
     24          6           0       -3.198352    4.512556    2.961218
     25          1           0       -2.802990    5.268267    3.651108
     26          1           0       -3.895115    3.908911    3.559594
     27          6           0       -0.881109    4.484440    1.872203
     28          1           0       -1.193770    4.921857    0.917123
     29          1           0       -0.608644    5.308027    2.539101
     30          1           0        0.020964    3.890894    1.691400
     31          6           0       -3.981728    5.203523    1.838985
     32          1           0       -4.768312    5.836392    2.261449
     33          1           0       -3.338786    5.845184    1.227558
     34          1           0       -4.470197    4.479553    1.176493
     35          7           0       -0.696265    1.684624   -0.023426
     36          1           0       -1.153301    2.273895   -0.708066
     37          6           0        0.169726    0.621790   -0.555172
     38          1           0       -0.458303   -0.269096   -0.688877
     39          6           0        1.333782    0.302801    0.411173
     40          6           0        0.743036    1.077441   -1.897578
     41          1           0        1.345820    0.278794   -2.335486
     42          1           0       -0.058486    1.323539   -2.603185
     43          1           0        1.383219    1.950506   -1.745457
     44          8           0        2.178853    1.137722    0.692837
     45          7           0        1.386014   -1.005991    0.811287
     46          1           0        0.566846   -1.594150    0.702983
     47          6           0        2.445637   -1.517574    1.674237
     48          1           0        3.301264   -0.846640    1.563992
     49          6           0        2.762052   -2.946071    1.210065
     50          6           0        2.048896   -1.575839    3.172350
     51          1           0        2.865816   -2.084502    3.703786
     52          8           0        1.914255   -3.841781    1.395230
     53          6           0        1.811402   -0.214447    3.801052
     54          1           0        2.738783    0.365516    3.793357
     55          1           0        1.492782   -0.341662    4.841173
     56          1           0        1.059185    0.354585    3.252649
     57          8           0        0.861701   -2.391082    3.331585
     58          1           0        1.007977   -3.177176    2.737194
     59          7           0        3.948589   -3.148749    0.638891
     60          1           0        4.606149   -2.386817    0.489374
     61          6           0        4.408531   -4.422089    0.108836
     62          1           0        4.244830   -5.215476    0.845626
     63          6           0        5.897089   -4.240992   -0.190646
     64          6           0        3.637796   -4.791898   -1.201398
     65          1           0        3.715064   -3.942016   -1.889675
     66          1           0        2.588901   -4.927569   -0.921801
     67          8           0        6.418350   -3.124471   -0.188041
     68          8           0        4.110933   -5.998352   -1.768849
     69          1           0        4.778143   -5.747378   -2.443826
     70          7           0        6.567942   -5.377264   -0.527987
     71          1           0        5.962017   -6.165242   -0.743704
     72          6           0        7.744618   -5.228409   -1.372202
     73          1           0        8.475431   -4.594609   -0.865126
     74          1           0        8.189039   -6.215057   -1.531701
     75          6           0        7.325015   -4.626712   -2.727936
     76          8           0        6.236075   -4.915083   -3.237736
     77          7           0        8.190711   -3.766346   -3.294499
     78          1           0        9.082810   -3.564945   -2.859333
     79          6           0        7.887707   -3.043436   -4.521556
     80          1           0        7.202647   -3.658168   -5.110918
     81          6           0        9.190724   -2.850058   -5.280556
     82          6           0        7.231976   -1.660625   -4.255675
     83          1           0        7.983623   -0.993303   -3.810710
     84          1           0        6.962829   -1.232690   -5.229106
     85          8           0       10.292975   -2.952550   -4.786997
     86          6           0        6.010845   -1.746812   -3.333975
     87          1           0        5.306066   -2.490585   -3.717070
     88          1           0        6.328636   -2.109861   -2.351640
     89          6           0        5.302169   -0.400310   -3.145033
     90          1           0        4.815885   -0.092619   -4.083489
     91          1           0        6.034522    0.384430   -2.910642
     92          6           0        4.266005   -0.430873   -2.015620
     93          1           0        4.784033   -0.646490   -1.071841
     94          1           0        3.812431    0.567939   -1.902600
     95          7           0        3.282032   -1.503513   -2.228102
     96          1           0        2.791360   -1.369752   -3.111343
     97          1           0        2.583051   -1.507847   -1.488318
     98          8           0        8.967103   -2.490750   -6.558512
     99          1           0        9.838480   -2.334825   -6.970777
    100          1           0       -1.396261   -0.355376    2.904547
 ---------------------------------------------------------------------

 SCF Done:  E(RB3LYP) =  -2418.58148078     A.U. after    3 cycles

 Alpha  occ. eigenvalues --  -19.30560 -19.26697 -19.26425 -19.25253 -19.24033
 Alpha  occ. eigenvalues --  -19.21883 -19.21182 -19.21117 -19.20377 -19.19973
 Alpha  occ. eigenvalues --  -19.19695 -14.54419 -14.48686 -14.48574 -14.46066
 Alpha  occ. eigenvalues --  -14.45617 -14.44051 -14.43880 -14.43396 -14.38888
 Alpha  occ. eigenvalues --  -10.46544 -10.41638 -10.40978 -10.39105 -10.38764
 Alpha  occ. eigenvalues --  -10.38723 -10.36809 -10.36776 -10.36638 -10.35149
 Alpha  occ. eigenvalues --  -10.34581 -10.34378 -10.33696 -10.33303 -10.30981
 Alpha  occ. eigenvalues --  -10.30765 -10.30708 -10.30407 -10.29307 -10.28183
 Alpha  occ. eigenvalues --  -10.28117 -10.27450 -10.27091 -10.26607 -10.26189
 Alpha  occ. eigenvalues --  -10.25473 -10.24403 -10.23251  -1.22031  -1.17652
 Alpha  occ. eigenvalues --   -1.17462  -1.15772  -1.14664  -1.13097  -1.12628
 Alpha  occ. eigenvalues --   -1.11993  -1.11131  -1.08777  -1.08748  -1.07432
 Alpha  occ. eigenvalues --   -1.04923  -1.04816  -1.02371  -1.01804  -1.01706
 Alpha  occ. eigenvalues --   -1.00339  -1.00076  -0.95222  -0.92045  -0.90328
 Alpha  occ. eigenvalues --   -0.89106  -0.87177  -0.86771  -0.84652  -0.84193
 Alpha  occ. eigenvalues --   -0.82727  -0.81450  -0.80888  -0.78868  -0.78436
 Alpha  occ. eigenvalues --   -0.75911  -0.75476  -0.74452  -0.73423  -0.72435
 Alpha  occ. eigenvalues --   -0.72322  -0.70479  -0.70307  -0.69763  -0.69509
 Alpha  occ. eigenvalues --   -0.68733  -0.68403  -0.67643  -0.67187  -0.67020
 Alpha  occ. eigenvalues --   -0.65971  -0.65244  -0.64922  -0.64425  -0.63997
 Alpha  occ. eigenvalues --   -0.63750  -0.62843  -0.62094  -0.61133  -0.60797
 Alpha  occ. eigenvalues --   -0.59808  -0.59491  -0.58768  -0.58612  -0.57957
 Alpha  occ. eigenvalues --   -0.57560  -0.57165  -0.56757  -0.56548  -0.56364
 Alpha  occ. eigenvalues --   -0.56180  -0.55446  -0.55213  -0.55104  -0.54747
 Alpha  occ. eigenvalues --   -0.54383  -0.53938  -0.53441  -0.53065  -0.52809
 Alpha  occ. eigenvalues --   -0.52650  -0.52485  -0.52290  -0.51934  -0.51556
 Alpha  occ. eigenvalues --   -0.51363  -0.50931  -0.50748  -0.50372  -0.50232
 Alpha  occ. eigenvalues --   -0.49788  -0.49656  -0.49357  -0.49163  -0.48803
 Alpha  occ. eigenvalues --   -0.48465  -0.48307  -0.47886  -0.47852  -0.47520
 Alpha  occ. eigenvalues --   -0.47340  -0.47198  -0.47097  -0.46820  -0.46615
 Alpha  occ. eigenvalues --   -0.46327  -0.46155  -0.46078  -0.45804  -0.44649
 Alpha  occ. eigenvalues --   -0.44462  -0.43958  -0.43090  -0.42970  -0.42757
 Alpha  occ. eigenvalues --   -0.42407  -0.42319  -0.41988  -0.40480  -0.39706
 Alpha  occ. eigenvalues --   -0.39541  -0.39336  -0.39184  -0.39098  -0.38906
 Alpha  occ. eigenvalues --   -0.38304  -0.37950  -0.37616  -0.36987  -0.36767
 Alpha  occ. eigenvalues --   -0.35674  -0.35196  -0.34851  -0.34548  -0.34265
 Alpha  occ. eigenvalues --   -0.34126  -0.33342  -0.32897  -0.31817  -0.30424
 Alpha virt. eigenvalues --   -0.16919  -0.12201  -0.10011  -0.08649  -0.07912
 Alpha virt. eigenvalues --   -0.06943  -0.06582  -0.06007  -0.05141  -0.03544
 Alpha virt. eigenvalues --   -0.03147  -0.02113  -0.01772  -0.00629   0.00064

 Mulliken charges:
               1
     1  N   -0.699296
     2  H    0.327012
     3  H    0.333887
     4  C   -0.062413
     5  H    0.135557
     6  C    0.620463
     7  C   -0.373195
     8  H    0.193314
     9  H    0.225175
    10  O   -0.519539
    11  C    0.557997
    12  N   -0.866529
    13  H    0.468197
    14  H    0.381695
    15  O   -0.370096
    16  N   -0.614647
    17  H    0.346633
    18  C   -0.004635
    19  H    0.173681
    20  C    0.667947
    21  C   -0.121928
    22  H    0.143678
    23  O   -0.610505
    24  C   -0.267127
    25  H    0.163603
    26  H    0.128894
    27  C   -0.480655
    28  H    0.154082
    29  H    0.174771
    30  H    0.181545
    31  C   -0.461320
    32  H    0.172139
    33  H    0.161669
    34  H    0.153103
    35  N   -0.566485
    36  H    0.354838
    37  C   -0.043912
    38  H    0.180041
    39  C    0.650695
    40  C   -0.493019
    41  H    0.164264
    42  H    0.163762
    43  H    0.200185
    44  O   -0.517967
    45  N   -0.636457
    46  H    0.365936
    47  C   -0.094234
    48  H    0.193680
    49  C    0.648269
    50  C    0.144554
    51  H    0.162410
    52  O   -0.579332
    53  C   -0.504151
    54  H    0.181271
    55  H    0.156900
    56  H    0.195027
    57  O   -0.698986
    58  H    0.446474
    59  N   -0.615521
    60  H    0.379594
    61  C   -0.063226
    62  H    0.191827
    63  C    0.601704
    64  C   -0.074874
    65  H    0.198756
    66  H    0.168570
    67  O   -0.537164
    68  O   -0.651398
    69  H    0.440743
    70  N   -0.571055
    71  H    0.354360
    72  C   -0.251370
    73  H    0.194982
    74  H    0.199538
    75  C    0.643781
    76  O   -0.553756
    77  N   -0.587440
    78  H    0.354671
    79  C   -0.049692
    80  H    0.205461
    81  C    0.587474
    82  C   -0.270081
    83  H    0.144712
    84  H    0.162481
    85  O   -0.463430
    86  C   -0.275765
    87  H    0.164647
    88  H    0.173757
    89  C   -0.271805
    90  H    0.129429
    91  H    0.141869
    92  C   -0.150114
    93  H    0.141402
    94  H    0.130417
    95  N   -0.729126
    96  H    0.303445
    97  H    0.302569
    98  O   -0.560311
    99  H    0.424012
   100  H    0.449008
 Sum of Mulliken charges =   1.00000

 Dipole moment (field-independent basis, Debye):
    X=             -2.7006    Y=             -1.0627    Z=              6.5915  Tot=              7.2021
 Quadrupole moment (field-independent basis, Debye-Ang):
   XX=           -174.1007   YY=           -253.3440   ZZ=           -214.1441
   XY=            -25.6702   XZ=            -65.0449   YZ=             -5.6368

 Normal termination of Gaussian 16 at Mon Jun  6 03:41:12 2022.
