 Gaussian 16, Revision C.01,
 Gaussian 16:  ES64L-G16RevC.01  3-Jul-2019

 ----------------------------------------------------------------------
 # B3LYP/6-31G* empiricaldispersion=gd3 guess=read geom=check nosymm in
 tegral(ultrafinegrid)
 ----------------------------------------------------------------------

 ------------------------------------------------------
 Candidate Structure: Conf:197 Charge calc in gas phase
 ------------------------------------------------------
 Structure from the checkpoint file:  "conf-197.chk"
 Charge =  1 Multiplicity = 1

                          Input orientation:
 ---------------------------------------------------------------------
 Center     Atomic      Atomic             Coordinates (Angstroms)
 Number     Number       Type             X           Y           Z
 ---------------------------------------------------------------------
      1          7           0       -8.672345    3.453729    3.391098
      2          1           0       -8.318536    4.246686    2.849231
      3          1           0       -8.780962    3.811954    4.338693
      4          6           0       -7.644358    2.426603    3.366740
      5          1           0       -7.759501    1.777928    4.241476
      6          6           0       -6.193975    2.963068    3.274561
      7          6           0       -7.880135    1.576704    2.089399
      8          1           0       -7.945979    2.244357    1.222863
      9          1           0       -7.053383    0.871318    1.886543
     10          8           0       -5.982363    4.118522    2.933684
     11          6           0       -9.123433    0.774905    2.247177
     12          7           0       -9.896108    0.536387    0.834452
     13          1           0      -10.209860    1.419213    0.411425
     14          1           0      -10.719670   -0.050235    1.021405
     15          8           0       -9.638244    0.241302    3.162495
     16          7           0       -5.242490    2.023486    3.512878
     17          1           0       -5.570079    1.065497    3.582111
     18          6           0       -3.917828    2.092652    2.906850
     19          1           0       -3.876790    3.023599    2.330156
     20          6           0       -3.841020    0.907903    1.913933
     21          6           0       -2.787368    2.115464    3.966026
     22          1           0       -1.833510    2.186635    3.422049
     23          8           0       -4.800660    0.134274    1.756861
     24          6           0       -2.765279    0.815350    4.793719
     25          1           0       -2.817916   -0.048668    4.115535
     26          1           0       -3.670962    0.777494    5.415038
     27          6           0       -2.935058    3.374528    4.832096
     28          1           0       -3.860236    3.330232    5.418214
     29          1           0       -2.097453    3.477342    5.527433
     30          1           0       -2.973889    4.279703    4.215967
     31          6           0       -1.523771    0.665131    5.679969
     32          1           0       -1.541429   -0.290450    6.214705
     33          1           0       -0.606531    0.696126    5.079203
     34          1           0       -1.459025    1.459710    6.430288
     35          7           0       -2.684026    0.779396    1.248327
     36          1           0       -1.899129    1.405950    1.403909
     37          6           0       -2.418845   -0.296310    0.305469
     38          1           0       -2.779148   -1.234616    0.744093
     39          6           0       -0.891973   -0.350028    0.127254
     40          6           0       -3.121608   -0.066226   -1.044049
     41          1           0       -2.911292   -0.885696   -1.738199
     42          1           0       -4.200766   -0.009219   -0.878628
     43          1           0       -2.775975    0.869055   -1.495895
     44          8           0       -0.185454    0.603309    0.480232
     45          7           0       -0.419349   -1.458078   -0.471948
     46          1           0       -1.024287   -2.270453   -0.521987
     47          6           0        1.013985   -1.766995   -0.572586
     48          1           0        1.500186   -1.399930    0.342047
     49          6           0        1.661844   -1.045755   -1.778207
     50          6           0        1.174070   -3.302694   -0.683020
     51          1           0        0.839099   -3.603170   -1.680276
     52          8           0        2.057881   -1.677694   -2.757222
     53          6           0        2.609721   -3.757871   -0.463514
     54          1           0        3.278865   -3.356553   -1.227219
     55          1           0        2.653778   -4.849384   -0.515709
     56          1           0        2.971221   -3.442809    0.525830
     57          8           0        0.257308   -3.942044    0.215393
     58          1           0        0.622385   -3.864854    1.113056
     59          7           0        1.713616    0.303458   -1.665644
     60          1           0        1.421482    0.694163   -0.773569
     61          6           0        2.554480    1.106882   -2.524403
     62          1           0        2.616266    0.602600   -3.493858
     63          6           0        3.988868    1.167109   -1.934260
     64          6           0        1.921270    2.484764   -2.766671
     65          1           0        2.045523    3.122739   -1.877567
     66          1           0        0.845163    2.348208   -2.945768
     67          8           0        4.297874    0.478146   -0.961226
     68          8           0        2.568547    3.045787   -3.906746
     69          1           0        2.294085    3.970398   -4.002796
     70          7           0        4.832553    2.008037   -2.573259
     71          1           0        4.489061    2.468005   -3.409565
     72          6           0        6.270560    2.024696   -2.304423
     73          1           0        6.697191    2.930870   -2.735606
     74          1           0        6.429042    2.025930   -1.221969
     75          6           0        6.920295    0.805239   -2.983978
     76          8           0        7.419767    0.875956   -4.096619
     77          7           0        6.814439   -0.335500   -2.237599
     78          1           0        6.207494   -0.265480   -1.425175
     79          6           0        6.922585   -1.663705   -2.829293
     80          1           0        7.379898   -1.519128   -3.815800
     81          6           0        5.513453   -2.238790   -3.043849
     82          6           0        7.789443   -2.602382   -1.982471
     83          1           0        7.368570   -2.652377   -0.967502
     84          1           0        7.702959   -3.613727   -2.394738
     85          8           0        5.187368   -3.380073   -2.787908
     86          6           0        9.252825   -2.156438   -1.923192
     87          1           0        9.665378   -2.122599   -2.942565
     88          1           0        9.320257   -1.136038   -1.532209
     89          6           0       10.118516   -3.083660   -1.062837
     90          1           0       10.094916   -4.104268   -1.470347
     91          1           0        9.691495   -3.151811   -0.049335
     92          6           0       11.579002   -2.628671   -0.955931
     93          1           0       12.166935   -3.423047   -0.460060
     94          1           0       11.994500   -2.515717   -1.966114
     95          7           0       11.671171   -1.321159   -0.290483
     96          1           0       12.638047   -0.999963   -0.289716
     97          1           0       11.408866   -1.424990    0.689923
     98          8           0        4.661439   -1.317158   -3.534311
     99          1           0        3.750595   -1.689068   -3.495016
    100          1           0       -9.287324    0.060259    0.156767
 ---------------------------------------------------------------------

 SCF Done:  E(RB3LYP) =  -2418.50524550     A.U. after    1 cycles

 Alpha  occ. eigenvalues --  -19.36623 -19.23199 -19.23099 -19.22754 -19.22220
 Alpha  occ. eigenvalues --  -19.22198 -19.21598 -19.19552 -19.17468 -19.16917
 Alpha  occ. eigenvalues --  -19.14599 -14.63761 -14.46446 -14.46266 -14.45633
 Alpha  occ. eigenvalues --  -14.43886 -14.42843 -14.41514 -14.38525 -14.33538
 Alpha  occ. eigenvalues --  -10.51985 -10.39793 -10.39475 -10.38852 -10.37130
 Alpha  occ. eigenvalues --  -10.36566 -10.36394 -10.34783 -10.34514 -10.33669
 Alpha  occ. eigenvalues --  -10.33156 -10.31812 -10.31643 -10.31176 -10.30909
 Alpha  occ. eigenvalues --  -10.29996 -10.28543 -10.27913 -10.27245 -10.26632
 Alpha  occ. eigenvalues --  -10.26263 -10.25272 -10.24934 -10.22917 -10.22818
 Alpha  occ. eigenvalues --  -10.20934 -10.20327 -10.19656  -1.28262  -1.16469
 Alpha  occ. eigenvalues --   -1.15092  -1.14279  -1.13547  -1.12965  -1.11288
 Alpha  occ. eigenvalues --   -1.10332  -1.09474  -1.09064  -1.06346  -1.04082
 Alpha  occ. eigenvalues --   -1.03663  -1.02857  -1.02105  -1.01906  -0.99670
 Alpha  occ. eigenvalues --   -0.97710  -0.95519  -0.93767  -0.90473  -0.90126
 Alpha  occ. eigenvalues --   -0.87735  -0.85059  -0.83661  -0.83201  -0.82274
 Alpha  occ. eigenvalues --   -0.80810  -0.78807  -0.78728  -0.77656  -0.76720
 Alpha  occ. eigenvalues --   -0.76492  -0.76074  -0.75213  -0.73706  -0.72039
 Alpha  occ. eigenvalues --   -0.71577  -0.71329  -0.69680  -0.69214  -0.68768
 Alpha  occ. eigenvalues --   -0.68595  -0.67299  -0.65960  -0.65511  -0.65353
 Alpha  occ. eigenvalues --   -0.64747  -0.64456  -0.64388  -0.63168  -0.61868
 Alpha  occ. eigenvalues --   -0.61333  -0.61002  -0.60745  -0.60064  -0.59831
 Alpha  occ. eigenvalues --   -0.59268  -0.58458  -0.58303  -0.57928  -0.57558
 Alpha  occ. eigenvalues --   -0.56313  -0.56020  -0.55715  -0.54766  -0.54497
 Alpha  occ. eigenvalues --   -0.53862  -0.53688  -0.53149  -0.53012  -0.52856
 Alpha  occ. eigenvalues --   -0.52541  -0.52191  -0.51794  -0.51461  -0.51215
 Alpha  occ. eigenvalues --   -0.51016  -0.50755  -0.50715  -0.50388  -0.50215
 Alpha  occ. eigenvalues --   -0.49578  -0.49052  -0.48751  -0.48701  -0.48390
 Alpha  occ. eigenvalues --   -0.48113  -0.47822  -0.47659  -0.47227  -0.46841
 Alpha  occ. eigenvalues --   -0.46594  -0.46554  -0.46198  -0.45977  -0.45808
 Alpha  occ. eigenvalues --   -0.45293  -0.45116  -0.44433  -0.44268  -0.44138
 Alpha  occ. eigenvalues --   -0.43502  -0.43389  -0.43153  -0.42568  -0.42135
 Alpha  occ. eigenvalues --   -0.42034  -0.41254  -0.40998  -0.40764  -0.40524
 Alpha  occ. eigenvalues --   -0.40350  -0.39343  -0.39023  -0.38231  -0.37388
 Alpha  occ. eigenvalues --   -0.37150  -0.36971  -0.36558  -0.36211  -0.35825
 Alpha  occ. eigenvalues --   -0.35730  -0.35652  -0.35520  -0.35218  -0.34889
 Alpha  occ. eigenvalues --   -0.34801  -0.34307  -0.33351  -0.32445  -0.32283
 Alpha  occ. eigenvalues --   -0.31612  -0.31112  -0.28069  -0.27165  -0.25614
 Alpha virt. eigenvalues --   -0.21043  -0.14906  -0.10833  -0.08752  -0.08368
 Alpha virt. eigenvalues --   -0.07783  -0.07595  -0.06841  -0.06064  -0.03991
 Alpha virt. eigenvalues --   -0.03363  -0.02947  -0.00992  -0.00780  -0.00611

 Mulliken charges:
               1
     1  N   -0.724632
     2  H    0.332363
     3  H    0.336500
     4  C   -0.101189
     5  H    0.193617
     6  C    0.583915
     7  C   -0.390852
     8  H    0.191737
     9  H    0.263911
    10  O   -0.494168
    11  C    0.581888
    12  N   -0.806341
    13  H    0.431422
    14  H    0.431624
    15  O   -0.306115
    16  N   -0.562803
    17  H    0.338053
    18  C   -0.096893
    19  H    0.196136
    20  C    0.624571
    21  C   -0.078018
    22  H    0.135108
    23  O   -0.574071
    24  C   -0.271594
    25  H    0.136654
    26  H    0.139491
    27  C   -0.456322
    28  H    0.156585
    29  H    0.166377
    30  H    0.160421
    31  C   -0.452230
    32  H    0.157758
    33  H    0.152265
    34  H    0.161099
    35  N   -0.611570
    36  H    0.369636
    37  C   -0.039136
    38  H    0.181888
    39  C    0.624652
    40  C   -0.443380
    41  H    0.168482
    42  H    0.165703
    43  H    0.167261
    44  O   -0.556567
    45  N   -0.602148
    46  H    0.357060
    47  C   -0.088128
    48  H    0.180413
    49  C    0.660960
    50  C    0.106306
    51  H    0.177329
    52  O   -0.544787
    53  C   -0.493564
    54  H    0.218143
    55  H    0.175300
    56  H    0.131865
    57  O   -0.635688
    58  H    0.393627
    59  N   -0.603642
    60  H    0.371840
    61  C   -0.090766
    62  H    0.217110
    63  C    0.636547
    64  C   -0.046119
    65  H    0.143013
    66  H    0.147119
    67  O   -0.554436
    68  O   -0.618603
    69  H    0.412422
    70  N   -0.588689
    71  H    0.371024
    72  C   -0.242005
    73  H    0.181435
    74  H    0.182712
    75  C    0.599293
    76  O   -0.499318
    77  N   -0.583844
    78  H    0.355849
    79  C   -0.073029
    80  H    0.205418
    81  C    0.589054
    82  C   -0.254045
    83  H    0.127441
    84  H    0.157439
    85  O   -0.474462
    86  C   -0.251772
    87  H    0.130848
    88  H    0.170095
    89  C   -0.256085
    90  H    0.130431
    91  H    0.119157
    92  C   -0.138569
    93  H    0.113868
    94  H    0.141135
    95  N   -0.711978
    96  H    0.298344
    97  H    0.289014
    98  O   -0.601142
    99  H    0.449458
   100  H    0.428514
 Sum of Mulliken charges =   1.00000

 Dipole moment (field-independent basis, Debye):
    X=            -38.0054    Y=              6.0759    Z=              8.1323  Tot=             39.3378
 Quadrupole moment (field-independent basis, Debye-Ang):
   XX=             69.9997   YY=           -269.0690   ZZ=           -273.1158
   XY=            -24.3484   XZ=              0.0859   YZ=            -10.3231

 Normal termination of Gaussian 16 at Mon Jun  6 03:38:08 2022.
