 Gaussian 16, Revision C.01,
 Gaussian 16:  ES64L-G16RevC.01  3-Jul-2019

 ----------------------------------------------------------------------
 # B3LYP/6-31G* empiricaldispersion=gd3 guess=read geom=check nosymm in
 tegral(ultrafinegrid)
 ----------------------------------------------------------------------

 ------------------------------------------------------
 Candidate Structure: Conf:962 Charge calc in gas phase
 ------------------------------------------------------
 Structure from the checkpoint file:  "conf-962.chk"
 Charge =  1 Multiplicity = 1

                          Input orientation:
 ---------------------------------------------------------------------
 Center     Atomic      Atomic             Coordinates (Angstroms)
 Number     Number       Type             X           Y           Z
 ---------------------------------------------------------------------
      1          7           0       -6.404802   -1.111372    4.133049
      2          1           0       -7.390801   -1.144934    4.372353
      3          1           0       -5.870093   -1.670919    4.792059
      4          6           0       -5.896545    0.231520    3.978114
      5          1           0       -6.603768    0.777521    3.340917
      6          6           0       -4.539055    0.271985    3.228956
      7          6           0       -5.680775    1.074510    5.265257
      8          1           0       -5.104754    0.513503    6.016416
      9          1           0       -5.051895    1.939373    4.994927
     10          8           0       -3.800673    1.255292    3.367077
     11          6           0       -6.946525    1.524437    5.873693
     12          7           0       -6.661354    2.499538    7.197596
     13          1           0       -6.095890    2.028944    7.914151
     14          1           0       -7.570247    2.755469    7.602401
     15          8           0       -8.089906    1.372094    5.637786
     16          7           0       -4.291585   -0.786555    2.453256
     17          1           0       -5.024039   -1.485131    2.381800
     18          6           0       -3.080418   -0.925620    1.629629
     19          1           0       -2.283513   -0.370753    2.137870
     20          6           0       -3.328393   -0.226844    0.269937
     21          6           0       -2.665601   -2.402993    1.478701
     22          1           0       -3.417013   -2.894060    0.843927
     23          8           0       -3.378578   -0.840262   -0.789871
     24          6           0       -2.627188   -3.109206    2.851547
     25          1           0       -3.596039   -2.996174    3.356664
     26          1           0       -1.890699   -2.599700    3.490409
     27          6           0       -1.304554   -2.490801    0.767603
     28          1           0       -0.521947   -2.035085    1.386237
     29          1           0       -1.030253   -3.533807    0.588587
     30          1           0       -1.320044   -1.991021   -0.201899
     31          6           0       -2.300051   -4.605082    2.776359
     32          1           0       -2.393673   -5.072746    3.762821
     33          1           0       -2.984594   -5.123034    2.093531
     34          1           0       -1.279994   -4.783740    2.424187
     35          7           0       -3.504132    1.124958    0.364717
     36          1           0       -3.245624    1.552374    1.249758
     37          6           0       -3.342006    1.977950   -0.823443
     38          1           0       -3.729181    1.410059   -1.672226
     39          6           0       -1.819133    2.180476   -0.947858
     40          6           0       -4.084716    3.295984   -0.658391
     41          1           0       -3.983304    3.901899   -1.563770
     42          1           0       -5.147452    3.111436   -0.473853
     43          1           0       -3.660044    3.870538    0.170134
     44          8           0       -1.257077    3.148827   -0.425073
     45          7           0       -1.157094    1.159473   -1.536222
     46          1           0       -1.658253    0.320451   -1.817987
     47          6           0        0.279077    1.019097   -1.388206
     48          1           0        0.732665    1.997972   -1.574222
     49          6           0        0.735369   -0.025015   -2.406709
     50          6           0        0.700578    0.519819    0.050241
     51          1           0        0.660391   -0.571645    0.050328
     52          8           0        0.021797   -0.985259   -2.681534
     53          6           0        2.117013    0.970052    0.398741
     54          1           0        2.847788    0.510570   -0.272308
     55          1           0        2.354866    0.651815    1.418152
     56          1           0        2.201879    2.063659    0.350241
     57          8           0       -0.236808    0.920911    1.047896
     58          1           0       -0.325893    1.889139    0.983002
     59          7           0        1.967088    0.168409   -2.953152
     60          1           0        2.578795    0.856620   -2.531184
     61          6           0        2.651952   -0.946170   -3.573293
     62          1           0        1.952170   -1.440429   -4.254914
     63          6           0        3.081967   -1.971764   -2.489713
     64          6           0        3.844430   -0.417878   -4.369951
     65          1           0        3.472786    0.241930   -5.167588
     66          1           0        4.382628   -1.254932   -4.838167
     67          8           0        2.965134   -1.752289   -1.288756
     68          8           0        4.670376    0.287227   -3.448828
     69          1           0        5.385334    0.718633   -3.939939
     70          7           0        3.589229   -3.125963   -2.978322
     71          1           0        3.670432   -3.320535   -3.970730
     72          6           0        4.066184   -4.176505   -2.112531
     73          1           0        4.805437   -3.783260   -1.402595
     74          1           0        3.246635   -4.596794   -1.513061
     75          6           0        4.690776   -5.267665   -2.988078
     76          8           0        4.700772   -5.182795   -4.214770
     77          7           0        5.213773   -6.317776   -2.311343
     78          1           0        5.187012   -6.337693   -1.301403
     79          6           0        5.837293   -7.435940   -3.011542
     80          1           0        5.229324   -7.653625   -3.895541
     81          6           0        5.852104   -8.702103   -2.168995
     82          6           0        7.273698   -7.117444   -3.490654
     83          1           0        7.632232   -7.984329   -4.057272
     84          1           0        7.195719   -6.276265   -4.187962
     85          8           0        6.178110   -9.782692   -2.597151
     86          6           0        8.247464   -6.783290   -2.356671
     87          1           0        7.850449   -5.943009   -1.769737
     88          1           0        8.322098   -7.635957   -1.665823
     89          6           0        9.648607   -6.427047   -2.866409
     90          1           0        9.581321   -5.577611   -3.562755
     91          1           0       10.054811   -7.269483   -3.445518
     92          6           0       10.628190   -6.073860   -1.735047
     93          1           0       10.226325   -5.230106   -1.157279
     94          1           0       10.695378   -6.917896   -1.035339
     95          7           0       11.990219   -5.725749   -2.145318
     96          1           0       11.962699   -4.941555   -2.796533
     97          1           0       12.401420   -6.502198   -2.662706
     98          8           0        5.513361   -8.489987   -0.870053
     99          1           0        5.588928   -9.351730   -0.417944
    100          1           0       -6.167778    3.357336    6.921474
 ---------------------------------------------------------------------

 SCF Done:  E(RB3LYP) =  -2418.49098178     A.U. after    1 cycles

 Alpha  occ. eigenvalues --  -19.38331 -19.26022 -19.22580 -19.21208 -19.19552
 Alpha  occ. eigenvalues --  -19.19080 -19.18353 -19.17813 -19.16744 -19.16727
 Alpha  occ. eigenvalues --  -19.16319 -14.63991 -14.46284 -14.45742 -14.42129
 Alpha  occ. eigenvalues --  -14.41940 -14.40935 -14.40869 -14.40581 -14.34354
 Alpha  occ. eigenvalues --  -10.53203 -10.39692 -10.37931 -10.37800 -10.37280
 Alpha  occ. eigenvalues --  -10.35237 -10.35061 -10.33772 -10.33769 -10.33451
 Alpha  occ. eigenvalues --  -10.30410 -10.30059 -10.29430 -10.28896 -10.28686
 Alpha  occ. eigenvalues --  -10.28611 -10.28369 -10.27906 -10.25722 -10.25011
 Alpha  occ. eigenvalues --  -10.24024 -10.23705 -10.23537 -10.23514 -10.22918
 Alpha  occ. eigenvalues --  -10.21985 -10.21961 -10.21436  -1.29652  -1.16614
 Alpha  occ. eigenvalues --   -1.16544  -1.14350  -1.10317  -1.09889  -1.09405
 Alpha  occ. eigenvalues --   -1.08751  -1.08171  -1.07734  -1.07486  -1.06057
 Alpha  occ. eigenvalues --   -1.04063  -1.02043  -0.98772  -0.98591  -0.97629
 Alpha  occ. eigenvalues --   -0.97285  -0.96961  -0.95037  -0.91139  -0.87987
 Alpha  occ. eigenvalues --   -0.85378  -0.84132  -0.83441  -0.82524  -0.81263
 Alpha  occ. eigenvalues --   -0.80411  -0.80059  -0.77237  -0.77084  -0.76708
 Alpha  occ. eigenvalues --   -0.76215  -0.75540  -0.74010  -0.73570  -0.71142
 Alpha  occ. eigenvalues --   -0.70118  -0.69870  -0.68922  -0.68648  -0.68056
 Alpha  occ. eigenvalues --   -0.66262  -0.66086  -0.65408  -0.64639  -0.64477
 Alpha  occ. eigenvalues --   -0.64206  -0.63952  -0.63757  -0.63662  -0.63161
 Alpha  occ. eigenvalues --   -0.62196  -0.62137  -0.60889  -0.60253  -0.59858
 Alpha  occ. eigenvalues --   -0.58628  -0.58061  -0.56979  -0.56425  -0.56183
 Alpha  occ. eigenvalues --   -0.55236  -0.54914  -0.54125  -0.53794  -0.53750
 Alpha  occ. eigenvalues --   -0.53557  -0.53420  -0.53323  -0.52607  -0.52341
 Alpha  occ. eigenvalues --   -0.52002  -0.51845  -0.51453  -0.51159  -0.50488
 Alpha  occ. eigenvalues --   -0.49797  -0.49700  -0.49345  -0.49191  -0.49038
 Alpha  occ. eigenvalues --   -0.48817  -0.48188  -0.47937  -0.47658  -0.47213
 Alpha  occ. eigenvalues --   -0.46975  -0.46884  -0.46556  -0.46167  -0.45821
 Alpha  occ. eigenvalues --   -0.45541  -0.45335  -0.44757  -0.44504  -0.44297
 Alpha  occ. eigenvalues --   -0.44163  -0.43890  -0.43686  -0.43100  -0.42725
 Alpha  occ. eigenvalues --   -0.42484  -0.42376  -0.41966  -0.41728  -0.41558
 Alpha  occ. eigenvalues --   -0.41108  -0.40766  -0.40412  -0.39819  -0.39384
 Alpha  occ. eigenvalues --   -0.39261  -0.39074  -0.38728  -0.38590  -0.38435
 Alpha  occ. eigenvalues --   -0.37983  -0.37625  -0.37605  -0.36879  -0.36820
 Alpha  occ. eigenvalues --   -0.35788  -0.33941  -0.33755  -0.33572  -0.32484
 Alpha  occ. eigenvalues --   -0.32179  -0.31840  -0.31445  -0.31227  -0.30821
 Alpha  occ. eigenvalues --   -0.30022  -0.29634  -0.29360  -0.29297  -0.26374
 Alpha virt. eigenvalues --   -0.22351  -0.15700  -0.11650  -0.09060  -0.08304
 Alpha virt. eigenvalues --   -0.08095  -0.05627  -0.04886  -0.04432  -0.03473
 Alpha virt. eigenvalues --   -0.03128  -0.02329  -0.02112  -0.01799  -0.00452

 Mulliken charges:
               1
     1  N   -0.734026
     2  H    0.336321
     3  H    0.325978
     4  C   -0.075608
     5  H    0.210381
     6  C    0.642291
     7  C   -0.391296
     8  H    0.212942
     9  H    0.258050
    10  O   -0.556136
    11  C    0.552305
    12  N   -0.812072
    13  H    0.425615
    14  H    0.430733
    15  O   -0.303367
    16  N   -0.597252
    17  H    0.370991
    18  C   -0.075103
    19  H    0.210295
    20  C    0.634212
    21  C   -0.098108
    22  H    0.145016
    23  O   -0.517931
    24  C   -0.252624
    25  H    0.100776
    26  H    0.134481
    27  C   -0.480010
    28  H    0.152986
    29  H    0.153872
    30  H    0.200421
    31  C   -0.448023
    32  H    0.142660
    33  H    0.150338
    34  H    0.162662
    35  N   -0.608424
    36  H    0.357561
    37  C   -0.063708
    38  H    0.184134
    39  C    0.624119
    40  C   -0.450001
    41  H    0.169731
    42  H    0.143189
    43  H    0.165206
    44  O   -0.564277
    45  N   -0.603747
    46  H    0.376087
    47  C   -0.079850
    48  H    0.167098
    49  C    0.624832
    50  C    0.135898
    51  H    0.174767
    52  O   -0.530917
    53  C   -0.483497
    54  H    0.182529
    55  H    0.157979
    56  H    0.137479
    57  O   -0.652775
    58  H    0.409874
    59  N   -0.592998
    60  H    0.351783
    61  C   -0.090319
    62  H    0.196237
    63  C    0.653769
    64  C   -0.052457
    65  H    0.153110
    66  H    0.144655
    67  O   -0.529810
    68  O   -0.621287
    69  H    0.409624
    70  N   -0.622846
    71  H    0.356025
    72  C   -0.187650
    73  H    0.190048
    74  H    0.188201
    75  C    0.607900
    76  O   -0.528029
    77  N   -0.621345
    78  H    0.354291
    79  C   -0.043838
    80  H    0.207331
    81  C    0.590947
    82  C   -0.271365
    83  H    0.168529
    84  H    0.170783
    85  O   -0.449890
    86  C   -0.272399
    87  H    0.129593
    88  H    0.139683
    89  C   -0.263298
    90  H    0.127121
    91  H    0.132896
    92  C   -0.141255
    93  H    0.137652
    94  H    0.142043
    95  N   -0.701877
    96  H    0.292318
    97  H    0.294980
    98  O   -0.586684
    99  H    0.421933
   100  H    0.430839
 Sum of Mulliken charges =   1.00000

 Dipole moment (field-independent basis, Debye):
    X=            -23.0564    Y=              4.3743    Z=             28.0322  Tot=             36.5586
 Quadrupole moment (field-independent basis, Debye-Ang):
   XX=            -69.7251   YY=           -236.6543   ZZ=            -49.8285
   XY=            -70.0791   XZ=           -231.4811   YZ=             44.4538

 Normal termination of Gaussian 16 at Mon Jun  6 03:16:13 2022.
