 Gaussian 16, Revision C.01,
 Gaussian 16:  ES64L-G16RevC.01  3-Jul-2019

 ----------------------------------------------------------------------
 # B3LYP/6-31G* empiricaldispersion=gd3 guess=read geom=check nosymm in
 tegral(ultrafinegrid)
 ----------------------------------------------------------------------

 ------------------------------------------------------
 Candidate Structure: Conf:684 Charge calc in gas phase
 ------------------------------------------------------
 Structure from the checkpoint file:  "conf-684.chk"
 Charge =  1 Multiplicity = 1

                          Input orientation:
 ---------------------------------------------------------------------
 Center     Atomic      Atomic             Coordinates (Angstroms)
 Number     Number       Type             X           Y           Z
 ---------------------------------------------------------------------
      1          7           0       -9.211293    3.274692    3.557236
      2          1           0       -8.763276    4.215929    3.535763
      3          1           0       -9.022036    2.890487    4.488762
      4          6           0       -8.505023    2.484921    2.476471
      5          1           0       -8.598022    1.426310    2.729981
      6          6           0       -7.042104    2.993257    2.556190
      7          6           0       -9.097935    2.814567    1.092754
      8          1           0       -8.725059    3.783145    0.747053
      9          1           0       -8.732601    2.063440    0.382344
     10          8           0       -6.861627    4.112937    3.049217
     11          6           0      -10.630408    2.900653    1.002112
     12          7           0      -11.334894    2.082849    1.889145
     13          1           0      -10.975923    1.145977    2.051563
     14          1           0      -12.338243    2.092187    1.720341
     15          8           0      -11.172083    3.712672    0.288311
     16          7           0       -6.122976    2.194232    2.032386
     17          1           0       -6.338219    1.284885    1.616464
     18          6           0       -4.706282    2.538084    1.895122
     19          1           0       -4.639132    3.567588    1.532160
     20          6           0       -4.187836    1.548444    0.832216
     21          6           0       -3.963819    2.421218    3.261696
     22          1           0       -4.552079    3.050119    3.943924
     23          8           0       -4.840418    0.532620    0.564093
     24          6           0       -2.530985    2.993029    3.242104
     25          1           0       -1.874232    2.355520    2.637801
     26          1           0       -2.150185    2.916863    4.268122
     27          6           0       -3.971906    0.978121    3.783888
     28          1           0       -3.372465    0.319559    3.145238
     29          1           0       -3.548118    0.939048    4.792313
     30          1           0       -4.984986    0.563319    3.829190
     31          6           0       -2.412903    4.451322    2.782105
     32          1           0       -1.394404    4.818927    2.937714
     33          1           0       -2.632941    4.582166    1.714988
     34          1           0       -3.097975    5.100846    3.340006
     35          7           0       -3.010657    1.856487    0.272812
     36          1           0       -2.472826    2.664940    0.573222
     37          6           0       -2.265020    0.939478   -0.577911
     38          1           0       -2.433412   -0.080148   -0.211783
     39          6           0       -0.782116    1.314519   -0.394304
     40          6           0       -2.707869    1.026609   -2.046819
     41          1           0       -2.150021    0.316901   -2.665575
     42          1           0       -3.772392    0.787035   -2.115562
     43          1           0       -2.541845    2.035493   -2.437736
     44          8           0       -0.477643    2.366092    0.192246
     45          7           0        0.100138    0.459731   -0.921251
     46          1           0       -0.198630   -0.435119   -1.303998
     47          6           0        1.554043    0.628423   -0.930402
     48          1           0        1.804481    1.621413   -1.320114
     49          6           0        2.063958   -0.464949   -1.877522
     50          6           0        2.168062    0.537013    0.515570
     51          1           0        1.554570   -0.211458    1.047425
     52          8           0        1.425453   -1.506471   -2.042761
     53          6           0        3.626757    0.098628    0.564973
     54          1           0        3.764430   -0.920791    0.192979
     55          1           0        3.965496    0.128047    1.602888
     56          1           0        4.279260    0.767364   -0.003290
     57          8           0        2.103502    1.800448    1.146376
     58          1           0        1.212430    2.171302    0.996838
     59          7           0        3.235437   -0.200963   -2.496077
     60          1           0        3.801089    0.590696   -2.197237
     61          6           0        4.021461   -1.253890   -3.113243
     62          1           0        3.929782   -2.175504   -2.522105
     63          6           0        5.488576   -0.783080   -3.061905
     64          6           0        3.518684   -1.585395   -4.525753
     65          1           0        3.726822   -0.745584   -5.204821
     66          1           0        2.434981   -1.741094   -4.468559
     67          8           0        5.793168    0.251544   -2.453855
     68          8           0        4.191157   -2.779067   -4.932185
     69          1           0        3.942329   -2.984411   -5.845487
     70          7           0        6.387076   -1.569920   -3.678018
     71          1           0        6.037782   -2.377362   -4.184733
     72          6           0        7.814112   -1.260136   -3.679970
     73          1           0        8.283417   -1.763459   -4.525300
     74          1           0        7.933236   -0.176986   -3.792470
     75          6           0        8.553030   -1.725616   -2.410373
     76          8           0        9.518391   -2.478192   -2.473131
     77          7           0        8.051630   -1.233500   -1.247371
     78          1           0        7.309704   -0.538441   -1.260117
     79          6           0        8.654927   -1.573501    0.029757
     80          1           0        8.987860   -2.614754   -0.012994
     81          6           0        7.583524   -1.433522    1.097142
     82          6           0        9.883167   -0.676109    0.330899
     83          1           0       10.520437   -0.749562   -0.557724
     84          1           0        9.544062    0.365939    0.401683
     85          8           0        6.609480   -0.714828    1.012049
     86          6           0       10.692568   -1.064002    1.572574
     87          1           0       10.074258   -0.969915    2.473653
     88          1           0       10.972170   -2.124903    1.504517
     89          6           0       11.952724   -0.204892    1.726528
     90          1           0       11.683633    0.856830    1.798330
     91          1           0       12.575873   -0.306959    0.825046
     92          6           0       12.782804   -0.578903    2.956094
     93          1           0       12.166428   -0.455248    3.856622
     94          1           0       13.042806   -1.653301    2.900769
     95          7           0       13.940828    0.313491    3.083269
     96          1           0       14.577959    0.154250    2.303061
     97          1           0       14.466948    0.080394    3.924028
     98          8           0        7.851975   -2.182999    2.187068
     99          1           0        7.151485   -1.990403    2.839355
    100          1           0      -10.231788    3.284997    3.402893
 ---------------------------------------------------------------------

 SCF Done:  E(RB3LYP) =  -2418.54633475     A.U. after    1 cycles

 Alpha  occ. eigenvalues --  -19.26729 -19.26348 -19.24958 -19.22877 -19.22257
 Alpha  occ. eigenvalues --  -19.21401 -19.19435 -19.19301 -19.18907 -19.18009
 Alpha  occ. eigenvalues --  -19.15351 -14.61491 -14.50402 -14.49760 -14.45693
 Alpha  occ. eigenvalues --  -14.44683 -14.42886 -14.42644 -14.39477 -14.33593
 Alpha  occ. eigenvalues --  -10.44031 -10.43914 -10.42588 -10.39218 -10.38157
 Alpha  occ. eigenvalues --  -10.37141 -10.36305 -10.35941 -10.35761 -10.34407
 Alpha  occ. eigenvalues --  -10.32801 -10.32772 -10.30792 -10.30533 -10.30459
 Alpha  occ. eigenvalues --  -10.29780 -10.29299 -10.28061 -10.27936 -10.26762
 Alpha  occ. eigenvalues --  -10.26704 -10.26585 -10.25549 -10.23236 -10.22629
 Alpha  occ. eigenvalues --  -10.21851 -10.21519 -10.20762  -1.19608  -1.18284
 Alpha  occ. eigenvalues --   -1.15854  -1.15282  -1.14237  -1.13001  -1.11539
 Alpha  occ. eigenvalues --   -1.10606  -1.09700  -1.07331  -1.06738  -1.06429
 Alpha  occ. eigenvalues --   -1.06122  -1.04885  -1.02500  -1.01109  -0.99786
 Alpha  occ. eigenvalues --   -0.98821  -0.96314  -0.95178  -0.91056  -0.90295
 Alpha  occ. eigenvalues --   -0.87073  -0.85422  -0.84839  -0.83910  -0.82427
 Alpha  occ. eigenvalues --   -0.81842  -0.80428  -0.79692  -0.77637  -0.77072
 Alpha  occ. eigenvalues --   -0.75890  -0.74910  -0.74451  -0.73501  -0.72854
 Alpha  occ. eigenvalues --   -0.72583  -0.71965  -0.70890  -0.69068  -0.68227
 Alpha  occ. eigenvalues --   -0.67643  -0.67360  -0.66708  -0.66380  -0.65998
 Alpha  occ. eigenvalues --   -0.64805  -0.64635  -0.64414  -0.63754  -0.63161
 Alpha  occ. eigenvalues --   -0.61863  -0.61487  -0.61183  -0.60327  -0.59432
 Alpha  occ. eigenvalues --   -0.58879  -0.58640  -0.58369  -0.57796  -0.57060
 Alpha  occ. eigenvalues --   -0.56792  -0.56096  -0.55785  -0.55458  -0.55042
 Alpha  occ. eigenvalues --   -0.54185  -0.54029  -0.53655  -0.53578  -0.53354
 Alpha  occ. eigenvalues --   -0.52877  -0.52557  -0.52163  -0.51756  -0.51556
 Alpha  occ. eigenvalues --   -0.51443  -0.51409  -0.51111  -0.50957  -0.50835
 Alpha  occ. eigenvalues --   -0.50238  -0.49808  -0.49648  -0.49037  -0.48850
 Alpha  occ. eigenvalues --   -0.48339  -0.48307  -0.47818  -0.47085  -0.46961
 Alpha  occ. eigenvalues --   -0.46499  -0.46216  -0.45847  -0.45727  -0.45591
 Alpha  occ. eigenvalues --   -0.45140  -0.44981  -0.44601  -0.44406  -0.43833
 Alpha  occ. eigenvalues --   -0.43677  -0.43468  -0.42943  -0.42889  -0.42775
 Alpha  occ. eigenvalues --   -0.42653  -0.42408  -0.41658  -0.41626  -0.41219
 Alpha  occ. eigenvalues --   -0.40878  -0.40724  -0.39876  -0.39260  -0.39207
 Alpha  occ. eigenvalues --   -0.38548  -0.38473  -0.37729  -0.36568  -0.36448
 Alpha  occ. eigenvalues --   -0.36257  -0.35593  -0.35565  -0.35530  -0.35261
 Alpha  occ. eigenvalues --   -0.33836  -0.33722  -0.33270  -0.33036  -0.32845
 Alpha  occ. eigenvalues --   -0.32656  -0.30854  -0.29219  -0.28346  -0.25814
 Alpha virt. eigenvalues --   -0.13925  -0.12031  -0.11561  -0.08052  -0.07057
 Alpha virt. eigenvalues --   -0.06421  -0.05748  -0.05404  -0.04721  -0.04267
 Alpha virt. eigenvalues --   -0.04224  -0.03093  -0.02183  -0.01517  -0.00669

 Mulliken charges:
               1
     1  N   -0.733322
     2  H    0.428835
     3  H    0.419071
     4  C   -0.141558
     5  H    0.205187
     6  C    0.656961
     7  C   -0.381383
     8  H    0.232970
     9  H    0.230434
    10  O   -0.534998
    11  C    0.533323
    12  N   -0.765151
    13  H    0.348490
    14  H    0.376469
    15  O   -0.407614
    16  N   -0.612092
    17  H    0.368018
    18  C   -0.067882
    19  H    0.193214
    20  C    0.628326
    21  C   -0.083640
    22  H    0.154185
    23  O   -0.557558
    24  C   -0.281747
    25  H    0.156683
    26  H    0.158352
    27  C   -0.459716
    28  H    0.166757
    29  H    0.167628
    30  H    0.129028
    31  C   -0.463986
    32  H    0.179063
    33  H    0.139993
    34  H    0.156558
    35  N   -0.621977
    36  H    0.384072
    37  C   -0.055944
    38  H    0.190098
    39  C    0.638108
    40  C   -0.444850
    41  H    0.166951
    42  H    0.181630
    43  H    0.168220
    44  O   -0.567914
    45  N   -0.625184
    46  H    0.363982
    47  C   -0.071761
    48  H    0.183535
    49  C    0.598180
    50  C    0.164207
    51  H    0.116158
    52  O   -0.543756
    53  C   -0.460523
    54  H    0.145105
    55  H    0.176631
    56  H    0.171834
    57  O   -0.651546
    58  H    0.423972
    59  N   -0.617568
    60  H    0.373138
    61  C   -0.054677
    62  H    0.203312
    63  C    0.606149
    64  C   -0.039393
    65  H    0.144310
    66  H    0.173202
    67  O   -0.555863
    68  O   -0.629529
    69  H    0.415456
    70  N   -0.589546
    71  H    0.375548
    72  C   -0.242211
    73  H    0.187571
    74  H    0.197618
    75  C    0.600620
    76  O   -0.512259
    77  N   -0.624143
    78  H    0.381318
    79  C   -0.025307
    80  H    0.192467
    81  C    0.576475
    82  C   -0.270682
    83  H    0.173941
    84  H    0.144721
    85  O   -0.466797
    86  C   -0.265816
    87  H    0.139950
    88  H    0.140667
    89  C   -0.250408
    90  H    0.148393
    91  H    0.129100
    92  C   -0.133508
    93  H    0.135980
    94  H    0.113192
    95  N   -0.716328
    96  H    0.293204
    97  H    0.297132
    98  O   -0.555566
    99  H    0.412897
   100  H    0.425117
 Sum of Mulliken charges =   1.00000

 Dipole moment (field-independent basis, Debye):
    X=            -32.8834    Y=              5.9995    Z=              8.6042  Tot=             34.5159
 Quadrupole moment (field-independent basis, Debye-Ang):
   XX=             67.1181   YY=           -276.3721   ZZ=           -193.8905
   XY=            -86.0922   XZ=           -124.4722   YZ=             30.7396

 Normal termination of Gaussian 16 at Mon Jun  6 03:39:39 2022.
