 Gaussian 16, Revision C.01,
 Gaussian 16:  ES64L-G16RevC.01  3-Jul-2019

 ----------------------------------------------------------------------
 # B3LYP/6-31G* empiricaldispersion=gd3 guess=read geom=check nosymm in
 tegral(ultrafinegrid)
 ----------------------------------------------------------------------

 ------------------------------------------------------
 Candidate Structure: Conf:797 Charge calc in gas phase
 ------------------------------------------------------
 Structure from the checkpoint file:  "conf-797.chk"
 Charge =  1 Multiplicity = 1

                          Input orientation:
 ---------------------------------------------------------------------
 Center     Atomic      Atomic             Coordinates (Angstroms)
 Number     Number       Type             X           Y           Z
 ---------------------------------------------------------------------
      1          7           0       -5.747647    0.288504    5.122275
      2          1           0       -4.802233    0.208711    5.481234
      3          1           0       -6.018912   -0.529810    4.589544
      4          6           0       -6.091382    1.558863    4.541612
      5          1           0       -7.106155    1.469538    4.129589
      6          6           0       -5.200727    1.988744    3.352125
      7          6           0       -6.158453    2.660871    5.641104
      8          1           0       -6.613767    2.188711    6.512846
      9          1           0       -5.154023    3.007218    5.912227
     10          8           0       -5.211476    3.187038    2.829040
     11          6           0       -7.079199    3.790114    5.188972
     12          7           0       -6.413959    4.894601    4.608545
     13          1           0       -5.588636    5.234600    5.098633
     14          1           0       -7.052020    5.649501    4.360138
     15          8           0       -8.280435    3.671516    5.143801
     16          7           0       -4.426052    1.106611    2.802382
     17          1           0       -4.405512    0.146229    3.164263
     18          6           0       -3.521913    1.280484    1.658135
     19          1           0       -4.049929    1.848487    0.887880
     20          6           0       -3.258064   -0.173163    1.204309
     21          6           0       -2.232238    2.044120    2.095832
     22          1           0       -2.603191    2.974756    2.547269
     23          8           0       -3.463309   -1.095378    1.994982
     24          6           0       -1.329823    2.430184    0.907894
     25          1           0       -0.877673    1.520506    0.502243
     26          1           0       -0.495472    3.006983    1.325582
     27          6           0       -1.436256    1.251386    3.143164
     28          1           0       -1.017333    0.339653    2.706181
     29          1           0       -0.605971    1.860123    3.514512
     30          1           0       -2.050548    0.969085    4.006231
     31          6           0       -1.989646    3.263103   -0.198532
     32          1           0       -1.244076    3.595978   -0.927935
     33          1           0       -2.754709    2.707463   -0.759717
     34          1           0       -2.480341    4.153054    0.213957
     35          7           0       -2.839138   -0.337581   -0.066627
     36          1           0       -2.586448    0.489866   -0.592614
     37          6           0       -2.299161   -1.607120   -0.543584
     38          1           0       -2.731945   -2.381404    0.097474
     39          6           0       -0.768761   -1.607286   -0.298721
     40          6           0       -2.710381   -1.841435   -2.002360
     41          1           0       -2.444371   -2.848283   -2.337821
     42          1           0       -3.794554   -1.742122   -2.100350
     43          1           0       -2.231215   -1.120153   -2.674272
     44          8           0       -0.263603   -0.822567    0.513875
     45          7           0       -0.043966   -2.495638   -1.003662
     46          1           0       -0.447837   -3.052204   -1.749485
     47          6           0        1.418379   -2.579478   -0.941662
     48          1           0        1.728721   -2.426824    0.096941
     49          6           0        2.002254   -1.459446   -1.833486
     50          6           0        1.844328   -3.970302   -1.455391
     51          1           0        2.937530   -3.958849   -1.561574
     52          8           0        2.514549   -1.694223   -2.936062
     53          6           0        1.428263   -5.096059   -0.520196
     54          1           0        1.902679   -4.983733    0.460385
     55          1           0        1.728824   -6.055190   -0.949630
     56          1           0        0.342160   -5.108966   -0.381849
     57          8           0        1.223701   -4.197798   -2.720089
     58          1           0        1.651869   -3.569888   -3.332697
     59          7           0        1.841688   -0.215192   -1.340475
     60          1           0        1.379033   -0.127490   -0.438401
     61          6           0        1.994417    0.985885   -2.162301
     62          1           0        1.756499    0.720712   -3.197866
     63          6           0        3.443723    1.498510   -2.083122
     64          6           0        1.004382    2.050253   -1.676621
     65          1           0        1.301752    2.372045   -0.666591
     66          1           0        0.017296    1.578854   -1.608620
     67          8           0        3.750135    2.474376   -1.408107
     68          8           0        0.870233    3.127303   -2.566874
     69          1           0        1.717394    3.607646   -2.629192
     70          7           0        4.333918    0.786977   -2.829927
     71          1           0        4.014047   -0.088971   -3.232822
     72          6           0        5.761762    1.063380   -2.731612
     73          1           0        6.114090    0.977003   -1.699276
     74          1           0        6.295810    0.328338   -3.340368
     75          6           0        6.172034    2.470537   -3.192893
     76          8           0        7.210259    2.971502   -2.789864
     77          7           0        5.336402    3.061801   -4.096936
     78          1           0        4.430589    2.635560   -4.241537
     79          6           0        5.420683    4.483137   -4.364582
     80          1           0        6.205648    4.887497   -3.716853
     81          6           0        4.099828    5.130557   -3.978572
     82          6           0        5.780310    4.801198   -5.834122
     83          1           0        4.976906    4.431135   -6.487285
     84          1           0        5.811082    5.891231   -5.951951
     85          8           0        3.065969    4.530913   -3.748378
     86          6           0        7.115994    4.174491   -6.243088
     87          1           0        7.900065    4.502053   -5.546368
     88          1           0        7.058880    3.085758   -6.151161
     89          6           0        7.521024    4.532986   -7.676512
     90          1           0        7.685163    5.616140   -7.762977
     91          1           0        6.696439    4.292895   -8.366210
     92          6           0        8.784662    3.799642   -8.141999
     93          1           0        9.119135    4.232440   -9.101822
     94          1           0        9.590648    3.979563   -7.418835
     95          7           0        8.552159    2.348956   -8.196509
     96          1           0        9.427791    1.864930   -8.386902
     97          1           0        7.937709    2.136142   -8.982135
     98          8           0        4.184156    6.472018   -3.961842
     99          1           0        3.296860    6.815097   -3.743697
    100          1           0       -5.727988    3.876514    3.354457
 ---------------------------------------------------------------------

 SCF Done:  E(RB3LYP) =  -2418.55065166     A.U. after    2 cycles

 Alpha  occ. eigenvalues --  -19.35638 -19.26832 -19.26326 -19.24618 -19.22689
 Alpha  occ. eigenvalues --  -19.21971 -19.21563 -19.21072 -19.20270 -19.18598
 Alpha  occ. eigenvalues --  -19.15727 -14.54007 -14.50995 -14.48472 -14.46715
 Alpha  occ. eigenvalues --  -14.46524 -14.44892 -14.42745 -14.40308 -14.34662
 Alpha  occ. eigenvalues --  -10.47828 -10.43874 -10.41706 -10.39804 -10.39699
 Alpha  occ. eigenvalues --  -10.38737 -10.38084 -10.37229 -10.35377 -10.34803
 Alpha  occ. eigenvalues --  -10.34277 -10.33390 -10.32469 -10.32119 -10.31378
 Alpha  occ. eigenvalues --  -10.30658 -10.30611 -10.29293 -10.28714 -10.28479
 Alpha  occ. eigenvalues --  -10.28088 -10.27503 -10.27138 -10.25012 -10.24052
 Alpha  occ. eigenvalues --  -10.23512 -10.21634 -10.21206  -1.25878  -1.18685
 Alpha  occ. eigenvalues --   -1.17401  -1.16925  -1.14548  -1.13022  -1.11431
 Alpha  occ. eigenvalues --   -1.10600  -1.09510  -1.08492  -1.07960  -1.07599
 Alpha  occ. eigenvalues --   -1.05256  -1.04993  -1.04183  -1.02910  -1.01292
 Alpha  occ. eigenvalues --   -0.99019  -0.97083  -0.93845  -0.91295  -0.91269
 Alpha  occ. eigenvalues --   -0.89185  -0.87165  -0.85836  -0.84645  -0.83704
 Alpha  occ. eigenvalues --   -0.82732  -0.80793  -0.80284  -0.79739  -0.79194
 Alpha  occ. eigenvalues --   -0.78049  -0.76325  -0.73630  -0.73597  -0.72973
 Alpha  occ. eigenvalues --   -0.72051  -0.71724  -0.70653  -0.70034  -0.69006
 Alpha  occ. eigenvalues --   -0.68545  -0.67877  -0.67795  -0.67425  -0.66674
 Alpha  occ. eigenvalues --   -0.65658  -0.65158  -0.64480  -0.64115  -0.63181
 Alpha  occ. eigenvalues --   -0.62722  -0.61852  -0.61430  -0.61297  -0.60825
 Alpha  occ. eigenvalues --   -0.59853  -0.59521  -0.59207  -0.58693  -0.58351
 Alpha  occ. eigenvalues --   -0.58066  -0.57613  -0.57214  -0.56569  -0.56348
 Alpha  occ. eigenvalues --   -0.55540  -0.55113  -0.54598  -0.54463  -0.54322
 Alpha  occ. eigenvalues --   -0.53660  -0.53560  -0.53172  -0.53054  -0.52780
 Alpha  occ. eigenvalues --   -0.52466  -0.52184  -0.51750  -0.51466  -0.50997
 Alpha  occ. eigenvalues --   -0.50788  -0.50568  -0.50326  -0.50214  -0.50009
 Alpha  occ. eigenvalues --   -0.49823  -0.49402  -0.49097  -0.49042  -0.48785
 Alpha  occ. eigenvalues --   -0.47958  -0.47452  -0.47349  -0.47267  -0.46999
 Alpha  occ. eigenvalues --   -0.46692  -0.46361  -0.46135  -0.46014  -0.45847
 Alpha  occ. eigenvalues --   -0.45294  -0.45011  -0.44879  -0.44246  -0.44048
 Alpha  occ. eigenvalues --   -0.43768  -0.43530  -0.42922  -0.42805  -0.42300
 Alpha  occ. eigenvalues --   -0.41161  -0.41080  -0.40766  -0.39838  -0.39698
 Alpha  occ. eigenvalues --   -0.39174  -0.38848  -0.38559  -0.38442  -0.38176
 Alpha  occ. eigenvalues --   -0.38070  -0.37673  -0.36714  -0.36477  -0.36418
 Alpha  occ. eigenvalues --   -0.35999  -0.35478  -0.34337  -0.33918  -0.33306
 Alpha  occ. eigenvalues --   -0.33190  -0.31346  -0.30148  -0.29220  -0.26803
 Alpha virt. eigenvalues --   -0.17087  -0.13587  -0.10497  -0.09249  -0.07165
 Alpha virt. eigenvalues --   -0.06747  -0.06057  -0.05727  -0.05020  -0.04729
 Alpha virt. eigenvalues --   -0.02588  -0.02121  -0.01875  -0.01349  -0.00385

 Mulliken charges:
               1
     1  N   -0.727448
     2  H    0.336150
     3  H    0.350523
     4  C   -0.064436
     5  H    0.235475
     6  C    0.599354
     7  C   -0.357631
     8  H    0.244173
     9  H    0.167314
    10  O   -0.576677
    11  C    0.525417
    12  N   -0.789831
    13  H    0.368068
    14  H    0.379345
    15  O   -0.403320
    16  N   -0.549111
    17  H    0.378158
    18  C   -0.087026
    19  H    0.201563
    20  C    0.651318
    21  C   -0.081342
    22  H    0.144288
    23  O   -0.538189
    24  C   -0.300468
    25  H    0.175289
    26  H    0.166246
    27  C   -0.478457
    28  H    0.207480
    29  H    0.170571
    30  H    0.122056
    31  C   -0.489336
    32  H    0.213773
    33  H    0.124383
    34  H    0.152835
    35  N   -0.590383
    36  H    0.355149
    37  C   -0.084934
    38  H    0.223678
    39  C    0.640953
    40  C   -0.483012
    41  H    0.181532
    42  H    0.187059
    43  H    0.170990
    44  O   -0.543228
    45  N   -0.602571
    46  H    0.361860
    47  C   -0.080203
    48  H    0.189346
    49  C    0.629177
    50  C    0.107344
    51  H    0.156317
    52  O   -0.554947
    53  C   -0.449451
    54  H    0.154076
    55  H    0.182279
    56  H    0.148588
    57  O   -0.644697
    58  H    0.422004
    59  N   -0.614164
    60  H    0.378104
    61  C   -0.089550
    62  H    0.184064
    63  C    0.616099
    64  C   -0.030972
    65  H    0.147287
    66  H    0.114006
    67  O   -0.512186
    68  O   -0.649853
    69  H    0.445344
    70  N   -0.630452
    71  H    0.367031
    72  C   -0.222764
    73  H    0.199111
    74  H    0.189040
    75  C    0.615916
    76  O   -0.507564
    77  N   -0.578912
    78  H    0.338415
    79  C   -0.059458
    80  H    0.211098
    81  C    0.600563
    82  C   -0.267296
    83  H    0.133566
    84  H    0.156781
    85  O   -0.494165
    86  C   -0.251007
    87  H    0.145373
    88  H    0.173197
    89  C   -0.255130
    90  H    0.131623
    91  H    0.121603
    92  C   -0.141889
    93  H    0.119030
    94  H    0.144203
    95  N   -0.714891
    96  H    0.300974
    97  H    0.291485
    98  O   -0.549712
    99  H    0.416863
   100  H    0.481759
 Sum of Mulliken charges =   1.00000

 Dipole moment (field-independent basis, Debye):
    X=            -17.4023    Y=              8.4114    Z=              8.0575  Tot=             20.9408
 Quadrupole moment (field-independent basis, Debye-Ang):
   XX=           -198.3236   YY=           -213.9377   ZZ=           -178.3013
   XY=            -56.3464   XZ=            -94.3324   YZ=             32.7449

 Normal termination of Gaussian 16 at Mon Jun  6 03:38:38 2022.
