 Gaussian 16, Revision C.01,
 Gaussian 16:  ES64L-G16RevC.01  3-Jul-2019

 ----------------------------------------------------------------------
 # B3LYP/6-31G* empiricaldispersion=gd3 guess=read geom=check nosymm in
 tegral(ultrafinegrid)
 ----------------------------------------------------------------------

 ------------------------------------------------------
 Candidate Structure: Conf:746 Charge calc in gas phase
 ------------------------------------------------------
 Structure from the checkpoint file:  "conf-746.chk"
 Charge =  1 Multiplicity = 1

                          Input orientation:
 ---------------------------------------------------------------------
 Center     Atomic      Atomic             Coordinates (Angstroms)
 Number     Number       Type             X           Y           Z
 ---------------------------------------------------------------------
      1          7           0       -8.051216    0.299528    2.186337
      2          1           0       -8.969020   -0.120537    2.319441
      3          1           0       -7.947335    0.500125    1.192413
      4          6           0       -6.997116   -0.613471    2.610849
      5          1           0       -7.117815   -0.770419    3.691539
      6          6           0       -5.662021    0.077105    2.336902
      7          6           0       -6.982634   -1.984801    1.878436
      8          1           0       -7.864332   -2.561754    2.188467
      9          1           0       -7.063078   -1.812893    0.802558
     10          8           0       -5.232241    0.217695    1.198318
     11          6           0       -5.751264   -2.865901    2.062205
     12          7           0       -5.082878   -2.777774    3.317494
     13          1           0       -5.668557   -2.554956    4.118193
     14          1           0       -3.729580   -1.550845    2.978998
     15          8           0       -5.304097   -3.576371    1.192366
     16          7           0       -4.901182    0.419250    3.423983
     17          1           0       -5.317929    0.476565    4.343226
     18          6           0       -3.593315    1.010333    3.209339
     19          1           0       -3.693867    1.916646    2.603883
     20          6           0       -2.741762    0.033011    2.415861
     21          6           0       -2.904921    1.353677    4.566937
     22          1           0       -3.652953    1.954689    5.105288
     23          8           0       -2.888304   -1.258079    2.516373
     24          6           0       -1.645880    2.230739    4.404188
     25          1           0       -0.854204    1.658240    3.904037
     26          1           0       -1.270576    2.424445    5.416122
     27          6           0       -2.582350    0.093584    5.387817
     28          1           0       -1.762179   -0.472796    4.930699
     29          1           0       -2.269334    0.377418    6.396869
     30          1           0       -3.446138   -0.575041    5.487236
     31          6           0       -1.857739    3.571100    3.690884
     32          1           0       -0.949010    4.177127    3.748752
     33          1           0       -2.089060    3.460472    2.624597
     34          1           0       -2.673081    4.142405    4.150009
     35          7           0       -1.761161    0.486700    1.699853
     36          1           0       -1.586612    1.496099    1.612703
     37          6           0       -0.697263   -0.293023    1.058669
     38          1           0       -0.298565   -0.974118    1.816115
     39          6           0        0.358881    0.777295    0.700410
     40          6           0       -1.200976   -1.064826   -0.168640
     41          1           0       -0.382477   -1.640500   -0.610639
     42          1           0       -1.994072   -1.759239    0.119112
     43          1           0       -1.589972   -0.377170   -0.925342
     44          8           0        0.094751    1.974548    0.863897
     45          7           0        1.519241    0.317851    0.213415
     46          1           0        1.677681   -0.673129    0.067835
     47          6           0        2.575271    1.191941   -0.270299
     48          1           0        2.123963    2.151312   -0.541347
     49          6           0        3.213400    0.511935   -1.480600
     50          6           0        3.689520    1.441824    0.805169
     51          1           0        4.372643    2.191182    0.377092
     52          8           0        3.115849   -0.703747   -1.661805
     53          6           0        3.106773    1.974011    2.107913
     54          1           0        2.484614    2.857545    1.939547
     55          1           0        3.923405    2.222847    2.790717
     56          1           0        2.493498    1.200724    2.581783
     57          8           0        4.388273    0.247569    1.091698
     58          1           0        5.109787    0.149535    0.437314
     59          7           0        3.951182    1.312618   -2.292017
     60          1           0        4.197604    2.241943   -1.968052
     61          6           0        4.956893    0.692372   -3.136880
     62          1           0        4.459816   -0.019453   -3.804242
     63          6           0        5.958527   -0.067647   -2.234994
     64          6           0        5.641430    1.767349   -3.984675
     65          1           0        4.909876    2.167223   -4.702912
     66          1           0        6.464601    1.305949   -4.549984
     67          8           0        6.191128    0.292209   -1.082748
     68          8           0        6.101730    2.769056   -3.090645
     69          1           0        6.494174    3.492028   -3.602758
     70          7           0        6.534779   -1.158577   -2.792475
     71          1           0        6.221409   -1.471136   -3.701492
     72          6           0        7.428457   -2.023106   -2.032339
     73          1           0        8.033451   -2.612269   -2.724194
     74          1           0        8.104022   -1.396054   -1.444883
     75          6           0        6.767855   -2.998581   -1.043213
     76          8           0        7.466704   -3.821954   -0.468605
     77          7           0        5.436291   -2.858390   -0.815657
     78          1           0        4.869576   -2.218554   -1.357004
     79          6           0        4.772476   -3.693701    0.166824
     80          1           0        5.445161   -3.806997    1.022797
     81          6           0        4.496513   -5.116107   -0.318314
     82          6           0        3.466127   -3.013524    0.620035
     83          1           0        3.696896   -1.952949    0.763187
     84          1           0        2.732690   -3.071586   -0.197588
     85          8           0        4.190861   -6.025046    0.421848
     86          6           0        2.864545   -3.567473    1.914104
     87          1           0        2.667859   -4.640836    1.823845
     88          1           0        3.593939   -3.448944    2.726869
     89          6           0        1.579970   -2.810130    2.262146
     90          1           0        0.831364   -3.002609    1.475253
     91          1           0        1.783122   -1.730313    2.257542
     92          6           0        0.980062   -3.175743    3.617696
     93          1           0        0.881810   -4.270921    3.696003
     94          1           0        1.666513   -2.861358    4.412313
     95          7           0       -0.300426   -2.464463    3.821571
     96          1           0       -0.630380   -2.633118    4.771647
     97          1           0       -1.009926   -2.870756    3.211571
     98          8           0        4.569005   -5.249529   -1.661909
     99          1           0        4.375816   -6.188075   -1.848246
    100          1           0       -4.527605   -3.615661    3.484069
 ---------------------------------------------------------------------

 SCF Done:  E(RB3LYP) =  -2418.56487909     A.U. after    2 cycles

 Alpha  occ. eigenvalues --  -19.33624 -19.25229 -19.24337 -19.24204 -19.24009
 Alpha  occ. eigenvalues --  -19.22984 -19.21939 -19.20884 -19.20822 -19.19211
 Alpha  occ. eigenvalues --  -19.16626 -14.51691 -14.49423 -14.48654 -14.46549
 Alpha  occ. eigenvalues --  -14.45651 -14.45366 -14.42437 -14.41641 -14.40902
 Alpha  occ. eigenvalues --  -10.46000 -10.41221 -10.41041 -10.39969 -10.38543
 Alpha  occ. eigenvalues --  -10.37942 -10.37489 -10.37318 -10.35324 -10.34803
 Alpha  occ. eigenvalues --  -10.34440 -10.33505 -10.32960 -10.32392 -10.32376
 Alpha  occ. eigenvalues --  -10.32187 -10.30665 -10.30006 -10.29481 -10.29011
 Alpha  occ. eigenvalues --  -10.28989 -10.28963 -10.28735 -10.27305 -10.25952
 Alpha  occ. eigenvalues --  -10.25119 -10.24647 -10.24604  -1.24101  -1.16578
 Alpha  occ. eigenvalues --   -1.15993  -1.15855  -1.15190  -1.14130  -1.12567
 Alpha  occ. eigenvalues --   -1.11495  -1.09251  -1.08900  -1.08757  -1.06879
 Alpha  occ. eigenvalues --   -1.05866  -1.03011  -1.02659  -1.02036  -1.01497
 Alpha  occ. eigenvalues --   -1.00097  -0.98230  -0.96863  -0.93793  -0.90494
 Alpha  occ. eigenvalues --   -0.87650  -0.87396  -0.86951  -0.85416  -0.84473
 Alpha  occ. eigenvalues --   -0.83013  -0.82607  -0.80278  -0.80041  -0.79599
 Alpha  occ. eigenvalues --   -0.77646  -0.75757  -0.75575  -0.74395  -0.73026
 Alpha  occ. eigenvalues --   -0.72528  -0.70596  -0.69877  -0.69765  -0.69187
 Alpha  occ. eigenvalues --   -0.68479  -0.67900  -0.67565  -0.67344  -0.66408
 Alpha  occ. eigenvalues --   -0.66093  -0.65601  -0.65194  -0.64429  -0.63944
 Alpha  occ. eigenvalues --   -0.63643  -0.62881  -0.62035  -0.61144  -0.60348
 Alpha  occ. eigenvalues --   -0.59802  -0.59371  -0.58859  -0.58331  -0.57788
 Alpha  occ. eigenvalues --   -0.57395  -0.57318  -0.56822  -0.56586  -0.55858
 Alpha  occ. eigenvalues --   -0.55612  -0.55410  -0.55237  -0.54869  -0.54671
 Alpha  occ. eigenvalues --   -0.54072  -0.53825  -0.53706  -0.53281  -0.53013
 Alpha  occ. eigenvalues --   -0.52636  -0.52497  -0.52132  -0.52035  -0.51552
 Alpha  occ. eigenvalues --   -0.51401  -0.51255  -0.50920  -0.50819  -0.50774
 Alpha  occ. eigenvalues --   -0.49693  -0.49681  -0.49356  -0.49228  -0.49112
 Alpha  occ. eigenvalues --   -0.48712  -0.48077  -0.47827  -0.47792  -0.47396
 Alpha  occ. eigenvalues --   -0.47199  -0.47116  -0.46800  -0.46428  -0.46424
 Alpha  occ. eigenvalues --   -0.45909  -0.45756  -0.45421  -0.45087  -0.44420
 Alpha  occ. eigenvalues --   -0.43932  -0.43764  -0.43719  -0.43662  -0.43387
 Alpha  occ. eigenvalues --   -0.42602  -0.42257  -0.41797  -0.41394  -0.40714
 Alpha  occ. eigenvalues --   -0.40328  -0.40226  -0.39626  -0.39152  -0.38454
 Alpha  occ. eigenvalues --   -0.37539  -0.37238  -0.37119  -0.36952  -0.36790
 Alpha  occ. eigenvalues --   -0.36371  -0.36107  -0.35593  -0.34172  -0.34083
 Alpha  occ. eigenvalues --   -0.33901  -0.33190  -0.33118  -0.30269  -0.30182
 Alpha virt. eigenvalues --   -0.14670  -0.11130  -0.10280  -0.08688  -0.08093
 Alpha virt. eigenvalues --   -0.07152  -0.07016  -0.04502  -0.03572  -0.03022
 Alpha virt. eigenvalues --   -0.02806  -0.01940  -0.01889  -0.01641  -0.01085

 Mulliken charges:
               1
     1  N   -0.707178
     2  H    0.323134
     3  H    0.329609
     4  C   -0.073481
     5  H    0.133242
     6  C    0.634187
     7  C   -0.373749
     8  H    0.190425
     9  H    0.213464
    10  O   -0.506096
    11  C    0.553365
    12  N   -0.811077
    13  H    0.344467
    14  H    0.503602
    15  O   -0.423864
    16  N   -0.657524
    17  H    0.352414
    18  C   -0.021149
    19  H    0.208538
    20  C    0.684102
    21  C   -0.122962
    22  H    0.161118
    23  O   -0.602592
    24  C   -0.279413
    25  H    0.156520
    26  H    0.169088
    27  C   -0.498805
    28  H    0.192587
    29  H    0.182852
    30  H    0.126923
    31  C   -0.465778
    32  H    0.181713
    33  H    0.149133
    34  H    0.160784
    35  N   -0.586626
    36  H    0.409697
    37  C   -0.097534
    38  H    0.244503
    39  C    0.643115
    40  C   -0.462936
    41  H    0.180441
    42  H    0.196289
    43  H    0.183309
    44  O   -0.552471
    45  N   -0.607982
    46  H    0.377277
    47  C   -0.086685
    48  H    0.187495
    49  C    0.624730
    50  C    0.132487
    51  H    0.139414
    52  O   -0.547610
    53  C   -0.453163
    54  H    0.158692
    55  H    0.173129
    56  H    0.151130
    57  O   -0.648186
    58  H    0.453788
    59  N   -0.589515
    60  H    0.363411
    61  C   -0.078832
    62  H    0.181088
    63  C    0.628314
    64  C   -0.047668
    65  H    0.158531
    66  H    0.153533
    67  O   -0.538941
    68  O   -0.615955
    69  H    0.417720
    70  N   -0.599569
    71  H    0.346010
    72  C   -0.235750
    73  H    0.195005
    74  H    0.222473
    75  C    0.619412
    76  O   -0.509291
    77  N   -0.634781
    78  H    0.363624
    79  C   -0.016351
    80  H    0.202954
    81  C    0.601324
    82  C   -0.344666
    83  H    0.196529
    84  H    0.137522
    85  O   -0.463578
    86  C   -0.266110
    87  H    0.174661
    88  H    0.148998
    89  C   -0.279630
    90  H    0.116390
    91  H    0.146004
    92  C   -0.142820
    93  H    0.139476
    94  H    0.158862
    95  N   -0.744046
    96  H    0.304863
    97  H    0.299851
    98  O   -0.566157
    99  H    0.414625
   100  H    0.362577
 Sum of Mulliken charges =   1.00000

 Dipole moment (field-independent basis, Debye):
    X=            -10.5973    Y=              1.8288    Z=              6.2880  Tot=             12.4574
 Quadrupole moment (field-independent basis, Debye-Ang):
   XX=           -167.6384   YY=           -272.6740   ZZ=           -179.1458
   XY=             49.4033   XZ=           -120.9287   YZ=            -13.2708

 Normal termination of Gaussian 16 at Mon Jun  6 03:40:17 2022.
