 Gaussian 16, Revision C.01,
 Gaussian 16:  ES64L-G16RevC.01  3-Jul-2019

 ----------------------------------------------------------------------
 # B3LYP/6-31G* empiricaldispersion=gd3 guess=read geom=check nosymm in
 tegral(ultrafinegrid)
 ----------------------------------------------------------------------

 ------------------------------------------------------
 Candidate Structure: Conf:883 Charge calc in gas phase
 ------------------------------------------------------
 Structure from the checkpoint file:  "conf-883.chk"
 Charge =  1 Multiplicity = 1

                          Input orientation:
 ---------------------------------------------------------------------
 Center     Atomic      Atomic             Coordinates (Angstroms)
 Number     Number       Type             X           Y           Z
 ---------------------------------------------------------------------
      1          7           0       -7.335411    0.174216    5.134504
      2          1           0       -7.107856    1.185878    5.140285
      3          1           0       -7.177943   -0.263466    6.056297
      4          6           0       -6.335487   -0.395665    4.158884
      5          1           0       -5.785951   -1.163076    4.697460
      6          6           0       -5.422620    0.788418    3.767449
      7          6           0       -7.078871   -1.004801    2.966206
      8          1           0       -7.589657   -0.223671    2.386688
      9          1           0       -6.318590   -1.470201    2.319466
     10          8           0       -5.707789    1.893622    4.212360
     11          6           0       -8.122572   -2.052243    3.415722
     12          7           0       -9.296312   -1.813085    2.950209
     13          1           0       -7.364246   -0.511142    4.661201
     14          1           0       -9.997707   -2.514379    3.201228
     15          8           0       -7.961748   -2.889382    4.274055
     16          7           0       -4.394287    0.499345    2.963283
     17          1           0       -4.218362   -0.441603    2.606738
     18          6           0       -3.443598    1.492117    2.450605
     19          1           0       -4.000355    2.382590    2.150091
     20          6           0       -2.816105    0.802687    1.204367
     21          6           0       -2.418550    1.871259    3.578182
     22          1           0       -3.058389    2.129934    4.434687
     23          8           0       -2.900815   -0.421956    1.027681
     24          6           0       -1.544686    3.097987    3.288544
     25          1           0       -0.779570    2.841867    2.547881
     26          1           0       -0.988780    3.295363    4.214549
     27          6           0       -1.534010    0.673281    3.951686
     28          1           0       -0.840225    0.445292    3.146478
     29          1           0       -0.944417    0.903739    4.845302
     30          1           0       -2.122492   -0.229824    4.162490
     31          6           0       -2.287496    4.373334    2.884633
     32          1           0       -1.604211    5.227325    2.872079
     33          1           0       -2.733343    4.309742    1.888198
     34          1           0       -3.096699    4.595529    3.591118
     35          7           0       -2.152267    1.595878    0.348028
     36          1           0       -2.044325    2.564940    0.592216
     37          6           0       -1.197354    1.071630   -0.646279
     38          1           0       -1.697460    0.241654   -1.153768
     39          6           0        0.058700    0.584649    0.091343
     40          6           0       -0.804322    2.170290   -1.628756
     41          1           0       -0.052282    1.797060   -2.330978
     42          1           0       -1.681592    2.519462   -2.182317
     43          1           0       -0.352422    3.012741   -1.093349
     44          8           0        0.851769    1.406254    0.564539
     45          7           0        0.210792   -0.757723    0.234875
     46          1           0       -0.453981   -1.418479   -0.149941
     47          6           0        1.368030   -1.336189    0.901914
     48          1           0        1.624127   -0.693935    1.744752
     49          6           0        2.499931   -1.318485   -0.137656
     50          6           0        1.038409   -2.760113    1.381623
     51          1           0        1.980952   -3.214447    1.733009
     52          8           0        2.842749   -2.324721   -0.782146
     53          6           0        0.018449   -2.770502    2.504578
     54          1           0        0.402818   -2.235664    3.383582
     55          1           0       -0.199961   -3.803612    2.790135
     56          1           0       -0.908014   -2.293156    2.171727
     57          8           0        0.493568   -3.501819    0.299144
     58          1           0        1.224405   -3.553782   -0.355634
     59          7           0        2.993844   -0.047072   -0.328677
     60          1           0        2.541469    0.673742    0.238967
     61          6           0        3.709044    0.417482   -1.550738
     62          1           0        3.370247   -0.196285   -2.393297
     63          6           0        5.234884    0.238133   -1.414057
     64          6           0        3.316461    1.878012   -1.829018
     65          1           0        3.758897    2.166224   -2.780764
     66          1           0        3.737040    2.534971   -1.056526
     67          8           0        6.007973    1.189815   -1.398993
     68          8           0        1.886885    2.004448   -1.951783
     69          1           0        1.458305    2.048157   -1.077907
     70          7           0        5.662145   -1.062415   -1.353626
     71          1           0        4.965627   -1.801117   -1.321834
     72          6           0        7.090337   -1.354675   -1.304700
     73          1           0        7.546265   -0.874185   -0.434570
     74          1           0        7.216776   -2.438495   -1.216058
     75          6           0        7.904757   -0.863689   -2.521471
     76          8           0        9.076388   -0.541106   -2.393695
     77          7           0        7.239412   -0.874413   -3.730979
     78          1           0        6.235197   -1.015621   -3.685321
     79          6           0        7.654197   -0.009031   -4.822770
     80          1           0        8.608797    0.439753   -4.539021
     81          6           0        6.596803    1.076877   -4.963454
     82          6           0        7.813967   -0.788446   -6.148339
     83          1           0        8.474540   -1.631819   -5.918167
     84          1           0        6.839281   -1.216820   -6.425706
     85          8           0        5.418175    0.892389   -4.716928
     86          6           0        8.377362    0.036017   -7.316291
     87          1           0        7.727315    0.898762   -7.506187
     88          1           0        9.352897    0.451929   -7.025304
     89          6           0        8.523612   -0.769306   -8.617092
     90          1           0        8.815081   -0.080562   -9.424217
     91          1           0        7.555313   -1.196044   -8.912098
     92          6           0        9.556146   -1.899956   -8.548300
     93          1           0       10.517054   -1.484398   -8.186214
     94          1           0        9.242208   -2.646740   -7.807701
     95          7           0        9.645734   -2.582789   -9.844969
     96          1           0       10.303389   -3.360476   -9.784340
     97          1           0       10.032746   -1.942827  -10.540511
     98          8           0        7.087535    2.244716   -5.424026
     99          1           0        6.332334    2.865142   -5.503879
    100          1           0       -9.404636   -1.265958    2.096660
 ---------------------------------------------------------------------

 SCF Done:  E(RB3LYP) =  -2418.32419851     A.U. after    1 cycles

 Alpha  occ. eigenvalues --  -19.29764 -19.25709 -19.24964 -19.24592 -19.23300
 Alpha  occ. eigenvalues --  -19.21765 -19.21187 -19.20211 -19.19240 -19.16936
 Alpha  occ. eigenvalues --  -19.15011 -14.58410 -14.52126 -14.50414 -14.48393
 Alpha  occ. eigenvalues --  -14.47014 -14.43422 -14.41309 -14.39240 -14.33805
 Alpha  occ. eigenvalues --  -10.46837 -10.45703 -10.43608 -10.41613 -10.39897
 Alpha  occ. eigenvalues --  -10.38481 -10.37579 -10.36996 -10.36911 -10.34275
 Alpha  occ. eigenvalues --  -10.34073 -10.32562 -10.32234 -10.32147 -10.31216
 Alpha  occ. eigenvalues --  -10.29563 -10.29135 -10.28496 -10.28066 -10.27600
 Alpha  occ. eigenvalues --  -10.27519 -10.27486 -10.26686 -10.25642 -10.23403
 Alpha  occ. eigenvalues --  -10.22822 -10.21792 -10.21039  -1.27779  -1.21182
 Alpha  occ. eigenvalues --   -1.19577  -1.16396  -1.15572  -1.15319  -1.11933
 Alpha  occ. eigenvalues --   -1.09349  -1.08755  -1.08672  -1.07188  -1.06908
 Alpha  occ. eigenvalues --   -1.06816  -1.06433  -1.04723  -1.03016  -0.99159
 Alpha  occ. eigenvalues --   -0.97341  -0.97270  -0.95732  -0.92991  -0.90415
 Alpha  occ. eigenvalues --   -0.88679  -0.87201  -0.85906  -0.85584  -0.83931
 Alpha  occ. eigenvalues --   -0.83538  -0.83010  -0.81659  -0.79605  -0.79000
 Alpha  occ. eigenvalues --   -0.76583  -0.76159  -0.75278  -0.75093  -0.74158
 Alpha  occ. eigenvalues --   -0.73164  -0.72058  -0.71808  -0.70601  -0.69945
 Alpha  occ. eigenvalues --   -0.69233  -0.68223  -0.67845  -0.67487  -0.67404
 Alpha  occ. eigenvalues --   -0.66400  -0.64661  -0.64222  -0.63333  -0.63148
 Alpha  occ. eigenvalues --   -0.62251  -0.61791  -0.61515  -0.61392  -0.60254
 Alpha  occ. eigenvalues --   -0.60208  -0.59835  -0.59367  -0.59021  -0.58599
 Alpha  occ. eigenvalues --   -0.58108  -0.57110  -0.56758  -0.56704  -0.56131
 Alpha  occ. eigenvalues --   -0.55888  -0.55385  -0.54620  -0.53955  -0.53844
 Alpha  occ. eigenvalues --   -0.53825  -0.53312  -0.53134  -0.53036  -0.52686
 Alpha  occ. eigenvalues --   -0.52269  -0.51983  -0.51896  -0.51388  -0.50940
 Alpha  occ. eigenvalues --   -0.50466  -0.50387  -0.50201  -0.49895  -0.49096
 Alpha  occ. eigenvalues --   -0.48748  -0.48491  -0.47945  -0.47673  -0.47461
 Alpha  occ. eigenvalues --   -0.47423  -0.46825  -0.46515  -0.46463  -0.46369
 Alpha  occ. eigenvalues --   -0.46271  -0.46241  -0.45659  -0.45364  -0.45298
 Alpha  occ. eigenvalues --   -0.44779  -0.44626  -0.44267  -0.44159  -0.43603
 Alpha  occ. eigenvalues --   -0.43503  -0.42996  -0.42596  -0.41700  -0.41692
 Alpha  occ. eigenvalues --   -0.41133  -0.40879  -0.40585  -0.40070  -0.39898
 Alpha  occ. eigenvalues --   -0.39786  -0.39434  -0.38945  -0.38478  -0.37580
 Alpha  occ. eigenvalues --   -0.37316  -0.36597  -0.36121  -0.36060  -0.35201
 Alpha  occ. eigenvalues --   -0.35144  -0.34646  -0.33781  -0.33318  -0.33023
 Alpha  occ. eigenvalues --   -0.31743  -0.29727  -0.29284  -0.28065  -0.25995
 Alpha virt. eigenvalues --   -0.15405  -0.12480  -0.11772  -0.11034  -0.09570
 Alpha virt. eigenvalues --   -0.08358  -0.07625  -0.06683  -0.05902  -0.04468
 Alpha virt. eigenvalues --   -0.04455  -0.04021  -0.03424  -0.02189  -0.01439

 Mulliken charges:
               1
     1  N   -0.684847
     2  H    0.450666
     3  H    0.408206
     4  C   -0.291776
     5  H    0.274558
     6  C    0.677960
     7  C   -0.417523
     8  H    0.206404
     9  H    0.245332
    10  O   -0.515446
    11  C    0.573031
    12  N   -0.680830
    13  H    0.392185
    14  H    0.380944
    15  O   -0.484627
    16  N   -0.610719
    17  H    0.373283
    18  C   -0.077914
    19  H    0.197560
    20  C    0.626528
    21  C   -0.083544
    22  H    0.158809
    23  O   -0.546835
    24  C   -0.287260
    25  H    0.161116
    26  H    0.166027
    27  C   -0.472201
    28  H    0.175449
    29  H    0.172441
    30  H    0.136213
    31  C   -0.469993
    32  H    0.180859
    33  H    0.133285
    34  H    0.163936
    35  N   -0.593956
    36  H    0.356634
    37  C   -0.037425
    38  H    0.183530
    39  C    0.647071
    40  C   -0.529742
    41  H    0.244777
    42  H    0.169124
    43  H    0.169524
    44  O   -0.580076
    45  N   -0.583369
    46  H    0.368283
    47  C   -0.092392
    48  H    0.183225
    49  C    0.641091
    50  C    0.110394
    51  H    0.152715
    52  O   -0.554265
    53  C   -0.463982
    54  H    0.145370
    55  H    0.176000
    56  H    0.156030
    57  O   -0.643880
    58  H    0.423278
    59  N   -0.629076
    60  H    0.376183
    61  C   -0.075880
    62  H    0.188947
    63  C    0.634531
    64  C   -0.077252
    65  H    0.193040
    66  H    0.159642
    67  O   -0.514044
    68  O   -0.674001
    69  H    0.439876
    70  N   -0.633009
    71  H    0.360730
    72  C   -0.218815
    73  H    0.203018
    74  H    0.179246
    75  C    0.602399
    76  O   -0.496616
    77  N   -0.588915
    78  H    0.333764
    79  C   -0.049479
    80  H    0.203595
    81  C    0.603842
    82  C   -0.269971
    83  H    0.167950
    84  H    0.140951
    85  O   -0.492311
    86  C   -0.272118
    87  H    0.142451
    88  H    0.142034
    89  C   -0.250354
    90  H    0.128690
    91  H    0.145734
    92  C   -0.134468
    93  H    0.114794
    94  H    0.140847
    95  N   -0.717792
    96  H    0.297735
    97  H    0.292942
    98  O   -0.550369
    99  H    0.413620
   100  H    0.358670
 Sum of Mulliken charges =   1.00000

 Dipole moment (field-independent basis, Debye):
    X=            -29.7008    Y=              1.3054    Z=             14.9155  Tot=             33.2613
 Quadrupole moment (field-independent basis, Debye-Ang):
   XX=            -86.0177   YY=           -277.5626   ZZ=           -191.1335
   XY=             -4.8200   XZ=           -119.1873   YZ=             -3.9993

 Normal termination of Gaussian 16 at Mon Jun  6 03:50:49 2022.
