 Gaussian 16, Revision C.01,
 Gaussian 16:  ES64L-G16RevC.01  3-Jul-2019

 ----------------------------------------------------------------------
 # B3LYP/6-31G* empiricaldispersion=gd3 guess=read geom=check nosymm in
 tegral(ultrafinegrid)
 ----------------------------------------------------------------------

 ------------------------------------------------------
 Candidate Structure: Conf:121 Charge calc in gas phase
 ------------------------------------------------------
 Structure from the checkpoint file:  "conf-121.chk"
 Charge =  1 Multiplicity = 1

                          Input orientation:
 ---------------------------------------------------------------------
 Center     Atomic      Atomic             Coordinates (Angstroms)
 Number     Number       Type             X           Y           Z
 ---------------------------------------------------------------------
      1          7           0       -6.152339    4.169016    3.467453
      2          1           0       -6.111739    4.443003    4.452941
      3          1           0       -7.127149    4.321572    3.084629
      4          6           0       -5.829951    2.711997    3.271221
      5          1           0       -6.191298    2.163365    4.144462
      6          6           0       -4.291217    2.649881    3.120286
      7          6           0       -6.503147    2.196188    1.982814
      8          1           0       -6.054286    2.704789    1.118902
      9          1           0       -6.272244    1.131545    1.878981
     10          8           0       -3.700244    3.685244    2.807033
     11          6           0       -8.008307    2.474999    1.952500
     12          7           0       -8.793588    1.539628    1.398750
     13          1           0       -8.436241    0.673527    1.021289
     14          1           0       -5.403518    4.689339    2.969175
     15          8           0       -8.456704    3.540914    2.400603
     16          7           0       -3.751926    1.443670    3.300438
     17          1           0       -4.342559    0.622402    3.426413
     18          6           0       -2.387723    1.076603    2.911706
     19          1           0       -1.991100    1.876853    2.278391
     20          6           0       -2.578016   -0.226754    2.104651
     21          6           0       -1.464869    0.896377    4.152790
     22          1           0       -1.914348    0.103376    4.768893
     23          8           0       -3.556693   -0.949500    2.327126
     24          6           0       -1.434537    2.198405    4.981051
     25          1           0       -2.464338    2.513284    5.187040
     26          1           0       -0.986187    2.996729    4.373737
     27          6           0       -0.053294    0.453858    3.737308
     28          1           0        0.410462    1.191891    3.069430
     29          1           0        0.590529    0.357066    4.614499
     30          1           0       -0.050551   -0.513658    3.229454
     31          6           0       -0.691119    2.073559    6.316034
     32          1           0       -0.797539    2.993600    6.900214
     33          1           0       -1.092222    1.248041    6.916713
     34          1           0        0.380311    1.898646    6.179629
     35          7           0       -1.643827   -0.499433    1.181435
     36          1           0       -0.827866    0.092488    1.048541
     37          6           0       -1.610717   -1.746067    0.431188
     38          1           0       -1.856276   -2.570680    1.110465
     39          6           0       -0.172404   -1.886616   -0.092292
     40          6           0       -2.613587   -1.731079   -0.737668
     41          1           0       -2.623131   -2.688452   -1.268869
     42          1           0       -3.615697   -1.548973   -0.341715
     43          1           0       -2.353434   -0.943864   -1.452326
     44          8           0        0.596599   -0.927288   -0.077459
     45          7           0        0.160896   -3.108701   -0.589247
     46          1           0       -0.592568   -3.770685   -0.743253
     47          6           0        1.355590   -3.288249   -1.435216
     48          1           0        2.116660   -2.598007   -1.062544
     49          6           0        1.008210   -2.909073   -2.886595
     50          6           0        1.885865   -4.723047   -1.285795
     51          1           0        1.097497   -5.426380   -1.600980
     52          8           0        0.909520   -3.748765   -3.781263
     53          6           0        3.140131   -4.972651   -2.113013
     54          1           0        2.891526   -5.032037   -3.173174
     55          1           0        3.590045   -5.917493   -1.797150
     56          1           0        3.868174   -4.172135   -1.953785
     57          8           0        2.236609   -4.952043    0.079659
     58          1           0        1.516242   -4.621049    0.640333
     59          7           0        0.793624   -1.578892   -3.079214
     60          1           0        1.178311   -0.966775   -2.365297
     61          6           0        0.716791   -1.006802   -4.426479
     62          1           0        0.242378   -1.744288   -5.078591
     63          6           0        2.158723   -0.723027   -4.902306
     64          6           0       -0.110009    0.286091   -4.396037
     65          1           0        0.306057    0.954742   -3.624536
     66          1           0       -1.138449    0.039918   -4.110400
     67          8           0        2.579650    0.421204   -5.048577
     68          8           0       -0.157609    0.907226   -5.659685
     69          1           0        0.751384    1.214371   -5.828049
     70          7           0        2.940490   -1.833806   -5.070287
     71          1           0        2.511436   -2.722195   -4.833696
     72          6           0        4.361417   -1.712840   -4.836918
     73          1           0        4.871238   -2.617212   -5.183915
     74          1           0        4.745117   -0.865272   -5.412396
     75          6           0        4.655813   -1.463102   -3.335738
     76          8           0        3.749176   -1.310223   -2.516215
     77          7           0        5.968966   -1.408962   -3.024973
     78          1           0        6.670358   -1.539320   -3.746854
     79          6           0        6.489747   -0.977514   -1.731512
     80          1           0        6.165892    0.055326   -1.539600
     81          6           0        8.007290   -0.953366   -1.864615
     82          6           0        6.027507   -1.839188   -0.535587
     83          1           0        6.460222   -1.403007    0.371377
     84          1           0        4.942997   -1.723583   -0.469543
     85          8           0        8.619812   -1.278841   -2.859954
     86          6           0        6.384370   -3.324273   -0.635341
     87          1           0        6.099500   -3.699254   -1.627718
     88          1           0        7.472646   -3.460756   -0.557432
     89          6           0        5.667000   -4.140704    0.444662
     90          1           0        4.588464   -3.941020    0.383827
     91          1           0        5.983793   -3.817885    1.444689
     92          6           0        5.877969   -5.650984    0.317687
     93          1           0        5.726914   -5.942080   -0.739987
     94          1           0        6.919308   -5.902413    0.558779
     95          7           0        5.001708   -6.352872    1.260540
     96          1           0        5.155438   -7.357744    1.196387
     97          1           0        4.031732   -6.186181    0.991301
     98          8           0        8.596235   -0.520580   -0.735339
     99          1           0        9.559497   -0.533509   -0.892752
    100          1           0       -9.784799    1.730132    1.309197
 ---------------------------------------------------------------------

 SCF Done:  E(RB3LYP) =  -2418.57110554     A.U. after    3 cycles

 Alpha  occ. eigenvalues --  -19.27602 -19.26559 -19.26459 -19.22828 -19.22547
 Alpha  occ. eigenvalues --  -19.21888 -19.21030 -19.19724 -19.18729 -19.18412
 Alpha  occ. eigenvalues --  -19.18195 -14.58655 -14.50939 -14.49724 -14.46638
 Alpha  occ. eigenvalues --  -14.46635 -14.43145 -14.42458 -14.41551 -14.33771
 Alpha  occ. eigenvalues --  -10.45205 -10.43724 -10.41718 -10.39862 -10.39410
 Alpha  occ. eigenvalues --  -10.38927 -10.36792 -10.36552 -10.35452 -10.34868
 Alpha  occ. eigenvalues --  -10.34783 -10.34012 -10.31271 -10.30993 -10.30344
 Alpha  occ. eigenvalues --  -10.29664 -10.29254 -10.29176 -10.28990 -10.28186
 Alpha  occ. eigenvalues --  -10.27273 -10.26614 -10.25578 -10.23881 -10.23839
 Alpha  occ. eigenvalues --  -10.23309 -10.22835 -10.21451  -1.19596  -1.18679
 Alpha  occ. eigenvalues --   -1.17528  -1.15033  -1.14217  -1.13228  -1.11609
 Alpha  occ. eigenvalues --   -1.10475  -1.09538  -1.09302  -1.08587  -1.06475
 Alpha  occ. eigenvalues --   -1.06345  -1.05906  -1.03313  -1.02538  -0.99820
 Alpha  occ. eigenvalues --   -0.99075  -0.98029  -0.95025  -0.91383  -0.90707
 Alpha  occ. eigenvalues --   -0.88162  -0.85870  -0.85585  -0.84764  -0.82467
 Alpha  occ. eigenvalues --   -0.82357  -0.81092  -0.79912  -0.78276  -0.77630
 Alpha  occ. eigenvalues --   -0.75914  -0.75434  -0.73967  -0.73728  -0.73437
 Alpha  occ. eigenvalues --   -0.71880  -0.71658  -0.70583  -0.69655  -0.68779
 Alpha  occ. eigenvalues --   -0.68616  -0.67993  -0.67456  -0.67177  -0.66785
 Alpha  occ. eigenvalues --   -0.66088  -0.65296  -0.64366  -0.64175  -0.63478
 Alpha  occ. eigenvalues --   -0.62988  -0.62047  -0.61764  -0.60446  -0.59814
 Alpha  occ. eigenvalues --   -0.59221  -0.59002  -0.58775  -0.58627  -0.57706
 Alpha  occ. eigenvalues --   -0.57375  -0.56878  -0.56547  -0.55886  -0.55611
 Alpha  occ. eigenvalues --   -0.55509  -0.55421  -0.54508  -0.54408  -0.54078
 Alpha  occ. eigenvalues --   -0.53948  -0.53737  -0.53383  -0.52655  -0.52479
 Alpha  occ. eigenvalues --   -0.52003  -0.51686  -0.51563  -0.51223  -0.50852
 Alpha  occ. eigenvalues --   -0.50845  -0.50167  -0.49995  -0.49751  -0.49541
 Alpha  occ. eigenvalues --   -0.48925  -0.48362  -0.48150  -0.47954  -0.47440
 Alpha  occ. eigenvalues --   -0.47303  -0.47069  -0.46607  -0.46443  -0.46252
 Alpha  occ. eigenvalues --   -0.46095  -0.45893  -0.45691  -0.45431  -0.44953
 Alpha  occ. eigenvalues --   -0.44828  -0.44157  -0.43726  -0.43308  -0.43130
 Alpha  occ. eigenvalues --   -0.42733  -0.42199  -0.42061  -0.41947  -0.41858
 Alpha  occ. eigenvalues --   -0.41637  -0.41514  -0.40795  -0.40588  -0.39927
 Alpha  occ. eigenvalues --   -0.39199  -0.38720  -0.38642  -0.38139  -0.37897
 Alpha  occ. eigenvalues --   -0.37215  -0.36780  -0.36545  -0.36256  -0.35871
 Alpha  occ. eigenvalues --   -0.35169  -0.34588  -0.34476  -0.33199  -0.32241
 Alpha  occ. eigenvalues --   -0.32004  -0.31956  -0.30984  -0.30230  -0.26206
 Alpha virt. eigenvalues --   -0.13335  -0.12310  -0.09827  -0.09334  -0.08576
 Alpha virt. eigenvalues --   -0.06666  -0.05863  -0.05623  -0.05021  -0.04038
 Alpha virt. eigenvalues --   -0.03528  -0.03048  -0.02062  -0.01629  -0.00612

 Mulliken charges:
               1
     1  N   -0.751360
     2  H    0.411483
     3  H    0.444740
     4  C   -0.128086
     5  H    0.218447
     6  C    0.643610
     7  C   -0.404285
     8  H    0.228790
     9  H    0.208584
    10  O   -0.522457
    11  C    0.648292
    12  N   -0.725608
    13  H    0.372516
    14  H    0.417491
    15  O   -0.533981
    16  N   -0.591732
    17  H    0.360880
    18  C   -0.084971
    19  H    0.188025
    20  C    0.629321
    21  C   -0.069810
    22  H    0.140804
    23  O   -0.558303
    24  C   -0.251089
    25  H    0.121829
    26  H    0.150985
    27  C   -0.480098
    28  H    0.155770
    29  H    0.178764
    30  H    0.160735
    31  C   -0.454778
    32  H    0.158634
    33  H    0.150401
    34  H    0.163797
    35  N   -0.609622
    36  H    0.369951
    37  C   -0.048078
    38  H    0.187565
    39  C    0.629585
    40  C   -0.453054
    41  H    0.160316
    42  H    0.179908
    43  H    0.175959
    44  O   -0.527025
    45  N   -0.634980
    46  H    0.343288
    47  C   -0.121959
    48  H    0.232258
    49  C    0.629554
    50  C    0.153408
    51  H    0.131376
    52  O   -0.535446
    53  C   -0.493514
    54  H    0.176094
    55  H    0.174010
    56  H    0.172711
    57  O   -0.620452
    58  H    0.398572
    59  N   -0.595142
    60  H    0.371186
    61  C   -0.105428
    62  H    0.199549
    63  C    0.625989
    64  C   -0.022580
    65  H    0.128166
    66  H    0.138260
    67  O   -0.531499
    68  O   -0.624619
    69  H    0.417909
    70  N   -0.579320
    71  H    0.360234
    72  C   -0.263375
    73  H    0.183708
    74  H    0.215447
    75  C    0.633506
    76  O   -0.546687
    77  N   -0.623094
    78  H    0.359528
    79  C   -0.018239
    80  H    0.190469
    81  C    0.585267
    82  C   -0.284116
    83  H    0.161282
    84  H    0.178410
    85  O   -0.467301
    86  C   -0.276181
    87  H    0.136911
    88  H    0.138177
    89  C   -0.261917
    90  H    0.144187
    91  H    0.142648
    92  C   -0.130456
    93  H    0.103175
    94  H    0.137005
    95  N   -0.741899
    96  H    0.290976
    97  H    0.315231
    98  O   -0.562159
    99  H    0.424951
   100  H    0.384076
 Sum of Mulliken charges =   1.00000

 Dipole moment (field-independent basis, Debye):
    X=            -21.6889    Y=              6.0785    Z=             12.5382  Tot=             25.7791
 Quadrupole moment (field-independent basis, Debye-Ang):
   XX=            -63.9333   YY=           -242.0563   ZZ=           -254.1930
   XY=            -57.4218   XZ=            -79.0265   YZ=             53.4426

 Normal termination of Gaussian 16 at Mon Jun  6 03:16:53 2022.
