 Gaussian 16, Revision C.01,
 Gaussian 16:  ES64L-G16RevC.01  3-Jul-2019

 ----------------------------------------------------------------------
 # B3LYP/6-31G* empiricaldispersion=gd3 guess=read geom=check nosymm in
 tegral(ultrafinegrid)
 ----------------------------------------------------------------------

 ------------------------------------------------------
 Candidate Structure: Conf:448 Charge calc in gas phase
 ------------------------------------------------------
 Structure from the checkpoint file:  "conf-448.chk"
 Charge =  1 Multiplicity = 1

                          Input orientation:
 ---------------------------------------------------------------------
 Center     Atomic      Atomic             Coordinates (Angstroms)
 Number     Number       Type             X           Y           Z
 ---------------------------------------------------------------------
      1          7           0       -7.689639    3.200771    2.493849
      2          1           0       -8.675056    3.292724    2.726758
      3          1           0       -7.506971    3.701407    1.626766
      4          6           0       -7.270113    1.820956    2.406264
      5          1           0       -7.482687    1.334263    3.364641
      6          6           0       -5.761783    1.807123    2.118991
      7          6           0       -7.991924    0.992388    1.277632
      8          1           0       -9.060162    0.948053    1.501159
      9          1           0       -7.831354    1.516789    0.331124
     10          8           0       -5.344377    1.970745    0.964783
     11          6           0       -7.502664   -0.422860    1.182787
     12          7           0       -6.183793   -0.597243    0.417932
     13          1           0       -5.952648    0.217204   -0.164201
     14          1           0       -6.227436   -1.463072   -0.128438
     15          8           0       -7.969071   -1.409750    1.663742
     16          7           0       -4.952341    1.550441    3.159867
     17          1           0       -5.354635    1.419026    4.077784
     18          6           0       -3.511105    1.389480    3.009746
     19          1           0       -3.085966    2.329137    2.635712
     20          6           0       -3.235157    0.289770    1.970711
     21          6           0       -2.885421    1.062958    4.398916
     22          1           0       -3.473384    0.231434    4.817374
     23          8           0       -3.989221   -0.701202    1.829447
     24          6           0       -3.016193    2.292418    5.329085
     25          1           0       -4.016967    2.734512    5.235643
     26          1           0       -2.317782    3.064875    4.978729
     27          6           0       -1.425219    0.598802    4.291358
     28          1           0       -0.798058    1.347308    3.792105
     29          1           0       -1.010807    0.436823    5.289040
     30          1           0       -1.328006   -0.343336    3.744923
     31          6           0       -2.758269    1.984229    6.808260
     32          1           0       -2.917445    2.879368    7.417665
     33          1           0       -3.437703    1.205097    7.174744
     34          1           0       -1.733275    1.645776    6.987521
     35          7           0       -2.107823    0.426591    1.281028
     36          1           0       -1.452770    1.183707    1.477105
     37          6           0       -1.547567   -0.595718    0.408073
     38          1           0       -1.735080   -1.577805    0.856538
     39          6           0       -0.031540   -0.311282    0.374325
     40          6           0       -2.167596   -0.542326   -0.997065
     41          1           0       -1.756431   -1.324887   -1.642045
     42          1           0       -3.248281   -0.694627   -0.921687
     43          1           0       -1.979063    0.429615   -1.462766
     44          8           0        0.416792    0.723394    0.879856
     45          7           0        0.730749   -1.229799   -0.238810
     46          1           0        0.333590   -2.039870   -0.702781
     47          6           0        2.177479   -1.079454   -0.395958
     48          1           0        2.572093   -0.568813    0.486514
     49          6           0        2.484527   -0.220611   -1.636519
     50          6           0        2.812220   -2.472406   -0.533304
     51          1           0        3.864943   -2.307996   -0.781043
     52          8           0        2.922282   -0.723663   -2.684245
     53          6           0        2.692517   -3.299334    0.736777
     54          1           0        3.220053   -2.811267    1.562873
     55          1           0        3.129511   -4.288633    0.578150
     56          1           0        1.644061   -3.434345    1.023363
     57          8           0        2.153717   -3.181397   -1.591027
     58          1           0        2.395946   -2.689398   -2.400405
     59          7           0        2.217847    1.090872   -1.500043
     60          1           0        1.935622    1.457516   -0.593246
     61          6           0        2.614132    2.090798   -2.491200
     62          1           0        2.447296    1.675098   -3.490230
     63          6           0        4.115911    2.371070   -2.266725
     64          6           0        1.780441    3.359262   -2.276449
     65          1           0        0.729544    3.143187   -2.494388
     66          1           0        2.125911    4.134745   -2.974869
     67          8           0        4.504309    3.360933   -1.647659
     68          8           0        1.843331    3.787272   -0.927615
     69          1           0        2.782612    4.017150   -0.785080
     70          7           0        4.940212    1.407050   -2.760050
     71          1           0        4.477206    0.562691   -3.088965
     72          6           0        6.275882    1.241974   -2.232247
     73          1           0        6.975338    1.001048   -3.040860
     74          1           0        6.580592    2.196435   -1.792226
     75          6           0        6.297047    0.154327   -1.137513
     76          8           0        5.301234   -0.109654   -0.464764
     77          7           0        7.495774   -0.458840   -0.999201
     78          1           0        8.246524   -0.213556   -1.629950
     79          6           0        7.767742   -1.530458   -0.043137
     80          1           0        7.677837   -1.134732    0.976302
     81          6           0        9.208328   -2.019021   -0.163857
     82          6           0        6.806869   -2.741235   -0.165094
     83          1           0        7.232850   -3.550467    0.437805
     84          1           0        5.858298   -2.453258    0.294226
     85          8           0        9.695721   -2.830123    0.584680
     86          6           0        6.552295   -3.201985   -1.603354
     87          1           0        6.089782   -2.375182   -2.157645
     88          1           0        7.501559   -3.420009   -2.112659
     89          6           0        5.623036   -4.422358   -1.663007
     90          1           0        4.850443   -4.324069   -0.890148
     91          1           0        6.166788   -5.343075   -1.422292
     92          6           0        4.917287   -4.584127   -3.013386
     93          1           0        4.523895   -3.595527   -3.323632
     94          1           0        5.646012   -4.880422   -3.778749
     95          7           0        3.889268   -5.623787   -2.919702
     96          1           0        3.520962   -5.834111   -3.845662
     97          1           0        3.109327   -5.251173   -2.377437
     98          8           0        9.884110   -1.470067   -1.206178
     99          1           0       10.783433   -1.849288   -1.192659
    100          1           0       -5.340340   -0.680487    1.102891
 ---------------------------------------------------------------------

 SCF Done:  E(RB3LYP) =  -2418.55869715     A.U. after    2 cycles

 Alpha  occ. eigenvalues --  -19.31685 -19.27204 -19.25379 -19.25152 -19.22719
 Alpha  occ. eigenvalues --  -19.22076 -19.20669 -19.20660 -19.20200 -19.19183
 Alpha  occ. eigenvalues --  -19.18775 -14.57026 -14.49622 -14.48411 -14.46566
 Alpha  occ. eigenvalues --  -14.44633 -14.44044 -14.43225 -14.42562 -14.34739
 Alpha  occ. eigenvalues --  -10.47607 -10.42061 -10.42028 -10.39706 -10.39126
 Alpha  occ. eigenvalues --  -10.37333 -10.37150 -10.35958 -10.35890 -10.35694
 Alpha  occ. eigenvalues --  -10.35202 -10.34545 -10.31511 -10.31275 -10.31003
 Alpha  occ. eigenvalues --  -10.30886 -10.30597 -10.30197 -10.29846 -10.29687
 Alpha  occ. eigenvalues --  -10.28261 -10.27473 -10.26145 -10.24916 -10.24764
 Alpha  occ. eigenvalues --  -10.24539 -10.23640 -10.22497  -1.23282  -1.17724
 Alpha  occ. eigenvalues --   -1.17650  -1.16273  -1.14634  -1.12441  -1.11052
 Alpha  occ. eigenvalues --   -1.10692  -1.10264  -1.09191  -1.08661  -1.07671
 Alpha  occ. eigenvalues --   -1.05930  -1.05113  -1.02821  -1.02370  -1.00528
 Alpha  occ. eigenvalues --   -0.99813  -0.99045  -0.92610  -0.91723  -0.91358
 Alpha  occ. eigenvalues --   -0.89467  -0.86357  -0.86035  -0.84758  -0.83598
 Alpha  occ. eigenvalues --   -0.81933  -0.81734  -0.79435  -0.79127  -0.78394
 Alpha  occ. eigenvalues --   -0.77158  -0.74831  -0.74472  -0.74027  -0.72215
 Alpha  occ. eigenvalues --   -0.71613  -0.71134  -0.71102  -0.69783  -0.69520
 Alpha  occ. eigenvalues --   -0.68721  -0.68199  -0.67405  -0.67058  -0.66120
 Alpha  occ. eigenvalues --   -0.66041  -0.64973  -0.64584  -0.64210  -0.63986
 Alpha  occ. eigenvalues --   -0.63083  -0.62297  -0.61775  -0.61090  -0.60519
 Alpha  occ. eigenvalues --   -0.59779  -0.59484  -0.58654  -0.58452  -0.57968
 Alpha  occ. eigenvalues --   -0.57647  -0.57484  -0.56966  -0.55870  -0.55748
 Alpha  occ. eigenvalues --   -0.55617  -0.55267  -0.54989  -0.54910  -0.54666
 Alpha  occ. eigenvalues --   -0.54440  -0.54206  -0.53782  -0.53436  -0.52699
 Alpha  occ. eigenvalues --   -0.52446  -0.51971  -0.51568  -0.51216  -0.51100
 Alpha  occ. eigenvalues --   -0.50715  -0.50598  -0.50463  -0.50327  -0.50156
 Alpha  occ. eigenvalues --   -0.50003  -0.49278  -0.49207  -0.48793  -0.48621
 Alpha  occ. eigenvalues --   -0.48253  -0.47894  -0.47800  -0.47504  -0.47415
 Alpha  occ. eigenvalues --   -0.47136  -0.46665  -0.46413  -0.46089  -0.45853
 Alpha  occ. eigenvalues --   -0.45707  -0.45045  -0.44500  -0.44176  -0.44105
 Alpha  occ. eigenvalues --   -0.43944  -0.43537  -0.42868  -0.42853  -0.42639
 Alpha  occ. eigenvalues --   -0.42571  -0.41051  -0.40403  -0.40008  -0.39983
 Alpha  occ. eigenvalues --   -0.39362  -0.39186  -0.38910  -0.38809  -0.38525
 Alpha  occ. eigenvalues --   -0.37888  -0.37681  -0.37308  -0.36771  -0.36310
 Alpha  occ. eigenvalues --   -0.35705  -0.35247  -0.34567  -0.33860  -0.33520
 Alpha  occ. eigenvalues --   -0.33066  -0.32530  -0.31657  -0.31245  -0.27183
 Alpha virt. eigenvalues --   -0.18256  -0.12245  -0.11266  -0.08843  -0.07600
 Alpha virt. eigenvalues --   -0.06949  -0.06190  -0.05254  -0.04537  -0.03647
 Alpha virt. eigenvalues --   -0.03238  -0.02359  -0.01895  -0.01378  -0.00812

 Mulliken charges:
               1
     1  N   -0.697248
     2  H    0.333724
     3  H    0.333141
     4  C   -0.066152
     5  H    0.174123
     6  C    0.628217
     7  C   -0.368103
     8  H    0.215536
     9  H    0.193970
    10  O   -0.562893
    11  C    0.529342
    12  N   -0.831105
    13  H    0.417444
    14  H    0.409139
    15  O   -0.341946
    16  N   -0.600221
    17  H    0.356186
    18  C   -0.019897
    19  H    0.189135
    20  C    0.648361
    21  C   -0.116441
    22  H    0.146068
    23  O   -0.621321
    24  C   -0.270817
    25  H    0.138160
    26  H    0.157968
    27  C   -0.480668
    28  H    0.167890
    29  H    0.180672
    30  H    0.159572
    31  C   -0.453822
    32  H    0.170304
    33  H    0.149385
    34  H    0.165265
    35  N   -0.575543
    36  H    0.383175
    37  C   -0.057989
    38  H    0.193439
    39  C    0.638596
    40  C   -0.437885
    41  H    0.171997
    42  H    0.136023
    43  H    0.184550
    44  O   -0.544006
    45  N   -0.607920
    46  H    0.352603
    47  C   -0.073970
    48  H    0.207102
    49  C    0.668473
    50  C    0.087800
    51  H    0.188937
    52  O   -0.579727
    53  C   -0.464824
    54  H    0.161078
    55  H    0.186688
    56  H    0.139532
    57  O   -0.661499
    58  H    0.428598
    59  N   -0.602648
    60  H    0.382347
    61  C   -0.100165
    62  H    0.179326
    63  C    0.628998
    64  C   -0.042890
    65  H    0.144121
    66  H    0.154918
    67  O   -0.530576
    68  O   -0.635971
    69  H    0.424232
    70  N   -0.580582
    71  H    0.370632
    72  C   -0.258169
    73  H    0.169860
    74  H    0.225581
    75  C    0.624078
    76  O   -0.538458
    77  N   -0.629427
    78  H    0.361965
    79  C   -0.016581
    80  H    0.197598
    81  C    0.586872
    82  C   -0.294944
    83  H    0.176185
    84  H    0.166437
    85  O   -0.446155
    86  C   -0.271237
    87  H    0.135846
    88  H    0.138410
    89  C   -0.261422
    90  H    0.136482
    91  H    0.156388
    92  C   -0.138755
    93  H    0.100983
    94  H    0.140452
    95  N   -0.731246
    96  H    0.292568
    97  H    0.307163
    98  O   -0.587272
    99  H    0.427814
   100  H    0.479046
 Sum of Mulliken charges =   1.00000

 Dipole moment (field-independent basis, Debye):
    X=            -17.3280    Y=              2.3509    Z=              2.8277  Tot=             17.7139
 Quadrupole moment (field-independent basis, Debye-Ang):
   XX=            -59.7511   YY=           -302.7695   ZZ=           -235.5360
   XY=            -19.2700   XZ=            -54.5324   YZ=             14.6244

 Normal termination of Gaussian 16 at Mon Jun  6 03:37:54 2022.
