 Gaussian 16, Revision C.01,
 Gaussian 16:  ES64L-G16RevC.01  3-Jul-2019

 ----------------------------------------------------------------------
 # B3LYP/6-31G* empiricaldispersion=gd3 guess=read geom=check nosymm in
 tegral(ultrafinegrid)
 ----------------------------------------------------------------------

 ------------------------------------------------------
 Candidate Structure: Conf:535 Charge calc in gas phase
 ------------------------------------------------------
 Structure from the checkpoint file:  "conf-535.chk"
 Charge =  1 Multiplicity = 1

                          Input orientation:
 ---------------------------------------------------------------------
 Center     Atomic      Atomic             Coordinates (Angstroms)
 Number     Number       Type             X           Y           Z
 ---------------------------------------------------------------------
      1          7           0        0.523601   -3.946164    1.461407
      2          1           0        0.167549   -4.660622    2.094955
      3          1           0       -0.058834   -4.004740    0.619418
      4          6           0        0.307253   -2.607107    2.031182
      5          1           0        0.452770   -2.650146    3.116533
      6          6           0       -1.104833   -2.073402    1.687282
      7          6           0        1.329905   -1.598547    1.417812
      8          1           0        1.193499   -1.598766    0.329752
      9          1           0        1.156505   -0.583139    1.767439
     10          8           0       -1.707919   -2.515611    0.719674
     11          6           0        2.745674   -1.975905    1.744867
     12          7           0        3.150453   -3.251140    1.071372
     13          1           0        2.298262   -3.891362    1.122167
     14          1           0        3.977051   -3.645575    1.529420
     15          8           0        3.521970   -1.415006    2.462042
     16          7           0       -1.562602   -1.069940    2.484108
     17          1           0       -0.901798   -0.692807    3.153057
     18          6           0       -2.529537   -0.095417    1.977507
     19          1           0       -3.471304   -0.612750    1.763076
     20          6           0       -1.962240    0.490065    0.665682
     21          6           0       -2.763229    0.983895    3.077244
     22          1           0       -1.764049    1.344822    3.373006
     23          8           0       -0.750163    0.419282    0.432588
     24          6           0       -3.435904    0.329985    4.306027
     25          1           0       -2.957136   -0.634055    4.515838
     26          1           0       -4.478786    0.099337    4.046380
     27          6           0       -3.554890    2.202440    2.579043
     28          1           0       -4.538534    1.901869    2.191579
     29          1           0       -3.739061    2.889133    3.408890
     30          1           0       -3.019651    2.762584    1.807570
     31          6           0       -3.391838    1.189443    5.574265
     32          1           0       -3.832437    0.648851    6.418198
     33          1           0       -2.359201    1.443590    5.843697
     34          1           0       -3.946892    2.125905    5.461563
     35          7           0       -2.822620    1.087230   -0.177114
     36          1           0       -3.792241    1.173772    0.095978
     37          6           0       -2.373575    1.859066   -1.341044
     38          1           0       -2.020953    1.152735   -2.102331
     39          6           0       -1.217478    2.794906   -0.903363
     40          6           0       -3.537188    2.687085   -1.884812
     41          1           0       -3.229562    3.216625   -2.790890
     42          1           0       -4.389171    2.047103   -2.138810
     43          1           0       -3.843190    3.429633   -1.141437
     44          8           0       -1.374019    3.615699   -0.007370
     45          7           0       -0.067798    2.605139   -1.592623
     46          1           0       -0.024279    1.883352   -2.303777
     47          6           0        1.233959    3.159924   -1.278768
     48          1           0        1.167514    4.241748   -1.119242
     49          6           0        2.123260    2.806749   -2.483346
     50          6           0        1.891331    2.471463   -0.023595
     51          1           0        2.957033    2.729325   -0.024757
     52          8           0        1.758863    1.966464   -3.310838
     53          6           0        1.305181    2.897932    1.321194
     54          1           0        1.328357    3.986156    1.435628
     55          1           0        1.904555    2.446701    2.119323
     56          1           0        0.269854    2.574789    1.422628
     57          8           0        1.850296    1.059997   -0.202637
     58          1           0        0.906608    0.806881   -0.143749
     59          7           0        3.363646    3.363645   -2.520053
     60          1           0        3.658609    3.912836   -1.720051
     61          6           0        4.448368    2.748960   -3.312189
     62          1           0        4.005567    2.442860   -4.263075
     63          6           0        4.973727    1.521276   -2.537922
     64          6           0        5.547001    3.777630   -3.585638
     65          1           0        6.384483    3.277425   -4.077332
     66          1           0        5.930662    4.174964   -2.632350
     67          8           0        6.028280    1.531643   -1.924242
     68          8           0        5.102635    4.792001   -4.463285
     69          1           0        4.362643    5.257135   -4.042239
     70          7           0        4.120352    0.436935   -2.574528
     71          1           0        3.182518    0.625148   -2.923897
     72          6           0        4.236056   -0.629336   -1.597047
     73          1           0        5.253547   -0.603347   -1.191144
     74          1           0        3.532198   -0.468336   -0.772845
     75          6           0        3.977894   -2.004618   -2.195370
     76          8           0        3.601707   -2.967864   -1.486220
     77          7           0        4.190915   -2.135974   -3.503320
     78          1           0        4.457750   -1.305540   -4.021930
     79          6           0        3.985890   -3.385681   -4.238186
     80          1           0        4.175343   -4.214102   -3.553808
     81          6           0        4.999401   -3.496779   -5.369172
     82          6           0        2.542490   -3.480290   -4.783865
     83          1           0        1.873094   -3.372007   -3.920547
     84          1           0        2.362046   -2.619755   -5.441370
     85          8           0        5.522570   -4.522978   -5.721662
     86          6           0        2.249582   -4.788078   -5.525539
     87          1           0        2.891065   -4.886105   -6.406915
     88          1           0        2.491912   -5.639961   -4.874196
     89          6           0        0.786615   -4.888586   -5.972414
     90          1           0        0.511689   -3.985277   -6.538598
     91          1           0        0.123487   -4.915584   -5.096171
     92          6           0        0.517596   -6.120927   -6.845579
     93          1           0        0.844970   -7.019842   -6.307254
     94          1           0       -0.571678   -6.223420   -6.996558
     95          7           0        1.288430   -6.042856   -8.092220
     96          1           0        0.868442   -5.351853   -8.712834
     97          1           0        1.247523   -6.930801   -8.588156
     98          8           0        5.193111   -2.297292   -5.976485
     99          1           0        5.821214   -2.441591   -6.709964
    100          1           0        3.377749   -3.065675    0.015176
 ---------------------------------------------------------------------

 SCF Done:  E(RB3LYP) =  -2418.56612491     A.U. after    1 cycles

 Alpha  occ. eigenvalues --  -19.29522 -19.28701 -19.24834 -19.23608 -19.23447
 Alpha  occ. eigenvalues --  -19.23360 -19.23320 -19.22634 -19.22263 -19.21708
 Alpha  occ. eigenvalues --  -19.20590 -14.53494 -14.47666 -14.47640 -14.47182
 Alpha  occ. eigenvalues --  -14.47135 -14.46523 -14.45633 -14.45137 -14.36875
 Alpha  occ. eigenvalues --  -10.45318 -10.41083 -10.40843 -10.40285 -10.40166
 Alpha  occ. eigenvalues --  -10.39943 -10.38596 -10.37997 -10.36629 -10.34095
 Alpha  occ. eigenvalues --  -10.33958 -10.33677 -10.33599 -10.33229 -10.33018
 Alpha  occ. eigenvalues --  -10.33010 -10.32800 -10.31691 -10.29799 -10.27728
 Alpha  occ. eigenvalues --  -10.27452 -10.26994 -10.26648 -10.26237 -10.25720
 Alpha  occ. eigenvalues --  -10.25317 -10.24781 -10.24671  -1.20987  -1.19328
 Alpha  occ. eigenvalues --   -1.15985  -1.15869  -1.15587  -1.14668  -1.13450
 Alpha  occ. eigenvalues --   -1.12417  -1.11215  -1.10488  -1.09885  -1.08261
 Alpha  occ. eigenvalues --   -1.04574  -1.03942  -1.03570  -1.03470  -1.02813
 Alpha  occ. eigenvalues --   -1.01861  -1.01630  -0.93660  -0.91480  -0.90045
 Alpha  occ. eigenvalues --   -0.89301  -0.88546  -0.86845  -0.85245  -0.83852
 Alpha  occ. eigenvalues --   -0.83316  -0.81583  -0.80585  -0.80455  -0.77977
 Alpha  occ. eigenvalues --   -0.76925  -0.75046  -0.73467  -0.73020  -0.72109
 Alpha  occ. eigenvalues --   -0.71479  -0.71122  -0.70523  -0.70346  -0.69456
 Alpha  occ. eigenvalues --   -0.69013  -0.68445  -0.68388  -0.67854  -0.67287
 Alpha  occ. eigenvalues --   -0.67214  -0.66209  -0.65415  -0.64848  -0.64566
 Alpha  occ. eigenvalues --   -0.63439  -0.62377  -0.61951  -0.61646  -0.61014
 Alpha  occ. eigenvalues --   -0.60192  -0.59911  -0.59377  -0.58459  -0.58065
 Alpha  occ. eigenvalues --   -0.57646  -0.57469  -0.57403  -0.56842  -0.56698
 Alpha  occ. eigenvalues --   -0.56267  -0.56200  -0.55839  -0.55261  -0.54963
 Alpha  occ. eigenvalues --   -0.54833  -0.54452  -0.54411  -0.54004  -0.53357
 Alpha  occ. eigenvalues --   -0.53058  -0.52838  -0.52579  -0.51914  -0.51726
 Alpha  occ. eigenvalues --   -0.51595  -0.51506  -0.50891  -0.50787  -0.50549
 Alpha  occ. eigenvalues --   -0.50493  -0.50110  -0.49589  -0.49234  -0.49169
 Alpha  occ. eigenvalues --   -0.48907  -0.48884  -0.48400  -0.48217  -0.48114
 Alpha  occ. eigenvalues --   -0.47442  -0.47180  -0.46974  -0.46827  -0.46468
 Alpha  occ. eigenvalues --   -0.46361  -0.46306  -0.46047  -0.45388  -0.44832
 Alpha  occ. eigenvalues --   -0.44659  -0.44323  -0.42771  -0.42464  -0.41997
 Alpha  occ. eigenvalues --   -0.41822  -0.41634  -0.41580  -0.41482  -0.41241
 Alpha  occ. eigenvalues --   -0.40787  -0.40546  -0.39809  -0.39545  -0.39370
 Alpha  occ. eigenvalues --   -0.38838  -0.38032  -0.37928  -0.37897  -0.37256
 Alpha  occ. eigenvalues --   -0.36979  -0.36793  -0.36439  -0.36070  -0.35522
 Alpha  occ. eigenvalues --   -0.35156  -0.34413  -0.33721  -0.33396  -0.29068
 Alpha virt. eigenvalues --   -0.15875  -0.10423  -0.09958  -0.09802  -0.08670
 Alpha virt. eigenvalues --   -0.07794  -0.07575  -0.06806  -0.05385  -0.03449
 Alpha virt. eigenvalues --   -0.02702  -0.02545  -0.02163  -0.01714  -0.01164

 Mulliken charges:
               1
     1  N   -0.768876
     2  H    0.348779
     3  H    0.358725
     4  C   -0.112823
     5  H    0.179535
     6  C    0.638315
     7  C   -0.352070
     8  H    0.202594
     9  H    0.221401
    10  O   -0.507327
    11  C    0.538179
    12  N   -0.834622
    13  H    0.424173
    14  H    0.392478
    15  O   -0.362584
    16  N   -0.589817
    17  H    0.336302
    18  C   -0.062765
    19  H    0.185776
    20  C    0.663844
    21  C   -0.103490
    22  H    0.134543
    23  O   -0.577694
    24  C   -0.260605
    25  H    0.145558
    26  H    0.147836
    27  C   -0.506152
    28  H    0.136969
    29  H    0.177008
    30  H    0.198803
    31  C   -0.453431
    32  H    0.164799
    33  H    0.145644
    34  H    0.162072
    35  N   -0.592727
    36  H    0.351006
    37  C   -0.018219
    38  H    0.164146
    39  C    0.636051
    40  C   -0.495502
    41  H    0.184285
    42  H    0.168945
    43  H    0.192326
    44  O   -0.526052
    45  N   -0.622032
    46  H    0.359030
    47  C   -0.051404
    48  H    0.186055
    49  C    0.631507
    50  C    0.114089
    51  H    0.137851
    52  O   -0.541630
    53  C   -0.464700
    54  H    0.159658
    55  H    0.152988
    56  H    0.180569
    57  O   -0.686010
    58  H    0.456757
    59  N   -0.611647
    60  H    0.343580
    61  C   -0.104233
    62  H    0.205283
    63  C    0.609118
    64  C   -0.038342
    65  H    0.183706
    66  H    0.145460
    67  O   -0.491636
    68  O   -0.600153
    69  H    0.397074
    70  N   -0.647587
    71  H    0.376034
    72  C   -0.243626
    73  H    0.228722
    74  H    0.203716
    75  C    0.635933
    76  O   -0.607410
    77  N   -0.581231
    78  H    0.376520
    79  C   -0.041436
    80  H    0.202543
    81  C    0.590937
    82  C   -0.269934
    83  H    0.148227
    84  H    0.152443
    85  O   -0.433107
    86  C   -0.265887
    87  H    0.190926
    88  H    0.136970
    89  C   -0.254009
    90  H    0.128280
    91  H    0.126010
    92  C   -0.142050
    93  H    0.143173
    94  H    0.123900
    95  N   -0.714763
    96  H    0.296786
    97  H    0.308054
    98  O   -0.581961
    99  H    0.430657
   100  H    0.456889
 Sum of Mulliken charges =   1.00000

 Dipole moment (field-independent basis, Debye):
    X=              1.8422    Y=             -5.6168    Z=             -0.4865  Tot=              5.9312
 Quadrupole moment (field-independent basis, Debye-Ang):
   XX=           -249.3853   YY=           -232.5176   ZZ=           -218.7217
   XY=            -12.8300   XZ=             -9.6972   YZ=             -0.7457

 Normal termination of Gaussian 16 at Mon Jun  6 03:51:56 2022.
