 Gaussian 16, Revision C.01,
 Gaussian 16:  ES64L-G16RevC.01  3-Jul-2019

 ----------------------------------------------------------------------
 # B3LYP/6-31G* empiricaldispersion=gd3 guess=read geom=check nosymm in
 tegral(ultrafinegrid)
 ----------------------------------------------------------------------

 ------------------------------------------------------
 Candidate Structure: Conf:472 Charge calc in gas phase
 ------------------------------------------------------
 Structure from the checkpoint file:  "conf-472.chk"
 Charge =  1 Multiplicity = 1

                          Input orientation:
 ---------------------------------------------------------------------
 Center     Atomic      Atomic             Coordinates (Angstroms)
 Number     Number       Type             X           Y           Z
 ---------------------------------------------------------------------
      1          7           0       -5.084014   -0.982878   -3.091880
      2          1           0       -5.193878   -1.884537   -3.547326
      3          1           0       -4.585774   -0.351538   -3.714783
      4          6           0       -4.375114   -1.104125   -1.836703
      5          1           0       -5.040636   -1.553147   -1.088979
      6          6           0       -3.954359    0.298730   -1.386859
      7          6           0       -3.081702   -1.984064   -1.874350
      8          1           0       -3.352695   -2.958554   -2.294989
      9          1           0       -2.338871   -1.525283   -2.536348
     10          8           0       -3.690453    1.198005   -2.179576
     11          6           0       -2.514337   -2.251673   -0.485139
     12          7           0       -1.237676   -1.730830   -0.251541
     13          1           0       -0.903507   -1.894621    0.696546
     14          1           0       -1.172288   -0.734350   -0.486243
     15          8           0       -3.136131   -2.881505    0.353357
     16          7           0       -3.777253    0.438637   -0.041368
     17          1           0       -4.007565   -0.335157    0.566771
     18          6           0       -3.190799    1.628278    0.532135
     19          1           0       -3.851287    2.484206    0.332600
     20          6           0       -1.845340    1.944773   -0.138752
     21          6           0       -3.020298    1.486925    2.074489
     22          1           0       -2.539244    2.417987    2.407109
     23          8           0       -1.174649    1.101075   -0.752023
     24          6           0       -2.089122    0.316071    2.461788
     25          1           0       -1.185781    0.346755    1.839658
     26          1           0       -2.579995   -0.640113    2.234638
     27          6           0       -4.395528    1.403832    2.755902
     28          1           0       -4.907172    0.462189    2.525952
     29          1           0       -4.292707    1.461410    3.842463
     30          1           0       -5.047275    2.225059    2.438451
     31          6           0       -1.669720    0.327861    3.936474
     32          1           0       -1.025424   -0.530642    4.153621
     33          1           0       -1.108214    1.236340    4.183722
     34          1           0       -2.530866    0.261533    4.608260
     35          7           0       -1.372905    3.195314    0.056936
     36          1           0       -1.983874    3.891142    0.466245
     37          6           0       -0.100273    3.642339   -0.511872
     38          1           0       -0.175769    3.670200   -1.604809
     39          6           0        1.036026    2.646565   -0.214130
     40          6           0        0.252570    5.036549    0.014912
     41          1           0        1.204842    5.359714   -0.413379
     42          1           0       -0.513156    5.765827   -0.270834
     43          1           0        0.346105    5.031949    1.106449
     44          8           0        1.899277    2.430929   -1.071651
     45          7           0        1.023358    2.070935    1.000688
     46          1           0        0.379417    2.400924    1.710700
     47          6           0        2.041978    1.141365    1.472314
     48          1           0        3.029427    1.590625    1.300243
     49          6           0        1.992984   -0.233053    0.729961
     50          6           0        1.810495    0.905290    2.988859
     51          1           0        0.985941    0.197541    3.082972
     52          8           0        1.446365   -1.212795    1.237865
     53          6           0        3.046235    0.337832    3.673259
     54          1           0        3.331924   -0.616015    3.219752
     55          1           0        2.837645    0.166971    4.732879
     56          1           0        3.896206    1.028531    3.591612
     57          8           0        1.336334    2.098503    3.619515
     58          1           0        2.092624    2.689141    3.772270
     59          7           0        2.650337   -0.259026   -0.452353
     60          1           0        2.892440    0.635577   -0.873929
     61          6           0        3.054034   -1.464516   -1.161198
     62          1           0        3.800035   -2.004093   -0.558938
     63          6           0        3.682436   -1.029399   -2.486513
     64          6           0        1.927444   -2.489980   -1.462374
     65          1           0        1.616343   -2.937611   -0.516597
     66          1           0        2.342750   -3.261766   -2.118945
     67          8           0        3.312542   -0.012424   -3.076443
     68          8           0        0.811814   -1.895735   -2.110388
     69          1           0        0.758184   -0.303225   -2.796684
     70          7           0        4.637545   -1.859981   -2.982941
     71          1           0        4.735887   -2.762762   -2.536577
     72          6           0        4.917413   -1.819987   -4.408466
     73          1           0        5.235298   -0.810775   -4.681662
     74          1           0        5.736895   -2.510840   -4.626146
     75          6           0        3.648199   -2.226341   -5.186633
     76          8           0        2.784497   -2.922522   -4.661749
     77          7           0        3.547877   -1.719670   -6.437335
     78          1           0        4.308915   -1.200241   -6.858597
     79          6           0        2.361451   -1.906237   -7.255178
     80          1           0        1.891531   -2.850972   -6.968152
     81          6           0        2.799917   -1.971114   -8.711432
     82          6           0        1.348686   -0.745837   -7.073500
     83          1           0        1.833777    0.181571   -7.409243
     84          1           0        0.496846   -0.921774   -7.740800
     85          8           0        3.880442   -1.601031   -9.115622
     86          6           0        0.872234   -0.579200   -5.625585
     87          1           0        0.287395   -1.455352   -5.317923
     88          1           0        1.741361   -0.545814   -4.963913
     89          6           0        0.062024    0.709249   -5.435615
     90          1           0       -0.766783    0.758981   -6.153238
     91          1           0        0.702693    1.577468   -5.645485
     92          6           0       -0.541288    0.856549   -4.041970
     93          1           0       -1.010641    1.834143   -3.905889
     94          1           0       -1.309744    0.103575   -3.848886
     95          7           0        0.479824    0.695757   -2.953221
     96          1           0        0.070462    1.010831   -2.059093
     97          1           0        1.348867    1.219720   -3.098868
     98          8           0        1.815625   -2.438887   -9.500107
     99          1           0        2.143137   -2.416218  -10.419996
    100          1           0        0.042796   -1.990337   -1.494724
 ---------------------------------------------------------------------

 SCF Done:  E(RB3LYP) =  -2418.64155818     A.U. after    1 cycles

 Alpha  occ. eigenvalues --  -19.28346 -19.25873 -19.25529 -19.24347 -19.23432
 Alpha  occ. eigenvalues --  -19.23038 -19.22818 -19.22172 -19.21648 -19.21344
 Alpha  occ. eigenvalues --  -19.20447 -14.51348 -14.49569 -14.47367 -14.46692
 Alpha  occ. eigenvalues --  -14.46113 -14.45851 -14.45093 -14.43857 -14.39318
 Alpha  occ. eigenvalues --  -10.42128 -10.40819 -10.40488 -10.39701 -10.39304
 Alpha  occ. eigenvalues --  -10.38497 -10.38094 -10.37889 -10.35822 -10.34740
 Alpha  occ. eigenvalues --  -10.34095 -10.33917 -10.33904 -10.33857 -10.32809
 Alpha  occ. eigenvalues --  -10.32702 -10.32651 -10.31596 -10.30569 -10.30228
 Alpha  occ. eigenvalues --  -10.29135 -10.28741 -10.28160 -10.27872 -10.27353
 Alpha  occ. eigenvalues --  -10.27040 -10.27026 -10.25755  -1.19323  -1.17674
 Alpha  occ. eigenvalues --   -1.15330  -1.14950  -1.13684  -1.13295  -1.12976
 Alpha  occ. eigenvalues --   -1.12663  -1.12442  -1.11523  -1.10475  -1.07287
 Alpha  occ. eigenvalues --   -1.05979  -1.03604  -1.02972  -1.02937  -1.02304
 Alpha  occ. eigenvalues --   -1.01707  -0.99200  -0.97175  -0.91841  -0.90290
 Alpha  occ. eigenvalues --   -0.89876  -0.88134  -0.87083  -0.86264  -0.85278
 Alpha  occ. eigenvalues --   -0.83420  -0.82215  -0.80828  -0.80677  -0.80059
 Alpha  occ. eigenvalues --   -0.76957  -0.75453  -0.74877  -0.73984  -0.73512
 Alpha  occ. eigenvalues --   -0.72352  -0.71799  -0.70767  -0.69553  -0.68910
 Alpha  occ. eigenvalues --   -0.68698  -0.68369  -0.67574  -0.67362  -0.67279
 Alpha  occ. eigenvalues --   -0.66598  -0.65598  -0.65499  -0.64887  -0.64425
 Alpha  occ. eigenvalues --   -0.63032  -0.62234  -0.61477  -0.61380  -0.61144
 Alpha  occ. eigenvalues --   -0.60757  -0.59916  -0.59268  -0.58598  -0.58530
 Alpha  occ. eigenvalues --   -0.58372  -0.57721  -0.57241  -0.56781  -0.56363
 Alpha  occ. eigenvalues --   -0.55998  -0.55847  -0.55577  -0.55427  -0.55075
 Alpha  occ. eigenvalues --   -0.55032  -0.54894  -0.54699  -0.54656  -0.54063
 Alpha  occ. eigenvalues --   -0.53831  -0.53333  -0.52605  -0.52194  -0.52064
 Alpha  occ. eigenvalues --   -0.51854  -0.51545  -0.51407  -0.51231  -0.50734
 Alpha  occ. eigenvalues --   -0.50565  -0.50446  -0.50234  -0.49663  -0.49536
 Alpha  occ. eigenvalues --   -0.49251  -0.49002  -0.48661  -0.48586  -0.48244
 Alpha  occ. eigenvalues --   -0.48123  -0.47918  -0.47466  -0.47335  -0.47090
 Alpha  occ. eigenvalues --   -0.46857  -0.46819  -0.46344  -0.45921  -0.45765
 Alpha  occ. eigenvalues --   -0.45305  -0.44919  -0.44757  -0.43832  -0.43547
 Alpha  occ. eigenvalues --   -0.43294  -0.43118  -0.42810  -0.42384  -0.42296
 Alpha  occ. eigenvalues --   -0.41787  -0.40376  -0.40237  -0.39685  -0.39112
 Alpha  occ. eigenvalues --   -0.38353  -0.37837  -0.37592  -0.37374  -0.36944
 Alpha  occ. eigenvalues --   -0.36594  -0.36367  -0.35731  -0.35250  -0.35134
 Alpha  occ. eigenvalues --   -0.34673  -0.34481  -0.34231  -0.34081  -0.31210
 Alpha virt. eigenvalues --   -0.11333  -0.10034  -0.09548  -0.08934  -0.08528
 Alpha virt. eigenvalues --   -0.07732  -0.07177  -0.06452  -0.05003  -0.03871
 Alpha virt. eigenvalues --   -0.02947  -0.01862  -0.01594  -0.01078  -0.00369

 Mulliken charges:
               1
     1  N   -0.707564
     2  H    0.309762
     3  H    0.315969
     4  C   -0.064885
     5  H    0.177832
     6  C    0.638066
     7  C   -0.370224
     8  H    0.194046
     9  H    0.147587
    10  O   -0.541660
    11  C    0.560441
    12  N   -0.854345
    13  H    0.364727
    14  H    0.402105
    15  O   -0.473282
    16  N   -0.631604
    17  H    0.358035
    18  C   -0.026549
    19  H    0.177015
    20  C    0.688230
    21  C   -0.124634
    22  H    0.132461
    23  O   -0.585005
    24  C   -0.300104
    25  H    0.138494
    26  H    0.157362
    27  C   -0.457423
    28  H    0.159764
    29  H    0.177908
    30  H    0.160487
    31  C   -0.468678
    32  H    0.164997
    33  H    0.169281
    34  H    0.162787
    35  N   -0.620842
    36  H    0.355411
    37  C   -0.015479
    38  H    0.180480
    39  C    0.622048
    40  C   -0.494110
    41  H    0.202534
    42  H    0.182161
    43  H    0.169888
    44  O   -0.567496
    45  N   -0.600166
    46  H    0.359928
    47  C   -0.063120
    48  H    0.167270
    49  C    0.631574
    50  C    0.100140
    51  H    0.194155
    52  O   -0.542868
    53  C   -0.482808
    54  H    0.178542
    55  H    0.185069
    56  H    0.146134
    57  O   -0.633631
    58  H    0.401791
    59  N   -0.652403
    60  H    0.387934
    61  C   -0.034213
    62  H    0.170894
    63  C    0.608769
    64  C   -0.051852
    65  H    0.184312
    66  H    0.176703
    67  O   -0.549894
    68  O   -0.683636
    69  H    0.455736
    70  N   -0.560221
    71  H    0.348398
    72  C   -0.256342
    73  H    0.199712
    74  H    0.201224
    75  C    0.625308
    76  O   -0.522373
    77  N   -0.600068
    78  H    0.352385
    79  C   -0.046592
    80  H    0.207779
    81  C    0.587185
    82  C   -0.268843
    83  H    0.148078
    84  H    0.170845
    85  O   -0.459017
    86  C   -0.291205
    87  H    0.161134
    88  H    0.178029
    89  C   -0.283038
    90  H    0.169849
    91  H    0.155974
    92  C   -0.188943
    93  H    0.194650
    94  H    0.198145
    95  N   -0.835046
    96  H    0.441573
    97  H    0.416808
    98  O   -0.559534
    99  H    0.427661
   100  H    0.466130
 Sum of Mulliken charges =   1.00000

 Dipole moment (field-independent basis, Debye):
    X=              4.6869    Y=              5.3846    Z=             -7.2694  Tot=             10.1885
 Quadrupole moment (field-independent basis, Debye-Ang):
   XX=           -243.2870   YY=           -245.1197   ZZ=           -188.3172
   XY=            -18.0996   XZ=            -15.8064   YZ=             29.6324

 Normal termination of Gaussian 16 at Mon Jun  6 03:54:15 2022.
