 Gaussian 16, Revision C.01,
 Gaussian 16:  ES64L-G16RevC.01  3-Jul-2019

 ----------------------------------------------------------------------
 # B3LYP/6-31G* empiricaldispersion=gd3 guess=read geom=check nosymm in
 tegral(ultrafinegrid)
 ----------------------------------------------------------------------

 ------------------------------------------------------
 Candidate Structure: Conf:669 Charge calc in gas phase
 ------------------------------------------------------
 Structure from the checkpoint file:  "conf-669.chk"
 Charge =  1 Multiplicity = 1

                          Input orientation:
 ---------------------------------------------------------------------
 Center     Atomic      Atomic             Coordinates (Angstroms)
 Number     Number       Type             X           Y           Z
 ---------------------------------------------------------------------
      1          7           0       -0.160237   -4.025545    2.599279
      2          1           0       -1.048911   -3.948740    3.103685
      3          1           0        0.564369   -4.115080    3.311786
      4          6           0        0.024563   -2.758096    1.858652
      5          1           0        1.087153   -2.636959    1.636166
      6          6           0       -0.542701   -1.582813    2.677075
      7          6           0       -0.768312   -2.814966    0.524143
      8          1           0       -1.823211   -3.020787    0.762930
      9          1           0       -0.751766   -1.863558   -0.009358
     10          8           0       -1.553417   -1.766039    3.347349
     11          6           0       -0.313165   -3.872483   -0.443036
     12          7           0        0.224867   -5.125591    0.216986
     13          1           0        1.283734   -4.998559    0.150652
     14          1           0       -0.084057   -5.965881   -0.276791
     15          8           0       -0.311204   -3.833964   -1.638795
     16          7           0        0.127418   -0.406799    2.584644
     17          1           0        0.875228   -0.357997    1.896321
     18          6           0       -0.566681    0.851478    2.861261
     19          1           0       -1.451705    0.570820    3.442230
     20          6           0       -1.095590    1.333170    1.478948
     21          6           0        0.281213    1.851886    3.692247
     22          1           0        0.946784    2.394098    3.002963
     23          8           0       -1.421001    0.481627    0.636278
     24          6           0        1.198071    1.126650    4.705741
     25          1           0        1.803699    1.893496    5.206432
     26          1           0        1.900428    0.495728    4.146747
     27          6           0       -0.620678    2.871260    4.416604
     28          1           0       -1.277274    2.366413    5.131943
     29          1           0       -0.010443    3.591240    4.971056
     30          1           0       -1.274168    3.440538    3.747000
     31          6           0        0.484284    0.274787    5.763563
     32          1           0        1.226126   -0.209601    6.406163
     33          1           0       -0.157381    0.883769    6.408690
     34          1           0       -0.141574   -0.501328    5.309506
     35          7           0       -1.164491    2.653981    1.215964
     36          1           0       -0.787575    3.313413    1.881896
     37          6           0       -1.539399    3.199041   -0.105748
     38          1           0       -2.353639    2.575183   -0.484814
     39          6           0       -0.282574    3.054619   -1.000394
     40          6           0       -1.974646    4.650895    0.028501
     41          1           0       -2.302727    5.031114   -0.942686
     42          1           0       -2.802602    4.741703    0.737806
     43          1           0       -1.134726    5.272039    0.354317
     44          8           0        0.542213    3.949821   -1.121431
     45          7           0       -0.134766    1.802744   -1.516453
     46          1           0       -0.874031    1.121822   -1.375501
     47          6           0        1.117217    1.271492   -2.010265
     48          1           0        1.642382    2.040227   -2.585267
     49          6           0        0.783072    0.031264   -2.848740
     50          6           0        2.041656    0.787482   -0.845636
     51          1           0        2.919585    0.303954   -1.289580
     52          8           0       -0.224695   -0.628807   -2.617428
     53          6           0        2.496740    1.901552    0.091505
     54          1           0        3.013831    2.695467   -0.454115
     55          1           0        3.168747    1.485859    0.848040
     56          1           0        1.644305    2.353521    0.602891
     57          8           0        1.369757   -0.249101   -0.099070
     58          1           0        0.417491   -0.026578   -0.072806
     59          7           0        1.716091   -0.310041   -3.783866
     60          1           0        2.602641    0.182910   -3.767854
     61          6           0        1.791002   -1.675839   -4.285320
     62          1           0        0.801389   -2.121396   -4.168566
     63          6           0        2.842203   -2.408656   -3.442646
     64          6           0        2.190513   -1.706462   -5.760496
     65          1           0        3.169886   -1.217344   -5.878387
     66          1           0        1.445394   -1.142814   -6.340146
     67          8           0        3.951711   -1.906026   -3.254945
     68          8           0        2.235570   -3.079755   -6.115238
     69          1           0        2.545410   -3.153423   -7.030330
     70          7           0        2.473824   -3.591121   -2.891658
     71          1           0        1.518479   -3.910513   -2.980235
     72          6           0        3.389118   -4.302004   -2.012293
     73          1           0        3.067401   -5.340840   -1.918473
     74          1           0        4.390119   -4.278261   -2.450748
     75          6           0        3.383041   -3.659789   -0.622108
     76          8           0        2.604566   -4.061868    0.274681
     77          7           0        4.209337   -2.629624   -0.438566
     78          1           0        4.671221   -2.234667   -1.260583
     79          6           0        4.167842   -1.798760    0.765710
     80          1           0        3.138778   -1.432004    0.880363
     81          6           0        5.020767   -0.571257    0.473207
     82          6           0        4.574683   -2.548820    2.059287
     83          1           0        4.307824   -3.600091    1.928083
     84          1           0        5.661404   -2.506135    2.193995
     85          8           0        5.452503   -0.279163   -0.619856
     86          6           0        3.855986   -2.006245    3.301207
     87          1           0        4.163815   -0.970471    3.480520
     88          1           0        2.772900   -1.972528    3.101076
     89          6           0        4.095506   -2.853315    4.554836
     90          1           0        5.167452   -2.863784    4.798670
     91          1           0        3.816012   -3.897346    4.345725
     92          6           0        3.296824   -2.358244    5.776038
     93          1           0        2.226548   -2.341144    5.521408
     94          1           0        3.405857   -3.077650    6.595905
     95          7           0        3.643122   -1.038071    6.302286
     96          1           0        3.581377   -0.328693    5.575409
     97          1           0        4.604201   -1.030933    6.640117
     98          8           0        5.213933    0.182090    1.574082
     99          1           0        5.752145    0.951209    1.302900
    100          1           0       -0.010141   -5.082644    1.268201
 ---------------------------------------------------------------------

 SCF Done:  E(RB3LYP) =  -2418.58778269     A.U. after    3 cycles

 Alpha  occ. eigenvalues --  -19.30950 -19.30528 -19.25747 -19.25739 -19.25270
 Alpha  occ. eigenvalues --  -19.23523 -19.22568 -19.22405 -19.22315 -19.21909
 Alpha  occ. eigenvalues --  -19.20119 -14.54154 -14.48051 -14.47530 -14.47248
 Alpha  occ. eigenvalues --  -14.46387 -14.46222 -14.45985 -14.44387 -14.38897
 Alpha  occ. eigenvalues --  -10.46427 -10.43310 -10.41741 -10.39719 -10.39254
 Alpha  occ. eigenvalues --  -10.39231 -10.38946 -10.37306 -10.35469 -10.34824
 Alpha  occ. eigenvalues --  -10.34747 -10.34446 -10.33209 -10.33152 -10.33017
 Alpha  occ. eigenvalues --  -10.32843 -10.32766 -10.32622 -10.29113 -10.28822
 Alpha  occ. eigenvalues --  -10.28525 -10.27734 -10.26766 -10.26593 -10.26582
 Alpha  occ. eigenvalues --  -10.26539 -10.26377 -10.23956  -1.22020  -1.21921
 Alpha  occ. eigenvalues --   -1.16744  -1.15057  -1.14669  -1.14071  -1.13796
 Alpha  occ. eigenvalues --   -1.13000  -1.12379  -1.11946  -1.10827  -1.08896
 Alpha  occ. eigenvalues --   -1.04745  -1.03430  -1.03164  -1.02817  -1.02710
 Alpha  occ. eigenvalues --   -1.02425  -1.01203  -0.95717  -0.90945  -0.90818
 Alpha  occ. eigenvalues --   -0.89874  -0.88466  -0.86861  -0.85891  -0.85131
 Alpha  occ. eigenvalues --   -0.83044  -0.82533  -0.80660  -0.80310  -0.78640
 Alpha  occ. eigenvalues --   -0.77533  -0.74561  -0.74151  -0.72896  -0.72648
 Alpha  occ. eigenvalues --   -0.72449  -0.72043  -0.71073  -0.70360  -0.70109
 Alpha  occ. eigenvalues --   -0.69294  -0.69113  -0.68516  -0.68468  -0.67340
 Alpha  occ. eigenvalues --   -0.67027  -0.66902  -0.65766  -0.65165  -0.64958
 Alpha  occ. eigenvalues --   -0.64086  -0.63387  -0.61860  -0.61231  -0.60854
 Alpha  occ. eigenvalues --   -0.60781  -0.59902  -0.59667  -0.59294  -0.59088
 Alpha  occ. eigenvalues --   -0.58817  -0.58528  -0.58159  -0.57987  -0.57325
 Alpha  occ. eigenvalues --   -0.57296  -0.56832  -0.56648  -0.56135  -0.55284
 Alpha  occ. eigenvalues --   -0.54969  -0.54720  -0.54144  -0.54052  -0.53510
 Alpha  occ. eigenvalues --   -0.53209  -0.53120  -0.52989  -0.52797  -0.52004
 Alpha  occ. eigenvalues --   -0.51884  -0.51752  -0.51270  -0.51017  -0.50805
 Alpha  occ. eigenvalues --   -0.50680  -0.50456  -0.49934  -0.49783  -0.49470
 Alpha  occ. eigenvalues --   -0.49301  -0.48945  -0.48405  -0.48294  -0.47860
 Alpha  occ. eigenvalues --   -0.47598  -0.47506  -0.47270  -0.47048  -0.46966
 Alpha  occ. eigenvalues --   -0.46863  -0.46565  -0.46094  -0.45877  -0.45338
 Alpha  occ. eigenvalues --   -0.45109  -0.44886  -0.44654  -0.43942  -0.43494
 Alpha  occ. eigenvalues --   -0.42781  -0.42477  -0.42459  -0.42014  -0.41510
 Alpha  occ. eigenvalues --   -0.41230  -0.41113  -0.40738  -0.40466  -0.40184
 Alpha  occ. eigenvalues --   -0.39043  -0.38757  -0.38299  -0.37830  -0.37298
 Alpha  occ. eigenvalues --   -0.36819  -0.36623  -0.36165  -0.36144  -0.35693
 Alpha  occ. eigenvalues --   -0.35429  -0.34673  -0.33803  -0.32923  -0.30864
 Alpha virt. eigenvalues --   -0.16862  -0.11441  -0.10209  -0.09957  -0.08752
 Alpha virt. eigenvalues --   -0.08169  -0.07723  -0.06527  -0.06073  -0.04689
 Alpha virt. eigenvalues --   -0.03414  -0.02464  -0.02000  -0.01185  -0.00797

 Mulliken charges:
               1
     1  N   -0.781180
     2  H    0.359890
     3  H    0.348425
     4  C   -0.131688
     5  H    0.204874
     6  C    0.645062
     7  C   -0.377612
     8  H    0.225511
     9  H    0.255529
    10  O   -0.521980
    11  C    0.561923
    12  N   -0.826815
    13  H    0.433237
    14  H    0.395190
    15  O   -0.380521
    16  N   -0.621951
    17  H    0.361412
    18  C   -0.062394
    19  H    0.223344
    20  C    0.613261
    21  C   -0.129757
    22  H    0.130692
    23  O   -0.556845
    24  C   -0.253765
    25  H    0.146996
    26  H    0.125962
    27  C   -0.476096
    28  H    0.176133
    29  H    0.171970
    30  H    0.142370
    31  C   -0.495628
    32  H    0.195827
    33  H    0.154580
    34  H    0.159394
    35  N   -0.599862
    36  H    0.357671
    37  C   -0.055336
    38  H    0.186606
    39  C    0.622392
    40  C   -0.473237
    41  H    0.185145
    42  H    0.166915
    43  H    0.180486
    44  O   -0.515626
    45  N   -0.620771
    46  H    0.375274
    47  C   -0.108329
    48  H    0.192474
    49  C    0.643496
    50  C    0.121407
    51  H    0.163476
    52  O   -0.522041
    53  C   -0.471633
    54  H    0.180518
    55  H    0.145368
    56  H    0.157681
    57  O   -0.701330
    58  H    0.444792
    59  N   -0.601905
    60  H    0.351299
    61  C   -0.090749
    62  H    0.202798
    63  C    0.655465
    64  C   -0.032019
    65  H    0.149321
    66  H    0.159119
    67  O   -0.547229
    68  O   -0.625861
    69  H    0.414126
    70  N   -0.591347
    71  H    0.371456
    72  C   -0.238223
    73  H    0.178465
    74  H    0.216303
    75  C    0.635494
    76  O   -0.596446
    77  N   -0.600363
    78  H    0.408306
    79  C   -0.050392
    80  H    0.222938
    81  C    0.590709
    82  C   -0.270072
    83  H    0.172225
    84  H    0.163660
    85  O   -0.452064
    86  C   -0.286628
    87  H    0.159325
    88  H    0.118297
    89  C   -0.266285
    90  H    0.143037
    91  H    0.123668
    92  C   -0.148345
    93  H    0.129964
    94  H    0.158402
    95  N   -0.710515
    96  H    0.307324
    97  H    0.305982
    98  O   -0.560748
    99  H    0.432101
   100  H    0.428520
 Sum of Mulliken charges =   1.00000

 Dipole moment (field-independent basis, Debye):
    X=              8.2018    Y=            -11.0245    Z=              1.1870  Tot=             13.7920
 Quadrupole moment (field-independent basis, Debye-Ang):
   XX=           -244.2465   YY=           -193.2507   ZZ=           -236.9510
   XY=            -21.5944   XZ=              4.8382   YZ=             12.1051

 Normal termination of Gaussian 16 at Mon Jun  6 03:17:41 2022.
