 Gaussian 16, Revision C.01,
 Gaussian 16:  ES64L-G16RevC.01  3-Jul-2019

 ----------------------------------------------------------------------
 # B3LYP/6-31G* empiricaldispersion=gd3 guess=read geom=check nosymm in
 tegral(ultrafinegrid)
 ----------------------------------------------------------------------

 ------------------------------------------------------
 Candidate Structure: Conf:234 Charge calc in gas phase
 ------------------------------------------------------
 Structure from the checkpoint file:  "conf-234.chk"
 Charge =  1 Multiplicity = 1

                          Input orientation:
 ---------------------------------------------------------------------
 Center     Atomic      Atomic             Coordinates (Angstroms)
 Number     Number       Type             X           Y           Z
 ---------------------------------------------------------------------
      1          7           0       -0.088379    6.913210   -2.114450
      2          1           0       -0.718805    7.701451   -1.992663
      3          1           0        0.669838    7.162770   -2.770376
      4          6           0       -0.788732    5.732463   -2.559073
      5          1           0       -1.595594    5.531167   -1.841516
      6          6           0        0.157710    4.522250   -2.454043
      7          6           0       -1.432864    5.793239   -3.987335
      8          1           0       -1.875221    6.777866   -4.150038
      9          1           0       -0.650159    5.617937   -4.734538
     10          8           0        0.418739    3.779820   -3.415568
     11          6           0       -2.538558    4.796990   -4.178136
     12          7           0       -2.104354    3.331930   -3.976759
     13          1           0       -1.106270    3.218345   -4.248862
     14          1           0       -2.750261    2.718103   -4.481240
     15          8           0       -3.690271    4.980264   -4.426921
     16          7           0        0.618892    4.283304   -1.212640
     17          1           0        0.358052    4.965892   -0.509299
     18          6           0        0.860164    2.914925   -0.777969
     19          1           0        1.646678    2.486796   -1.405559
     20          6           0       -0.437007    2.095843   -1.027526
     21          6           0        1.302478    2.932736    0.719461
     22          1           0        1.901009    3.850678    0.807665
     23          8           0       -1.499896    2.631389   -1.408260
     24          6           0        2.234090    1.776851    1.134964
     25          1           0        1.709942    0.813481    1.139186
     26          1           0        2.496789    1.958605    2.184844
     27          6           0        0.097448    3.041876    1.668862
     28          1           0       -0.443142    2.090057    1.720468
     29          1           0        0.434121    3.283631    2.681314
     30          1           0       -0.613321    3.817607    1.358370
     31          6           0        3.517200    1.669545    0.307338
     32          1           0        4.201514    0.956804    0.773386
     33          1           0        3.318055    1.294317   -0.700599
     34          1           0        4.024634    2.639251    0.227313
     35          7           0       -0.351945    0.786998   -0.780930
     36          1           0        0.483324    0.416637   -0.334781
     37          6           0       -1.530313   -0.083211   -0.704706
     38          1           0       -2.327200    0.479418   -0.201799
     39          6           0       -1.097885   -1.244129    0.215565
     40          6           0       -2.014243   -0.505094   -2.096416
     41          1           0       -2.964713   -1.046064   -2.040571
     42          1           0       -2.184366    0.389430   -2.700769
     43          1           0       -1.274668   -1.134418   -2.600338
     44          8           0       -0.203009   -1.053267    1.046399
     45          7           0       -1.686569   -2.439241    0.034482
     46          1           0       -2.346553   -2.608160   -0.717374
     47          6           0       -1.128375   -3.676146    0.596342
     48          1           0       -0.768455   -3.468127    1.607316
     49          6           0        0.040888   -4.078743   -0.339466
     50          6           0       -2.233427   -4.750749    0.592709
     51          1           0       -1.759339   -5.709186    0.845488
     52          8           0       -0.077687   -4.982411   -1.171097
     53          6           0       -3.348553   -4.448154    1.582224
     54          1           0       -2.964133   -4.421175    2.607305
     55          1           0       -4.116710   -5.222887    1.513565
     56          1           0       -3.814111   -3.482533    1.359253
     57          8           0       -2.807717   -4.810684   -0.713452
     58          1           0       -2.094712   -5.164555   -1.280775
     59          7           0        1.136453   -3.290862   -0.241984
     60          1           0        1.144995   -2.524637    0.429284
     61          6           0        2.151795   -3.226105   -1.276139
     62          1           0        2.592638   -4.213724   -1.445292
     63          6           0        3.201136   -2.211164   -0.833918
     64          6           0        1.542681   -2.726023   -2.627169
     65          1           0        1.039280   -1.766887   -2.426936
     66          1           0        0.796421   -3.459368   -2.940468
     67          8           0        2.953740   -1.344226    0.001776
     68          8           0        2.505493   -2.608712   -3.650657
     69          1           0        2.900654   -1.715695   -3.571517
     70          7           0        4.394730   -2.308401   -1.490323
     71          1           0        4.387598   -2.903057   -2.312451
     72          6           0        5.288462   -1.175278   -1.516797
     73          1           0        5.329753   -0.742334   -0.513540
     74          1           0        6.296712   -1.509116   -1.782340
     75          6           0        4.811075   -0.087607   -2.499322
     76          8           0        3.697879   -0.119035   -3.037134
     77          7           0        5.687298    0.913910   -2.714616
     78          1           0        6.623439    0.880900   -2.324865
     79          6           0        5.446203    1.950036   -3.710598
     80          1           0        4.836074    1.516502   -4.509212
     81          6           0        6.809697    2.342095   -4.267418
     82          6           0        4.700263    3.179897   -3.127089
     83          1           0        3.962012    2.794213   -2.416877
     84          1           0        5.406980    3.787953   -2.546628
     85          8           0        7.861105    2.110615   -3.710228
     86          6           0        3.990492    4.023460   -4.192454
     87          1           0        4.679225    4.245847   -5.014939
     88          1           0        3.170444    3.427557   -4.615793
     89          6           0        3.426470    5.335884   -3.637014
     90          1           0        4.251969    5.959536   -3.262316
     91          1           0        2.770984    5.138741   -2.781043
     92          6           0        2.653730    6.108844   -4.706040
     93          1           0        3.315819    6.296040   -5.566901
     94          1           0        1.827617    5.483568   -5.067097
     95          7           0        2.072934    7.352613   -4.159845
     96          1           0        1.692279    7.915651   -4.920528
     97          1           0        2.816523    7.918573   -3.749450
     98          8           0        6.712749    3.005184   -5.434039
     99          1           0        7.620205    3.247523   -5.703814
    100          1           0       -2.078248    3.060620   -2.951481
 ---------------------------------------------------------------------

 SCF Done:  E(RB3LYP) =  -2418.58246515     A.U. after    2 cycles

 Alpha  occ. eigenvalues --  -19.31008 -19.29447 -19.24944 -19.24741 -19.23789
 Alpha  occ. eigenvalues --  -19.22243 -19.21833 -19.21185 -19.20846 -19.20752
 Alpha  occ. eigenvalues --  -19.19993 -14.56362 -14.47616 -14.47312 -14.46020
 Alpha  occ. eigenvalues --  -14.45902 -14.44754 -14.43464 -14.42441 -14.41916
 Alpha  occ. eigenvalues --  -10.46862 -10.41806 -10.41123 -10.41071 -10.39098
 Alpha  occ. eigenvalues --  -10.39039 -10.37475 -10.36865 -10.35512 -10.34562
 Alpha  occ. eigenvalues --  -10.34410 -10.33430 -10.33338 -10.32345 -10.31353
 Alpha  occ. eigenvalues --  -10.31083 -10.31023 -10.31002 -10.30238 -10.29639
 Alpha  occ. eigenvalues --  -10.29188 -10.28194 -10.27082 -10.26917 -10.26701
 Alpha  occ. eigenvalues --  -10.26483 -10.25204 -10.24089  -1.22553  -1.20399
 Alpha  occ. eigenvalues --   -1.16999  -1.15427  -1.14056  -1.13954  -1.12554
 Alpha  occ. eigenvalues --   -1.11663  -1.11462  -1.10124  -1.08819  -1.08356
 Alpha  occ. eigenvalues --   -1.04642  -1.04140  -1.02587  -1.02152  -1.01387
 Alpha  occ. eigenvalues --   -1.00220  -1.00086  -0.98299  -0.91228  -0.90149
 Alpha  occ. eigenvalues --   -0.89773  -0.88506  -0.86073  -0.85176  -0.83854
 Alpha  occ. eigenvalues --   -0.83369  -0.81020  -0.80807  -0.78578  -0.78380
 Alpha  occ. eigenvalues --   -0.77972  -0.76081  -0.73477  -0.73065  -0.72304
 Alpha  occ. eigenvalues --   -0.72160  -0.71552  -0.70722  -0.70484  -0.70327
 Alpha  occ. eigenvalues --   -0.68800  -0.68318  -0.68038  -0.67701  -0.67263
 Alpha  occ. eigenvalues --   -0.66719  -0.66286  -0.65490  -0.64688  -0.64018
 Alpha  occ. eigenvalues --   -0.63188  -0.61829  -0.61198  -0.60532  -0.59947
 Alpha  occ. eigenvalues --   -0.59638  -0.59294  -0.58942  -0.58556  -0.58389
 Alpha  occ. eigenvalues --   -0.57908  -0.57737  -0.57576  -0.57378  -0.56767
 Alpha  occ. eigenvalues --   -0.56541  -0.56478  -0.56080  -0.55685  -0.55398
 Alpha  occ. eigenvalues --   -0.54858  -0.54714  -0.54453  -0.54014  -0.53601
 Alpha  occ. eigenvalues --   -0.53267  -0.52977  -0.52603  -0.52359  -0.51918
 Alpha  occ. eigenvalues --   -0.51464  -0.51298  -0.51099  -0.50803  -0.50770
 Alpha  occ. eigenvalues --   -0.50462  -0.50187  -0.50003  -0.49624  -0.49408
 Alpha  occ. eigenvalues --   -0.49039  -0.49001  -0.48828  -0.48683  -0.48298
 Alpha  occ. eigenvalues --   -0.47470  -0.47315  -0.46644  -0.46486  -0.46314
 Alpha  occ. eigenvalues --   -0.45975  -0.45398  -0.45078  -0.44911  -0.44557
 Alpha  occ. eigenvalues --   -0.44530  -0.44037  -0.43316  -0.43303  -0.43125
 Alpha  occ. eigenvalues --   -0.42574  -0.42195  -0.41942  -0.41442  -0.41330
 Alpha  occ. eigenvalues --   -0.40849  -0.40575  -0.40107  -0.39261  -0.38695
 Alpha  occ. eigenvalues --   -0.38196  -0.37907  -0.37279  -0.37160  -0.36713
 Alpha  occ. eigenvalues --   -0.36285  -0.35747  -0.35557  -0.35514  -0.34937
 Alpha  occ. eigenvalues --   -0.34338  -0.33841  -0.33730  -0.32307  -0.32033
 Alpha virt. eigenvalues --   -0.17062  -0.12016  -0.10627  -0.09144  -0.08850
 Alpha virt. eigenvalues --   -0.07607  -0.06790  -0.06724  -0.05272  -0.03143
 Alpha virt. eigenvalues --   -0.02103  -0.01989  -0.01311  -0.01109  -0.00885

 Mulliken charges:
               1
     1  N   -0.758995
     2  H    0.316156
     3  H    0.384317
     4  C   -0.089704
     5  H    0.182571
     6  C    0.665060
     7  C   -0.375025
     8  H    0.206752
     9  H    0.212799
    10  O   -0.592915
    11  C    0.536270
    12  N   -0.842476
    13  H    0.431651
    14  H    0.405316
    15  O   -0.340972
    16  N   -0.579535
    17  H    0.362044
    18  C   -0.065445
    19  H    0.209440
    20  C    0.636693
    21  C   -0.124704
    22  H    0.155470
    23  O   -0.608749
    24  C   -0.296066
    25  H    0.191951
    26  H    0.156123
    27  C   -0.473414
    28  H    0.170765
    29  H    0.175042
    30  H    0.141481
    31  C   -0.470199
    32  H    0.170940
    33  H    0.158347
    34  H    0.136940
    35  N   -0.592292
    36  H    0.391645
    37  C   -0.028712
    38  H    0.202765
    39  C    0.604954
    40  C   -0.470258
    41  H    0.176105
    42  H    0.137325
    43  H    0.184850
    44  O   -0.535534
    45  N   -0.602720
    46  H    0.356938
    47  C   -0.088058
    48  H    0.192095
    49  C    0.629657
    50  C    0.114300
    51  H    0.154944
    52  O   -0.540442
    53  C   -0.449681
    54  H    0.153210
    55  H    0.178362
    56  H    0.149162
    57  O   -0.650625
    58  H    0.422338
    59  N   -0.641868
    60  H    0.393791
    61  C   -0.050459
    62  H    0.191969
    63  C    0.593128
    64  C   -0.057397
    65  H    0.120573
    66  H    0.187649
    67  O   -0.533121
    68  O   -0.650595
    69  H    0.436465
    70  N   -0.569711
    71  H    0.350680
    72  C   -0.260630
    73  H    0.223424
    74  H    0.191441
    75  C    0.636834
    76  O   -0.558513
    77  N   -0.604145
    78  H    0.361008
    79  C   -0.028792
    80  H    0.199516
    81  C    0.584182
    82  C   -0.283387
    83  H    0.172562
    84  H    0.152082
    85  O   -0.457562
    86  C   -0.278471
    87  H    0.164899
    88  H    0.152123
    89  C   -0.271118
    90  H    0.136528
    91  H    0.154162
    92  C   -0.144359
    93  H    0.140506
    94  H    0.147379
    95  N   -0.754121
    96  H    0.316166
    97  H    0.320714
    98  O   -0.556271
    99  H    0.428003
   100  H    0.466479
 Sum of Mulliken charges =   1.00000

 Dipole moment (field-independent basis, Debye):
    X=              4.5274    Y=             17.3870    Z=            -13.7625  Tot=             22.6321
 Quadrupole moment (field-independent basis, Debye-Ang):
   XX=           -219.6696   YY=           -176.5335   ZZ=           -216.6568
   XY=             14.9997   XZ=            -22.8694   YZ=            -77.5201

 Normal termination of Gaussian 16 at Mon Jun  6 03:38:45 2022.
