 Gaussian 16, Revision C.01,
 Gaussian 16:  ES64L-G16RevC.01  3-Jul-2019

 ----------------------------------------------------------------------
 # B3LYP/6-31G* empiricaldispersion=gd3 guess=read geom=check nosymm in
 tegral(ultrafinegrid)
 ----------------------------------------------------------------------

 ------------------------------------------------------
 Candidate Structure: Conf:112 Charge calc in gas phase
 ------------------------------------------------------
 Structure from the checkpoint file:  "conf-112.chk"
 Charge =  1 Multiplicity = 1

                          Input orientation:
 ---------------------------------------------------------------------
 Center     Atomic      Atomic             Coordinates (Angstroms)
 Number     Number       Type             X           Y           Z
 ---------------------------------------------------------------------
      1          7           0       -6.458542   -0.847272    4.822343
      2          1           0       -5.956416   -0.728437    5.706647
      3          1           0       -7.189226   -1.607866    4.911278
      4          6           0       -5.540675   -1.253823    3.699966
      5          1           0       -4.762635   -1.898620    4.116135
      6          6           0       -4.982579    0.075291    3.137242
      7          6           0       -6.347049   -1.994607    2.614660
      8          1           0       -7.055836   -1.291532    2.156785
      9          1           0       -5.653680   -2.305812    1.827583
     10          8           0       -5.645743    1.097815    3.325320
     11          6           0       -7.153477   -3.170508    3.174934
     12          7           0       -7.272109   -4.256237    2.396613
     13          1           0       -6.835715    0.081594    4.549880
     14          1           0       -7.855704   -5.020194    2.717109
     15          8           0       -7.689895   -3.089743    4.289880
     16          7           0       -3.840931   -0.018238    2.456717
     17          1           0       -3.386376   -0.913710    2.294376
     18          6           0       -3.218238    1.088090    1.727958
     19          1           0       -3.993909    1.835716    1.533928
     20          6           0       -2.696590    0.444334    0.431820
     21          6           0       -2.046300    1.748791    2.531364
     22          1           0       -1.229791    1.015134    2.582149
     23          8           0       -2.353106   -0.746079    0.445117
     24          6           0       -2.493688    2.077723    3.971490
     25          1           0       -2.881522    1.164099    4.438067
     26          1           0       -3.329747    2.789452    3.940306
     27          6           0       -1.531405    2.999560    1.799813
     28          1           0       -2.340222    3.728096    1.649017
     29          1           0       -0.759709    3.493417    2.394700
     30          1           0       -1.072426    2.775929    0.834285
     31          6           0       -1.367682    2.618889    4.861011
     32          1           0       -1.707995    2.703254    5.898559
     33          1           0       -0.498920    1.950012    4.845680
     34          1           0       -1.033136    3.612650    4.549134
     35          7           0       -2.605774    1.234247   -0.658122
     36          1           0       -2.811105    2.219798   -0.542327
     37          6           0       -1.724093    0.896393   -1.797484
     38          1           0       -1.891562   -0.158253   -2.029365
     39          6           0       -0.296285    1.102970   -1.257160
     40          6           0       -2.021995    1.784720   -2.996373
     41          1           0       -1.338888    1.539095   -3.814471
     42          1           0       -3.053630    1.649636   -3.333795
     43          1           0       -1.856401    2.836110   -2.739627
     44          8           0        0.207976    2.238269   -1.204022
     45          7           0        0.255619    0.002544   -0.727148
     46          1           0       -0.018220   -0.942859   -1.083694
     47          6           0        1.517942    0.041150    0.012141
     48          1           0        1.621336    1.042262    0.440592
     49          6           0        2.577991   -0.225191   -1.059803
     50          6           0        1.470408   -1.001553    1.143792
     51          1           0        1.471310   -2.000749    0.685500
     52          8           0        2.961666   -1.372070   -1.317534
     53          6           0        2.669943   -0.875188    2.068749
     54          1           0        3.599364   -1.042031    1.515791
     55          1           0        2.601908   -1.617386    2.868806
     56          1           0        2.697073    0.120630    2.525239
     57          8           0        0.289137   -0.818428    1.924791
     58          1           0       -0.479680   -0.934219    1.337329
     59          7           0        2.906012    0.856551   -1.810766
     60          1           0        2.458155    1.721486   -1.525651
     61          6           0        3.160550    0.734485   -3.255351
     62          1           0        2.575185   -0.127459   -3.604359
     63          6           0        4.596973    0.380987   -3.680611
     64          6           0        2.603065    1.959520   -3.989020
     65          1           0        2.876364    1.873960   -5.040930
     66          1           0        3.065803    2.880788   -3.605337
     67          8           0        5.066645    0.842970   -4.718770
     68          8           0        1.182497    2.004958   -3.911906
     69          1           0        0.914290    2.397693   -3.063129
     70          7           0        5.200271   -0.592152   -2.941645
     71          1           0        4.607271   -1.046300   -2.247128
     72          6           0        6.160057   -1.487029   -3.596639
     73          1           0        6.814491   -0.893249   -4.237632
     74          1           0        6.748970   -2.008151   -2.841498
     75          6           0        5.331455   -2.521489   -4.380647
     76          8           0        5.072293   -3.630774   -3.928098
     77          7           0        4.797784   -2.029767   -5.535270
     78          1           0        5.060733   -1.103937   -5.856973
     79          6           0        3.776182   -2.725309   -6.288061
     80          1           0        3.860732   -3.793678   -6.069680
     81          6           0        4.030818   -2.494481   -7.771924
     82          6           0        2.344183   -2.237610   -5.940961
     83          1           0        2.336275   -1.140388   -6.006772
     84          1           0        1.655857   -2.605950   -6.711877
     85          8           0        4.706862   -1.601604   -8.229373
     86          6           0        1.836029   -2.694942   -4.565324
     87          1           0        1.805750   -3.793018   -4.551517
     88          1           0        2.542299   -2.404127   -3.779857
     89          6           0        0.427950   -2.135976   -4.276143
     90          1           0       -0.173596   -2.209937   -5.192209
     91          1           0        0.483288   -1.064107   -4.034791
     92          6           0       -0.339322   -2.879888   -3.177482
     93          1           0       -1.389507   -2.559366   -3.183017
     94          1           0       -0.334004   -3.955262   -3.415729
     95          7           0        0.194193   -2.613747   -1.824081
     96          1           0        1.211682   -2.705707   -1.814420
     97          1           0       -0.161587   -3.310641   -1.170762
     98          8           0        3.356442   -3.387655   -8.530701
     99          1           0        3.534039   -3.155544   -9.462154
    100          1           0       -6.852422   -4.326429    1.480595
 ---------------------------------------------------------------------

 SCF Done:  E(RB3LYP) =  -2418.59037199     A.U. after    1 cycles

 Alpha  occ. eigenvalues --  -19.28008 -19.26872 -19.25032 -19.24104 -19.21832
 Alpha  occ. eigenvalues --  -19.21428 -19.21218 -19.20738 -19.19350 -19.17590
 Alpha  occ. eigenvalues --  -19.15869 -14.59004 -14.51326 -14.50390 -14.48100
 Alpha  occ. eigenvalues --  -14.44327 -14.44244 -14.40883 -14.40703 -14.40225
 Alpha  occ. eigenvalues --  -10.45618 -10.44139 -10.42138 -10.40989 -10.38109
 Alpha  occ. eigenvalues --  -10.37653 -10.37278 -10.37234 -10.35374 -10.34646
 Alpha  occ. eigenvalues --  -10.33437 -10.33214 -10.31572 -10.31313 -10.30151
 Alpha  occ. eigenvalues --  -10.29699 -10.29457 -10.28920 -10.28787 -10.27448
 Alpha  occ. eigenvalues --  -10.27391 -10.26785 -10.26438 -10.25619 -10.25330
 Alpha  occ. eigenvalues --  -10.24972 -10.24551 -10.24410  -1.20003  -1.19076
 Alpha  occ. eigenvalues --   -1.15933  -1.15882  -1.13606  -1.13326  -1.12397
 Alpha  occ. eigenvalues --   -1.09512  -1.09294  -1.07969  -1.07711  -1.06971
 Alpha  occ. eigenvalues --   -1.06946  -1.06303  -1.04204  -1.01596  -1.00330
 Alpha  occ. eigenvalues --   -0.97756  -0.96869  -0.96601  -0.95404  -0.91481
 Alpha  occ. eigenvalues --   -0.87917  -0.86239  -0.85930  -0.85252  -0.83245
 Alpha  occ. eigenvalues --   -0.82733  -0.81954  -0.80009  -0.78863  -0.77572
 Alpha  occ. eigenvalues --   -0.75977  -0.75618  -0.74513  -0.74213  -0.73715
 Alpha  occ. eigenvalues --   -0.72334  -0.72169  -0.70795  -0.70169  -0.69206
 Alpha  occ. eigenvalues --   -0.69160  -0.68676  -0.67503  -0.66933  -0.66399
 Alpha  occ. eigenvalues --   -0.66349  -0.65515  -0.64682  -0.64576  -0.63769
 Alpha  occ. eigenvalues --   -0.63123  -0.62797  -0.61933  -0.60642  -0.60229
 Alpha  occ. eigenvalues --   -0.59626  -0.59466  -0.59347  -0.58437  -0.58301
 Alpha  occ. eigenvalues --   -0.57945  -0.57761  -0.57243  -0.56952  -0.56390
 Alpha  occ. eigenvalues --   -0.56068  -0.55745  -0.54946  -0.54906  -0.54513
 Alpha  occ. eigenvalues --   -0.54320  -0.54001  -0.52830  -0.52738  -0.52673
 Alpha  occ. eigenvalues --   -0.52410  -0.51966  -0.51704  -0.51556  -0.51062
 Alpha  occ. eigenvalues --   -0.50518  -0.50454  -0.49986  -0.49804  -0.49389
 Alpha  occ. eigenvalues --   -0.49101  -0.48782  -0.48662  -0.48150  -0.47585
 Alpha  occ. eigenvalues --   -0.47276  -0.47131  -0.46993  -0.46397  -0.46052
 Alpha  occ. eigenvalues --   -0.45921  -0.45718  -0.45630  -0.45297  -0.45073
 Alpha  occ. eigenvalues --   -0.44845  -0.44782  -0.44167  -0.43852  -0.43637
 Alpha  occ. eigenvalues --   -0.43553  -0.42666  -0.42592  -0.42316  -0.42282
 Alpha  occ. eigenvalues --   -0.41988  -0.41743  -0.41478  -0.41146  -0.40601
 Alpha  occ. eigenvalues --   -0.40175  -0.39804  -0.39603  -0.39556  -0.39225
 Alpha  occ. eigenvalues --   -0.38837  -0.37602  -0.37045  -0.36445  -0.35652
 Alpha  occ. eigenvalues --   -0.35218  -0.34621  -0.34095  -0.33356  -0.33165
 Alpha  occ. eigenvalues --   -0.32898  -0.32326  -0.30311  -0.29867  -0.28544
 Alpha virt. eigenvalues --   -0.13792  -0.12733  -0.10706  -0.10065  -0.08846
 Alpha virt. eigenvalues --   -0.06516  -0.06033  -0.05574  -0.05426  -0.04354
 Alpha virt. eigenvalues --   -0.03428  -0.02301  -0.01923  -0.01796  -0.01261

 Mulliken charges:
               1
     1  N   -0.751299
     2  H    0.412235
     3  H    0.445429
     4  C   -0.127277
     5  H    0.217906
     6  C    0.649139
     7  C   -0.399813
     8  H    0.230083
     9  H    0.203905
    10  O   -0.525203
    11  C    0.648440
    12  N   -0.725803
    13  H    0.417727
    14  H    0.384809
    15  O   -0.533035
    16  N   -0.596236
    17  H    0.359790
    18  C   -0.075067
    19  H    0.185191
    20  C    0.635417
    21  C   -0.098166
    22  H    0.174889
    23  O   -0.562305
    24  C   -0.250293
    25  H    0.109094
    26  H    0.150851
    27  C   -0.506650
    28  H    0.143788
    29  H    0.179990
    30  H    0.181755
    31  C   -0.456180
    32  H    0.153714
    33  H    0.160547
    34  H    0.163546
    35  N   -0.586484
    36  H    0.352540
    37  C   -0.050239
    38  H    0.186365
    39  C    0.624373
    40  C   -0.491352
    41  H    0.211611
    42  H    0.164360
    43  H    0.173708
    44  O   -0.584516
    45  N   -0.627763
    46  H    0.422045
    47  C   -0.078002
    48  H    0.177491
    49  C    0.629956
    50  C    0.126487
    51  H    0.137064
    52  O   -0.548476
    53  C   -0.460651
    54  H    0.170493
    55  H    0.168869
    56  H    0.153507
    57  O   -0.664115
    58  H    0.425649
    59  N   -0.592084
    60  H    0.352139
    61  C   -0.100380
    62  H    0.199359
    63  C    0.617119
    64  C   -0.079028
    65  H    0.195782
    66  H    0.150844
    67  O   -0.528386
    68  O   -0.654139
    69  H    0.424998
    70  N   -0.597203
    71  H    0.381371
    72  C   -0.233561
    73  H    0.196557
    74  H    0.183790
    75  C    0.584175
    76  O   -0.519486
    77  N   -0.597073
    78  H    0.368952
    79  C   -0.041411
    80  H    0.200173
    81  C    0.578991
    82  C   -0.279964
    83  H    0.150545
    84  H    0.159554
    85  O   -0.452693
    86  C   -0.281246
    87  H    0.148593
    88  H    0.171080
    89  C   -0.288504
    90  H    0.146223
    91  H    0.149324
    92  C   -0.127777
    93  H    0.135002
    94  H    0.141522
    95  N   -0.799668
    96  H    0.364782
    97  H    0.314973
    98  O   -0.567139
    99  H    0.418563
   100  H    0.371499
 Sum of Mulliken charges =   1.00000

 Dipole moment (field-independent basis, Debye):
    X=            -27.0041    Y=             -7.2534    Z=             12.0456  Tot=             30.4456
 Quadrupole moment (field-independent basis, Debye-Ang):
   XX=           -148.0372   YY=           -252.3341   ZZ=           -210.5529
   XY=             56.0335   XZ=            -59.8624   YZ=             -1.8230

 Normal termination of Gaussian 16 at Mon Jun  6 03:54:38 2022.
