 Gaussian 16, Revision C.01,
 Gaussian 16:  ES64L-G16RevC.01  3-Jul-2019

 ----------------------------------------------------------------------
 # B3LYP/6-31G* empiricaldispersion=gd3 guess=read geom=check nosymm in
 tegral(ultrafinegrid)
 ----------------------------------------------------------------------

 ------------------------------------------------------
 Candidate Structure: Conf:879 Charge calc in gas phase
 ------------------------------------------------------
 Structure from the checkpoint file:  "conf-879.chk"
 Charge =  1 Multiplicity = 1

                          Input orientation:
 ---------------------------------------------------------------------
 Center     Atomic      Atomic             Coordinates (Angstroms)
 Number     Number       Type             X           Y           Z
 ---------------------------------------------------------------------
      1          7           0       -7.110680   -0.886793    3.406131
      2          1           0       -7.718285   -1.699791    3.420471
      3          1           0       -7.451429   -0.198710    2.739133
      4          6           0       -5.734220   -1.204348    3.166181
      5          1           0       -5.321762   -1.742457    4.028187
      6          6           0       -4.980263    0.120701    2.945802
      7          6           0       -5.486989   -2.136836    1.902145
      8          1           0       -6.011850   -3.079833    2.083962
      9          1           0       -5.914853   -1.649920    1.021013
     10          8           0       -5.466156    1.041462    2.306260
     11          6           0       -4.027171   -2.442485    1.736458
     12          7           0       -3.372506   -1.768978    0.563087
     13          1           0       -3.950773   -1.782363   -0.281989
     14          1           0       -2.411265   -2.132014    0.334876
     15          8           0       -3.323546   -3.041962    2.500278
     16          7           0       -3.708679    0.145567    3.438226
     17          1           0       -3.395324   -0.624631    4.013243
     18          6           0       -2.838680    1.309391    3.345568
     19          1           0       -3.393568    2.198208    3.675441
     20          6           0       -2.455755    1.544552    1.873330
     21          6           0       -1.637976    1.065064    4.325050
     22          1           0       -1.309517    0.029073    4.150981
     23          8           0       -2.697565    0.706753    0.977820
     24          6           0       -2.156860    1.177905    5.780437
     25          1           0       -3.145250    0.709314    5.860930
     26          1           0       -2.311724    2.241563    6.008520
     27          6           0       -0.410679    1.961196    4.113372
     28          1           0       -0.656784    3.024153    4.239281
     29          1           0        0.344230    1.726361    4.867572
     30          1           0        0.058736    1.818209    3.136771
     31          6           0       -1.230009    0.546905    6.825153
     32          1           0       -1.677528    0.615615    7.821485
     33          1           0       -1.056707   -0.514820    6.610511
     34          1           0       -0.255532    1.042967    6.871903
     35          7           0       -1.816458    2.679225    1.565200
     36          1           0       -1.603815    3.336479    2.304403
     37          6           0       -1.155454    2.907018    0.262186
     38          1           0       -1.847691    2.550426   -0.506478
     39          6           0        0.143046    2.052151    0.189606
     40          6           0       -0.857541    4.385984    0.061020
     41          1           0       -0.426739    4.538296   -0.932140
     42          1           0       -1.776979    4.973390    0.137145
     43          1           0       -0.128583    4.741824    0.795540
     44          8           0        1.267096    2.560093    0.203063
     45          7           0       -0.078446    0.720219    0.134773
     46          1           0       -1.036587    0.404228    0.037671
     47          6           0        0.956825   -0.300129   -0.005642
     48          1           0        1.825121   -0.028289    0.597506
     49          6           0        1.334138   -0.321550   -1.494782
     50          6           0        0.409096   -1.661806    0.457864
     51          1           0        1.187351   -2.403061    0.250749
     52          8           0        0.808674   -1.118872   -2.292503
     53          6           0        0.029415   -1.685613    1.929621
     54          1           0        0.903232   -1.476807    2.554661
     55          1           0       -0.371773   -2.666774    2.200442
     56          1           0       -0.735364   -0.931288    2.141533
     57          8           0       -0.775776   -1.981648   -0.303353
     58          1           0       -0.479539   -1.953711   -1.244849
     59          7           0        2.144219    0.677537   -1.865965
     60          1           0        2.522516    1.264258   -1.132017
     61          6           0        2.330599    1.100811   -3.254654
     62          1           0        1.408595    0.857324   -3.791847
     63          6           0        3.513853    0.292972   -3.808952
     64          6           0        2.559880    2.618890   -3.285892
     65          1           0        2.610422    2.944348   -4.328306
     66          1           0        3.530483    2.849307   -2.826769
     67          8           0        4.656890    0.751105   -3.835841
     68          8           0        1.486657    3.316042   -2.669254
     69          1           0        1.623467    3.309094   -1.707077
     70          7           0        3.196099   -0.981906   -4.154932
     71          1           0        2.277357   -1.314360   -3.872085
     72          6           0        4.238947   -1.991155   -4.334082
     73          1           0        3.827885   -2.838951   -4.882445
     74          1           0        5.054594   -1.542859   -4.907028
     75          6           0        4.725372   -2.493331   -2.965378
     76          8           0        4.414500   -3.588060   -2.509738
     77          7           0        5.471621   -1.592347   -2.267645
     78          1           0        5.602379   -0.661307   -2.652870
     79          6           0        5.857431   -1.864643   -0.897201
     80          1           0        6.553830   -2.707737   -0.872011
     81          6           0        4.636732   -2.255834   -0.062748
     82          6           0        6.508596   -0.604492   -0.294098
     83          1           0        7.356520   -0.337292   -0.935443
     84          1           0        5.781024    0.214606   -0.370222
     85          8           0        3.565008   -1.677948   -0.074035
     86          6           0        6.972783   -0.744288    1.165233
     87          1           0        7.423933    0.212395    1.459189
     88          1           0        6.095991   -0.876470    1.813474
     89          6           0        7.971095   -1.879015    1.445426
     90          1           0        7.485403   -2.850521    1.281707
     91          1           0        8.250022   -1.853027    2.505279
     92          6           0        9.260056   -1.806820    0.621852
     93          1           0        9.021583   -1.899404   -0.454911
     94          1           0        9.716349   -0.816492    0.753992
     95          7           0       10.216912   -2.808184    1.102648
     96          1           0       11.091368   -2.731751    0.585995
     97          1           0        9.858512   -3.743392    0.911352
     98          8           0        4.912466   -3.269463    0.774219
     99          1           0        4.109150   -3.444705    1.298704
    100          1           0       -3.205588   -0.736258    0.830881
 ---------------------------------------------------------------------

 SCF Done:  E(RB3LYP) =  -2418.56902728     A.U. after    2 cycles

 Alpha  occ. eigenvalues --  -19.31123 -19.27780 -19.27528 -19.26859 -19.24038
 Alpha  occ. eigenvalues --  -19.23815 -19.23203 -19.22276 -19.21811 -19.20034
 Alpha  occ. eigenvalues --  -19.18275 -14.55714 -14.50441 -14.49139 -14.47392
 Alpha  occ. eigenvalues --  -14.46208 -14.43931 -14.43128 -14.42329 -14.35788
 Alpha  occ. eigenvalues --  -10.47174 -10.43694 -10.41096 -10.40686 -10.40150
 Alpha  occ. eigenvalues --  -10.39532 -10.36942 -10.36933 -10.36242 -10.35707
 Alpha  occ. eigenvalues --  -10.35231 -10.35207 -10.34378 -10.34015 -10.32519
 Alpha  occ. eigenvalues --  -10.31746 -10.31197 -10.30854 -10.29731 -10.29420
 Alpha  occ. eigenvalues --  -10.29267 -10.28932 -10.28508 -10.27202 -10.26492
 Alpha  occ. eigenvalues --  -10.25774 -10.25097 -10.23352  -1.22660  -1.19105
 Alpha  occ. eigenvalues --   -1.18761  -1.16111  -1.15764  -1.14797  -1.13074
 Alpha  occ. eigenvalues --   -1.11801  -1.10205  -1.10121  -1.09451  -1.09237
 Alpha  occ. eigenvalues --   -1.06597  -1.05673  -1.04265  -1.02573  -1.01247
 Alpha  occ. eigenvalues --   -1.00214  -0.99119  -0.93426  -0.92647  -0.90732
 Alpha  occ. eigenvalues --   -0.90264  -0.88364  -0.87342  -0.85805  -0.85409
 Alpha  occ. eigenvalues --   -0.82886  -0.82351  -0.81657  -0.79067  -0.79059
 Alpha  occ. eigenvalues --   -0.76726  -0.75662  -0.75585  -0.74555  -0.73338
 Alpha  occ. eigenvalues --   -0.73033  -0.71524  -0.71340  -0.70714  -0.70252
 Alpha  occ. eigenvalues --   -0.70022  -0.69285  -0.69038  -0.67867  -0.67410
 Alpha  occ. eigenvalues --   -0.66058  -0.65610  -0.65216  -0.64588  -0.64304
 Alpha  occ. eigenvalues --   -0.64094  -0.62807  -0.62654  -0.62354  -0.61575
 Alpha  occ. eigenvalues --   -0.61142  -0.60369  -0.59425  -0.59171  -0.58799
 Alpha  occ. eigenvalues --   -0.58652  -0.58488  -0.58170  -0.57534  -0.57272
 Alpha  occ. eigenvalues --   -0.56471  -0.56208  -0.56097  -0.55608  -0.55448
 Alpha  occ. eigenvalues --   -0.54741  -0.54389  -0.54129  -0.53664  -0.53346
 Alpha  occ. eigenvalues --   -0.53230  -0.53118  -0.52992  -0.52811  -0.52669
 Alpha  occ. eigenvalues --   -0.51937  -0.51530  -0.51339  -0.50764  -0.50220
 Alpha  occ. eigenvalues --   -0.50084  -0.49970  -0.49721  -0.49565  -0.49252
 Alpha  occ. eigenvalues --   -0.49122  -0.48921  -0.48676  -0.48535  -0.48215
 Alpha  occ. eigenvalues --   -0.48126  -0.47980  -0.47671  -0.47412  -0.47144
 Alpha  occ. eigenvalues --   -0.46984  -0.46846  -0.46229  -0.45907  -0.45713
 Alpha  occ. eigenvalues --   -0.45268  -0.44859  -0.44781  -0.44140  -0.43736
 Alpha  occ. eigenvalues --   -0.43433  -0.43308  -0.41957  -0.41884  -0.41086
 Alpha  occ. eigenvalues --   -0.40707  -0.39839  -0.39709  -0.39490  -0.39001
 Alpha  occ. eigenvalues --   -0.38767  -0.38565  -0.38380  -0.37887  -0.37429
 Alpha  occ. eigenvalues --   -0.36568  -0.36082  -0.35562  -0.35177  -0.35086
 Alpha  occ. eigenvalues --   -0.34940  -0.32601  -0.32323  -0.31023  -0.27992
 Alpha virt. eigenvalues --   -0.17855  -0.13274  -0.10590  -0.10440  -0.08324
 Alpha virt. eigenvalues --   -0.07459  -0.07046  -0.06691  -0.05005  -0.04204
 Alpha virt. eigenvalues --   -0.03960  -0.02647  -0.02544  -0.01604  -0.00995

 Mulliken charges:
               1
     1  N   -0.698117
     2  H    0.323913
     3  H    0.339981
     4  C   -0.048060
     5  H    0.176347
     6  C    0.610566
     7  C   -0.377515
     8  H    0.220823
     9  H    0.180066
    10  O   -0.505825
    11  C    0.538315
    12  N   -0.858389
    13  H    0.395243
    14  H    0.453266
    15  O   -0.377821
    16  N   -0.627691
    17  H    0.350710
    18  C   -0.048316
    19  H    0.201080
    20  C    0.695388
    21  C   -0.118145
    22  H    0.147070
    23  O   -0.614072
    24  C   -0.268991
    25  H    0.147902
    26  H    0.157056
    27  C   -0.499486
    28  H    0.152311
    29  H    0.187198
    30  H    0.170262
    31  C   -0.456808
    32  H    0.175419
    33  H    0.148984
    34  H    0.163185
    35  N   -0.581630
    36  H    0.358708
    37  C   -0.064024
    38  H    0.200730
    39  C    0.638566
    40  C   -0.484758
    41  H    0.207447
    42  H    0.175760
    43  H    0.177778
    44  O   -0.551282
    45  N   -0.616403
    46  H    0.368226
    47  C   -0.069914
    48  H    0.201017
    49  C    0.684858
    50  C    0.109344
    51  H    0.187282
    52  O   -0.584880
    53  C   -0.488904
    54  H    0.171063
    55  H    0.183921
    56  H    0.131751
    57  O   -0.699779
    58  H    0.443214
    59  N   -0.590643
    60  H    0.361254
    61  C   -0.083075
    62  H    0.185131
    63  C    0.631799
    64  C   -0.071206
    65  H    0.179113
    66  H    0.162952
    67  O   -0.539398
    68  O   -0.645969
    69  H    0.419916
    70  N   -0.586650
    71  H    0.370444
    72  C   -0.244710
    73  H    0.190947
    74  H    0.200803
    75  C    0.601895
    76  O   -0.514183
    77  N   -0.628885
    78  H    0.373595
    79  C    0.017730
    80  H    0.189383
    81  C    0.614940
    82  C   -0.317644
    83  H    0.170485
    84  H    0.146693
    85  O   -0.512023
    86  C   -0.275658
    87  H    0.149090
    88  H    0.132040
    89  C   -0.264838
    90  H    0.144868
    91  H    0.157970
    92  C   -0.136404
    93  H    0.111787
    94  H    0.142068
    95  N   -0.714047
    96  H    0.302682
    97  H    0.295278
    98  O   -0.542831
    99  H    0.408492
   100  H    0.472869
 Sum of Mulliken charges =   1.00000

 Dipole moment (field-independent basis, Debye):
    X=             -9.7162    Y=             -1.8393    Z=              8.0826  Tot=             12.7717
 Quadrupole moment (field-independent basis, Debye-Ang):
   XX=           -198.0079   YY=           -266.3119   ZZ=           -241.7400
   XY=             22.1222   XZ=            -29.1844   YZ=              7.0639

 Normal termination of Gaussian 16 at Mon Jun  6 03:52:36 2022.
