 Gaussian 16, Revision C.01,
 Gaussian 16:  ES64L-G16RevC.01  3-Jul-2019

 ----------------------------------------------------------------------
 # B3LYP/6-31G* empiricaldispersion=gd3 guess=read geom=check nosymm in
 tegral(ultrafinegrid)
 ----------------------------------------------------------------------

 ------------------------------------------------------
 Candidate Structure: Conf:242 Charge calc in gas phase
 ------------------------------------------------------
 Structure from the checkpoint file:  "conf-242.chk"
 Charge =  1 Multiplicity = 1

                          Input orientation:
 ---------------------------------------------------------------------
 Center     Atomic      Atomic             Coordinates (Angstroms)
 Number     Number       Type             X           Y           Z
 ---------------------------------------------------------------------
      1          7           0       -6.905395   -2.386231    2.159392
      2          1           0       -7.521948   -3.061973    1.718361
      3          1           0       -6.724666   -2.693168    3.112914
      4          6           0       -7.461131   -1.044544    2.112104
      5          1           0       -7.986136   -0.933762    1.153540
      6          6           0       -6.292317   -0.047841    2.057379
      7          6           0       -8.493763   -0.711485    3.231917
      8          1           0       -9.159808   -1.573036    3.316568
      9          1           0       -7.988517   -0.565785    4.194211
     10          8           0       -6.423279    1.238400    2.264864
     11          6           0       -9.349804    0.480048    2.812178
     12          7           0       -8.931131    1.718136    3.339945
     13          1           0       -7.334393    1.531018    2.566784
     14          1           0       -8.691190    1.736380    4.328994
     15          8           0      -10.184945    0.398055    1.941808
     16          7           0       -5.120936   -0.497911    1.744455
     17          1           0       -5.036110   -1.509355    1.562621
     18          6           0       -3.880559    0.271121    1.600057
     19          1           0       -4.112206    1.192492    1.059820
     20          6           0       -2.956031   -0.651427    0.781884
     21          6           0       -3.281416    0.614577    3.002763
     22          1           0       -4.098646    1.116917    3.539817
     23          8           0       -3.183605   -1.866201    0.751655
     24          6           0       -2.107306    1.612767    2.930136
     25          1           0       -1.239354    1.141814    2.455001
     26          1           0       -1.806322    1.811012    3.966278
     27          6           0       -2.879092   -0.652085    3.772676
     28          1           0       -2.032775   -1.163926    3.300126
     29          1           0       -2.584944   -0.385055    4.792882
     30          1           0       -3.706299   -1.368772    3.842893
     31          6           0       -2.420267    2.947076    2.243293
     32          1           0       -1.582719    3.640762    2.360456
     33          1           0       -2.587315    2.843563    1.164048
     34          1           0       -3.313001    3.417687    2.673481
     35          7           0       -1.923378   -0.042081    0.193654
     36          1           0       -1.767061    0.960337    0.284156
     37          6           0       -0.754416   -0.752713   -0.311457
     38          1           0       -0.497552   -1.524220    0.419298
     39          6           0        0.372780    0.297230   -0.339334
     40          6           0       -1.005507   -1.391915   -1.684321
     41          1           0       -0.124626   -1.943069   -2.028250
     42          1           0       -1.842599   -2.090558   -1.607282
     43          1           0       -1.246173   -0.626274   -2.428707
     44          8           0        0.134344    1.483621   -0.089347
     45          7           0        1.594478   -0.173712   -0.650267
     46          1           0        1.738313   -1.151508   -0.872921
     47          6           0        2.748788    0.684739   -0.836519
     48          1           0        2.386602    1.696706   -1.042684
     49          6           0        3.555992    0.131865   -2.008330
     50          6           0        3.676804    0.730970    0.426889
     51          1           0        4.446626    1.491412    0.224153
     52          8           0        3.459802   -1.045457   -2.361046
     53          6           0        2.896689    1.117312    1.676752
     54          1           0        2.334178    2.043547    1.528166
     55          1           0        3.590774    1.236459    2.513073
     56          1           0        2.191254    0.319789    1.930866
     57          8           0        4.280555   -0.526623    0.658465
     58          1           0        5.092965   -0.583272    0.116149
     59          7           0        4.439396    0.990196   -2.584297
     60          1           0        4.662151    1.854477   -2.102183
     61          6           0        5.548177    0.422032   -3.331168
     62          1           0        5.141909   -0.173757   -4.155258
     63          6           0        6.357642   -0.498013   -2.387070
     64          6           0        6.401865    1.549275   -3.915790
     65          1           0        5.812976    2.072535   -4.684330
     66          1           0        7.288604    1.111633   -4.397895
     67          8           0        6.432191   -0.275857   -1.180202
     68          8           0        6.747860    2.412116   -2.842778
     69          1           0        7.246410    3.164830   -3.194369
     70          7           0        6.951465   -1.562542   -2.977552
     71          1           0        6.738054   -1.768409   -3.944361
     72          6           0        7.654675   -2.574224   -2.200468
     73          1           0        8.353458   -3.107302   -2.847781
     74          1           0        8.232291   -2.069774   -1.421493
     75          6           0        6.783353   -3.626798   -1.494671
     76          8           0        7.322918   -4.605030   -0.994527
     77          7           0        5.451838   -3.375598   -1.398890
     78          1           0        5.011673   -2.642849   -1.941388
     79          6           0        4.585891   -4.328388   -0.732090
     80          1           0        5.091361   -4.670351    0.175521
     81          6           0        4.357189   -5.546300   -1.628404
     82          6           0        3.255280   -3.640714   -0.372033
     83          1           0        3.512857   -2.656000    0.032877
     84          1           0        2.691042   -3.464453   -1.298949
     85          8           0        4.415793   -5.543840   -2.836262
     86          6           0        2.387756   -4.383629    0.648091
     87          1           0        2.117718   -5.381374    0.283385
     88          1           0        2.966446   -4.534853    1.569570
     89          6           0        1.129010   -3.568212    0.959746
     90          1           0        0.519429   -3.495254    0.044666
     91          1           0        1.418271   -2.544703    1.235120
     92          6           0        0.266057   -4.132747    2.086703
     93          1           0       -0.013810   -5.174103    1.849653
     94          1           0        0.861875   -4.169128    3.007009
     95          7           0       -0.890481   -3.254561    2.335128
     96          1           0       -1.399903   -3.581975    3.154744
     97          1           0       -1.554342   -3.304789    1.562861
     98          8           0        4.023865   -6.638608   -0.900752
     99          1           0        3.879080   -7.363309   -1.538482
    100          1           0       -9.541818    2.488998    3.073659
 ---------------------------------------------------------------------

 SCF Done:  E(RB3LYP) =  -2418.56890831     A.U. after    1 cycles

 Alpha  occ. eigenvalues --  -19.35166 -19.26900 -19.24216 -19.23107 -19.22395
 Alpha  occ. eigenvalues --  -19.20429 -19.20297 -19.19523 -19.19455 -19.18287
 Alpha  occ. eigenvalues --  -19.15580 -14.52779 -14.50986 -14.47078 -14.45560
 Alpha  occ. eigenvalues --  -14.44364 -14.44096 -14.43945 -14.40340 -14.37828
 Alpha  occ. eigenvalues --  -10.47199 -10.44011 -10.39724 -10.39472 -10.37258
 Alpha  occ. eigenvalues --  -10.36998 -10.36656 -10.36199 -10.35715 -10.34766
 Alpha  occ. eigenvalues --  -10.33301 -10.32367 -10.31782 -10.31658 -10.30641
 Alpha  occ. eigenvalues --  -10.30570 -10.30405 -10.28806 -10.28224 -10.27323
 Alpha  occ. eigenvalues --  -10.26722 -10.26512 -10.26262 -10.26242 -10.24150
 Alpha  occ. eigenvalues --  -10.23843 -10.23610 -10.23132  -1.25345  -1.18753
 Alpha  occ. eigenvalues --   -1.14925  -1.14580  -1.12908  -1.12054  -1.11167
 Alpha  occ. eigenvalues --   -1.10460  -1.10364  -1.07829  -1.07292  -1.05919
 Alpha  occ. eigenvalues --   -1.05337  -1.04361  -1.02478  -1.00723  -1.00479
 Alpha  occ. eigenvalues --   -1.00245  -0.96960  -0.94174  -0.92816  -0.91286
 Alpha  occ. eigenvalues --   -0.87201  -0.86340  -0.85707  -0.85139  -0.82862
 Alpha  occ. eigenvalues --   -0.81942  -0.81184  -0.80180  -0.79221  -0.78658
 Alpha  occ. eigenvalues --   -0.77961  -0.74672  -0.74117  -0.72995  -0.72487
 Alpha  occ. eigenvalues --   -0.71761  -0.69644  -0.69370  -0.68813  -0.68553
 Alpha  occ. eigenvalues --   -0.67746  -0.67662  -0.66832  -0.66531  -0.66243
 Alpha  occ. eigenvalues --   -0.65422  -0.65163  -0.64320  -0.63816  -0.63429
 Alpha  occ. eigenvalues --   -0.62668  -0.62178  -0.61327  -0.61032  -0.60318
 Alpha  occ. eigenvalues --   -0.59587  -0.58862  -0.58456  -0.57914  -0.57305
 Alpha  occ. eigenvalues --   -0.56859  -0.56484  -0.55680  -0.55654  -0.55504
 Alpha  occ. eigenvalues --   -0.55349  -0.55094  -0.54716  -0.54305  -0.54266
 Alpha  occ. eigenvalues --   -0.53850  -0.52995  -0.52545  -0.52492  -0.52405
 Alpha  occ. eigenvalues --   -0.52185  -0.51932  -0.51324  -0.51171  -0.50795
 Alpha  occ. eigenvalues --   -0.50614  -0.50310  -0.49669  -0.49596  -0.49467
 Alpha  occ. eigenvalues --   -0.49306  -0.48744  -0.48371  -0.48199  -0.47934
 Alpha  occ. eigenvalues --   -0.47677  -0.47058  -0.46609  -0.46221  -0.46024
 Alpha  occ. eigenvalues --   -0.45951  -0.45433  -0.45201  -0.45138  -0.44746
 Alpha  occ. eigenvalues --   -0.44367  -0.44238  -0.44135  -0.43965  -0.43921
 Alpha  occ. eigenvalues --   -0.43685  -0.42711  -0.42293  -0.42189  -0.42104
 Alpha  occ. eigenvalues --   -0.41893  -0.41276  -0.41208  -0.40767  -0.40023
 Alpha  occ. eigenvalues --   -0.39349  -0.38859  -0.38839  -0.38733  -0.38122
 Alpha  occ. eigenvalues --   -0.36522  -0.36092  -0.35991  -0.35626  -0.35141
 Alpha  occ. eigenvalues --   -0.34974  -0.34732  -0.34330  -0.33905  -0.32751
 Alpha  occ. eigenvalues --   -0.32101  -0.31437  -0.30249  -0.29939  -0.29040
 Alpha virt. eigenvalues --   -0.16482  -0.13578  -0.08430  -0.07145  -0.06534
 Alpha virt. eigenvalues --   -0.05847  -0.05574  -0.05505  -0.03504  -0.02574
 Alpha virt. eigenvalues --   -0.01710  -0.01638  -0.00781  -0.00660  -0.00355

 Mulliken charges:
               1
     1  N   -0.738675
     2  H    0.353646
     3  H    0.336903
     4  C   -0.076263
     5  H    0.237464
     6  C    0.614440
     7  C   -0.374452
     8  H    0.220636
     9  H    0.170496
    10  O   -0.582675
    11  C    0.529996
    12  N   -0.785389
    13  H    0.479466
    14  H    0.368251
    15  O   -0.409057
    16  N   -0.541108
    17  H    0.421352
    18  C   -0.081298
    19  H    0.196539
    20  C    0.653317
    21  C   -0.084807
    22  H    0.138640
    23  O   -0.558216
    24  C   -0.278343
    25  H    0.169051
    26  H    0.158612
    27  C   -0.489302
    28  H    0.213685
    29  H    0.163881
    30  H    0.120841
    31  C   -0.461526
    32  H    0.179620
    33  H    0.145179
    34  H    0.145051
    35  N   -0.629402
    36  H    0.380866
    37  C   -0.076800
    38  H    0.221344
    39  C    0.632490
    40  C   -0.456884
    41  H    0.168245
    42  H    0.184082
    43  H    0.165314
    44  O   -0.555177
    45  N   -0.608380
    46  H    0.375120
    47  C   -0.083236
    48  H    0.183078
    49  C    0.622417
    50  C    0.133606
    51  H    0.134501
    52  O   -0.546247
    53  C   -0.453851
    54  H    0.156362
    55  H    0.167226
    56  H    0.156972
    57  O   -0.649511
    58  H    0.451462
    59  N   -0.589365
    60  H    0.361536
    61  C   -0.076732
    62  H    0.180438
    63  C    0.626169
    64  C   -0.048114
    65  H    0.155783
    66  H    0.152296
    67  O   -0.539257
    68  O   -0.615168
    69  H    0.415294
    70  N   -0.597673
    71  H    0.346954
    72  C   -0.236821
    73  H    0.193925
    74  H    0.220289
    75  C    0.619175
    76  O   -0.513560
    77  N   -0.626213
    78  H    0.369965
    79  C   -0.017806
    80  H    0.193084
    81  C    0.596987
    82  C   -0.345599
    83  H    0.200032
    84  H    0.144986
    85  O   -0.468912
    86  C   -0.261911
    87  H    0.152647
    88  H    0.146403
    89  C   -0.276374
    90  H    0.120493
    91  H    0.151610
    92  C   -0.136501
    93  H    0.125140
    94  H    0.148910
    95  N   -0.748933
    96  H    0.297890
    97  H    0.321430
    98  O   -0.564268
    99  H    0.412536
   100  H    0.379675
 Sum of Mulliken charges =   1.00000

 Dipole moment (field-independent basis, Debye):
    X=            -21.6694    Y=              3.4723    Z=              6.3762  Tot=             22.8534
 Quadrupole moment (field-independent basis, Debye-Ang):
   XX=            -61.8172   YY=           -258.5952   ZZ=           -208.8157
   XY=             34.7333   XZ=           -140.5692   YZ=             -8.3171

 Normal termination of Gaussian 16 at Mon Jun  6 03:52:40 2022.
