 Gaussian 16, Revision C.01,
 Gaussian 16:  ES64L-G16RevC.01  3-Jul-2019

 ----------------------------------------------------------------------
 # B3LYP/6-31G* empiricaldispersion=gd3 guess=read geom=check nosymm in
 tegral(ultrafinegrid)
 ----------------------------------------------------------------------

 ------------------------------------------------------
 Candidate Structure: Conf:123 Charge calc in gas phase
 ------------------------------------------------------
 Structure from the checkpoint file:  "conf-123.chk"
 Charge =  1 Multiplicity = 1

                          Input orientation:
 ---------------------------------------------------------------------
 Center     Atomic      Atomic             Coordinates (Angstroms)
 Number     Number       Type             X           Y           Z
 ---------------------------------------------------------------------
      1          7           0       -3.850342   -1.551278    6.779908
      2          1           0       -4.733336   -1.910188    6.417357
      3          1           0       -4.062065   -0.698199    7.293271
      4          6           0       -2.932211   -1.284572    5.676081
      5          1           0       -2.057652   -0.771330    6.101291
      6          6           0       -3.540977   -0.432638    4.546743
      7          6           0       -2.507131   -2.649572    5.093199
      8          1           0       -1.927797   -3.191213    5.852741
      9          1           0       -3.394761   -3.248909    4.876188
     10          8           0       -4.215845   -0.951125    3.660473
     11          6           0       -1.715118   -2.644267    3.810734
     12          7           0       -0.763301   -1.477287    3.605995
     13          1           0       -0.214387   -1.253845    4.440280
     14          1           0       -1.296773   -0.598930    3.262481
     15          8           0       -1.731450   -3.473143    2.950758
     16          7           0       -3.259532    0.898509    4.567467
     17          1           0       -2.622377    1.261057    5.263723
     18          6           0       -3.539242    1.741385    3.409076
     19          1           0       -4.624726    1.829266    3.280752
     20          6           0       -2.941700    1.054107    2.174525
     21          6           0       -2.924295    3.154915    3.623628
     22          1           0       -1.868301    2.995955    3.894282
     23          8           0       -1.884467    0.396049    2.247335
     24          6           0       -3.642138    3.865851    4.793616
     25          1           0       -3.768569    3.171786    5.635107
     26          1           0       -4.658851    4.126159    4.467897
     27          6           0       -2.954346    3.999006    2.339774
     28          1           0       -3.984057    4.123106    1.977735
     29          1           0       -2.561788    4.998617    2.539668
     30          1           0       -2.348740    3.566537    1.538410
     31          6           0       -2.918612    5.118933    5.299349
     32          1           0       -3.443697    5.541457    6.161836
     33          1           0       -1.893984    4.885056    5.613361
     34          1           0       -2.863415    5.900423    4.535744
     35          7           0       -3.545270    1.236438    0.998584
     36          1           0       -4.369687    1.820653    0.950784
     37          6           0       -2.997815    0.708721   -0.255905
     38          1           0       -3.223159   -0.364129   -0.301943
     39          6           0       -1.472478    0.935806   -0.261352
     40          6           0       -3.631167    1.436264   -1.442776
     41          1           0       -3.261674    1.011026   -2.380028
     42          1           0       -4.721537    1.330765   -1.431212
     43          1           0       -3.362124    2.496263   -1.414374
     44          8           0       -1.009152    2.062446   -0.109720
     45          7           0       -0.716673   -0.171237   -0.487791
     46          1           0       -1.163953   -1.061832   -0.309287
     47          6           0        0.718954   -0.149347   -0.189767
     48          1           0        0.873889    0.547032    0.646360
     49          6           0        1.535160    0.355744   -1.408142
     50          6           0        1.200508   -1.555936    0.205231
     51          1           0        1.208579   -2.177660   -0.695617
     52          8           0        2.313987   -0.394405   -2.009982
     53          6           0        2.580226   -1.545722    0.847084
     54          1           0        3.319388   -1.166083    0.138846
     55          1           0        2.872252   -2.560886    1.136018
     56          1           0        2.584938   -0.913507    1.743093
     57          8           0        0.213791   -2.102742    1.129008
     58          1           0        0.227563   -3.071726    1.075378
     59          7           0        1.323487    1.639055   -1.737710
     60          1           0        0.696786    2.220600   -1.180567
     61          6           0        1.981013    2.271337   -2.880601
     62          1           0        2.037953    1.540740   -3.694720
     63          6           0        3.407162    2.700064   -2.481557
     64          6           0        1.160832    3.492550   -3.315734
     65          1           0        0.178289    3.159312   -3.665908
     66          1           0        1.683637    3.982254   -4.146833
     67          8           0        3.686389    3.863304   -2.191017
     68          8           0        0.934515    4.365963   -2.221969
     69          1           0        1.823913    4.689663   -1.980488
     70          7           0        4.332143    1.704304   -2.491469
     71          1           0        3.998284    0.750373   -2.590886
     72          6           0        5.717411    1.987583   -2.139002
     73          1           0        5.792460    2.433842   -1.143480
     74          1           0        6.273813    1.045963   -2.144570
     75          6           0        6.395117    2.985310   -3.097869
     76          8           0        7.308598    3.699213   -2.716604
     77          7           0        5.913641    2.963442   -4.375204
     78          1           0        5.057714    2.446579   -4.533319
     79          6           0        6.113430    4.087850   -5.270407
     80          1           0        6.563005    4.900522   -4.689237
     81          6           0        4.742301    4.538769   -5.756077
     82          6           0        7.042179    3.762392   -6.461360
     83          1           0        6.568927    2.988097   -7.081950
     84          1           0        7.129052    4.661950   -7.083047
     85          8           0        3.710410    3.908681   -5.614601
     86          6           0        8.422663    3.288002   -5.998880
     87          1           0        8.855051    4.032537   -5.316841
     88          1           0        8.322863    2.365267   -5.419467
     89          6           0        9.381197    3.042771   -7.168669
     90          1           0        9.577410    3.985098   -7.698951
     91          1           0        8.907671    2.372329   -7.903293
     92          6           0       10.717375    2.431510   -6.730952
     93          1           0       11.420783    2.455814   -7.582575
     94          1           0       11.156734    3.056553   -5.942754
     95          7           0       10.514790    1.087093   -6.170768
     96          1           0       11.389628    0.739643   -5.781723
     97          1           0       10.268028    0.444158   -6.923044
     98          8           0        4.802158    5.714986   -6.404947
     99          1           0        3.898649    5.922594   -6.710242
    100          1           0       -0.150233   -1.705540    2.779992
 ---------------------------------------------------------------------

 SCF Done:  E(RB3LYP) =  -2418.54899902     A.U. after    3 cycles

 Alpha  occ. eigenvalues --  -19.31171 -19.29497 -19.26136 -19.25733 -19.24413
 Alpha  occ. eigenvalues --  -19.22705 -19.20837 -19.20390 -19.19477 -19.18887
 Alpha  occ. eigenvalues --  -19.15708 -14.55868 -14.49509 -14.49304 -14.46786
 Alpha  occ. eigenvalues --  -14.44457 -14.44149 -14.42840 -14.39964 -14.34491
 Alpha  occ. eigenvalues --  -10.47322 -10.42442 -10.41144 -10.39733 -10.38071
 Alpha  occ. eigenvalues --  -10.37955 -10.36771 -10.36035 -10.36027 -10.35582
 Alpha  occ. eigenvalues --  -10.35356 -10.34070 -10.33999 -10.33255 -10.31248
 Alpha  occ. eigenvalues --  -10.30195 -10.29169 -10.29015 -10.28618 -10.28614
 Alpha  occ. eigenvalues --  -10.28406 -10.28093 -10.27263 -10.26477 -10.23832
 Alpha  occ. eigenvalues --  -10.23069 -10.21339 -10.20806  -1.22788  -1.18228
 Alpha  occ. eigenvalues --   -1.16738  -1.16214  -1.15878  -1.14489  -1.12506
 Alpha  occ. eigenvalues --   -1.10736  -1.09960  -1.07974  -1.07478  -1.06957
 Alpha  occ. eigenvalues --   -1.05722  -1.05575  -1.03342  -1.02075  -1.00579
 Alpha  occ. eigenvalues --   -0.99103  -0.96845  -0.92651  -0.91078  -0.90973
 Alpha  occ. eigenvalues --   -0.90077  -0.88297  -0.84971  -0.84545  -0.83753
 Alpha  occ. eigenvalues --   -0.81624  -0.80810  -0.79822  -0.78841  -0.77705
 Alpha  occ. eigenvalues --   -0.76372  -0.74983  -0.73994  -0.73284  -0.73185
 Alpha  occ. eigenvalues --   -0.72865  -0.71223  -0.70822  -0.70212  -0.69565
 Alpha  occ. eigenvalues --   -0.68237  -0.67724  -0.67520  -0.66959  -0.65669
 Alpha  occ. eigenvalues --   -0.65357  -0.65140  -0.64546  -0.64396  -0.63549
 Alpha  occ. eigenvalues --   -0.62908  -0.62714  -0.61764  -0.61183  -0.60984
 Alpha  occ. eigenvalues --   -0.60499  -0.60178  -0.58749  -0.57996  -0.57751
 Alpha  occ. eigenvalues --   -0.57280  -0.57105  -0.56532  -0.56155  -0.55884
 Alpha  occ. eigenvalues --   -0.55298  -0.54985  -0.54875  -0.54722  -0.54535
 Alpha  occ. eigenvalues --   -0.53315  -0.52960  -0.52871  -0.52785  -0.52534
 Alpha  occ. eigenvalues --   -0.52441  -0.51917  -0.51422  -0.51270  -0.50918
 Alpha  occ. eigenvalues --   -0.50674  -0.50502  -0.50223  -0.50166  -0.49945
 Alpha  occ. eigenvalues --   -0.49588  -0.49203  -0.49109  -0.48878  -0.48556
 Alpha  occ. eigenvalues --   -0.48294  -0.48033  -0.47822  -0.47574  -0.47345
 Alpha  occ. eigenvalues --   -0.47072  -0.46825  -0.46435  -0.46077  -0.46043
 Alpha  occ. eigenvalues --   -0.45647  -0.45309  -0.44860  -0.44589  -0.43888
 Alpha  occ. eigenvalues --   -0.43566  -0.43259  -0.43060  -0.42874  -0.42742
 Alpha  occ. eigenvalues --   -0.41400  -0.40776  -0.40653  -0.40306  -0.39899
 Alpha  occ. eigenvalues --   -0.39637  -0.39354  -0.38859  -0.38685  -0.38061
 Alpha  occ. eigenvalues --   -0.37944  -0.37276  -0.36407  -0.36396  -0.36051
 Alpha  occ. eigenvalues --   -0.35646  -0.35365  -0.34031  -0.33840  -0.33342
 Alpha  occ. eigenvalues --   -0.32746  -0.31081  -0.30016  -0.29095  -0.26618
 Alpha virt. eigenvalues --   -0.17143  -0.12247  -0.10698  -0.09059  -0.08956
 Alpha virt. eigenvalues --   -0.07687  -0.05327  -0.05209  -0.04603  -0.04445
 Alpha virt. eigenvalues --   -0.03743  -0.02339  -0.02169  -0.01242  -0.00554

 Mulliken charges:
               1
     1  N   -0.691144
     2  H    0.330503
     3  H    0.324248
     4  C   -0.084580
     5  H    0.132467
     6  C    0.594926
     7  C   -0.353456
     8  H    0.223821
     9  H    0.234358
    10  O   -0.516354
    11  C    0.568180
    12  N   -0.864219
    13  H    0.387206
    14  H    0.460690
    15  O   -0.366200
    16  N   -0.621175
    17  H    0.338725
    18  C   -0.026360
    19  H    0.179741
    20  C    0.700042
    21  C   -0.110431
    22  H    0.136221
    23  O   -0.619262
    24  C   -0.264145
    25  H    0.131023
    26  H    0.153716
    27  C   -0.501687
    28  H    0.139364
    29  H    0.182458
    30  H    0.203690
    31  C   -0.453025
    32  H    0.168808
    33  H    0.147145
    34  H    0.168281
    35  N   -0.587221
    36  H    0.357467
    37  C   -0.016724
    38  H    0.171825
    39  C    0.647956
    40  C   -0.495968
    41  H    0.189784
    42  H    0.171638
    43  H    0.201107
    44  O   -0.527423
    45  N   -0.598091
    46  H    0.345969
    47  C   -0.064019
    48  H    0.175651
    49  C    0.647842
    50  C    0.094788
    51  H    0.184992
    52  O   -0.555238
    53  C   -0.465520
    54  H    0.203292
    55  H    0.159062
    56  H    0.141314
    57  O   -0.666077
    58  H    0.430067
    59  N   -0.616679
    60  H    0.396017
    61  C   -0.081529
    62  H    0.179833
    63  C    0.628401
    64  C   -0.068121
    65  H    0.143307
    66  H    0.182777
    67  O   -0.529843
    68  O   -0.638353
    69  H    0.420955
    70  N   -0.629876
    71  H    0.369912
    72  C   -0.222000
    73  H    0.196689
    74  H    0.182468
    75  C    0.610373
    76  O   -0.505278
    77  N   -0.581793
    78  H    0.339641
    79  C   -0.052719
    80  H    0.205474
    81  C    0.593178
    82  C   -0.264333
    83  H    0.133319
    84  H    0.155894
    85  O   -0.488729
    86  C   -0.251326
    87  H    0.147188
    88  H    0.172599
    89  C   -0.255193
    90  H    0.131451
    91  H    0.121109
    92  C   -0.141616
    93  H    0.117971
    94  H    0.143918
    95  N   -0.714404
    96  H    0.299357
    97  H    0.290887
    98  O   -0.552705
    99  H    0.417550
   100  H    0.434182
 Sum of Mulliken charges =   1.00000

 Dipole moment (field-independent basis, Debye):
    X=             -7.9549    Y=             -2.3716    Z=             11.9894  Tot=             14.5825
 Quadrupole moment (field-independent basis, Debye-Ang):
   XX=           -227.2447   YY=           -266.0099   ZZ=           -153.6305
   XY=            -33.7134   XZ=            -59.5383   YZ=            -11.1934

 Normal termination of Gaussian 16 at Mon Jun  6 03:39:31 2022.
