 Gaussian 16, Revision C.01,
 Gaussian 16:  ES64L-G16RevC.01  3-Jul-2019

 ----------------------------------------------------------------------
 # B3LYP/6-31G* empiricaldispersion=gd3 guess=read geom=check nosymm in
 tegral(ultrafinegrid)
 ----------------------------------------------------------------------

 ------------------------------------------------------
 Candidate Structure: Conf:102 Charge calc in gas phase
 ------------------------------------------------------
 Structure from the checkpoint file:  "conf-102.chk"
 Charge =  1 Multiplicity = 1

                          Input orientation:
 ---------------------------------------------------------------------
 Center     Atomic      Atomic             Coordinates (Angstroms)
 Number     Number       Type             X           Y           Z
 ---------------------------------------------------------------------
      1          7           0       -2.670175   -2.610223    1.927593
      2          1           0       -3.491267   -3.081603    2.310310
      3          1           0       -1.774145   -3.207692    2.120772
      4          1           0       -2.734422   -2.534582    0.887943
      5          6           0       -2.532871   -1.177721    2.395203
      6          1           0       -3.421450   -0.905554    2.970038
      7          6           0       -2.420489   -0.369809    1.076620
      8          6           0       -1.265171   -1.076023    3.287739
      9          1           0       -1.356998   -1.860991    4.049983
     10          1           0       -0.397963   -1.327254    2.669236
     11          8           0       -2.235490   -1.028903    0.035045
     12          6           0       -1.055842    0.258122    3.960002
     13          6           0       -0.101853    1.156234    3.470288
     14          1           0        0.493223    0.905357    2.598867
     15          6           0       -1.834862    0.620792    5.067109
     16          1           0       -2.568157   -0.077582    5.467085
     17          6           0        0.055556    2.410541    4.061859
     18          1           0        0.786187    3.102961    3.655411
     19          6           0       -1.676878    1.872041    5.662320
     20          1           0       -2.284466    2.144080    6.520469
     21          6           0       -0.733121    2.771495    5.156485
     22          1           0       -0.611381    3.747001    5.618142
     23          7           0       -2.418868    0.965211    1.099887
     24          6           0       -1.945052    1.700743   -0.108586
     25          1           0       -2.463742    1.302122   -0.985959
     26          6           0       -0.416222    1.476037   -0.211517
     27          6           0       -2.327857    3.157583    0.186008
     28          1           0       -1.475712    3.650818    0.663283
     29          1           0       -2.577637    3.700544   -0.728299
     30          8           0        0.374138    2.122659    0.471533
     31          6           0       -3.504006    3.042369    1.168184
     32          1           0       -3.670397    3.957334    1.742598
     33          1           0       -4.432123    2.793841    0.640829
     34          6           0       -3.071518    1.879886    2.068127
     35          1           0       -3.900590    1.374496    2.569500
     36          1           0       -2.355471    2.217270    2.817133
     37          7           0       -0.042613    0.486520   -1.053624
     38          1           0       -0.743513   -0.088796   -1.505500
     39          6           0        1.335935    0.042981   -1.163460
     40          1           0        1.984533    0.923371   -1.174666
     41          6           0        1.474668   -0.704464   -2.481888
     42          6           0        1.781884   -0.870335    0.010150
     43          1           0        1.721901   -0.268949    0.924447
     44          1           0        2.840245   -1.113815   -0.141880
     45          8           0        0.545938   -1.167586   -3.108160
     46          6           0        0.959897   -2.159028    0.160706
     47          1           0       -0.085161   -1.906632    0.365139
     48          1           0        0.949559   -2.708854   -0.790066
     49          6           0        1.523337   -3.083448    1.248869
     50          1           0        1.625182   -2.542186    2.202186
     51          1           0        2.544380   -3.370669    0.969062
     52          6           0        0.721625   -4.373570    1.476854
     53          1           0        0.309449   -4.735666    0.528664
     54          1           0        1.387972   -5.156523    1.860409
     55          7           0       -0.425211   -4.192679    2.421399
     56          1           0       -0.046543   -3.891871    3.322179
     57          1           0       -0.828656   -5.114441    2.603979
     58          8           0        2.765971   -0.843875   -2.830682
     59          1           0        2.791181   -1.357828   -3.660819
 ---------------------------------------------------------------------

 SCF Done:  E(RB3LYP) =  -1300.62709344     A.U. after    1 cycles

 Alpha  occ. eigenvalues --  -19.29170 -19.26014 -19.23667 -19.21090 -14.55809
 Alpha  occ. eigenvalues --  -14.49593 -14.48079 -14.45506 -10.42697 -10.41635
 Alpha  occ. eigenvalues --  -10.39702 -10.38421 -10.33881 -10.33672 -10.33368
 Alpha  occ. eigenvalues --  -10.33350 -10.33331 -10.30354 -10.29811 -10.29265
 Alpha  occ. eigenvalues --  -10.29163 -10.28903 -10.28777 -10.28612 -10.28566
 Alpha  occ. eigenvalues --  -10.28550 -10.28533 -10.28364  -1.20177  -1.18227
 Alpha  occ. eigenvalues --   -1.13123  -1.11302  -1.10810  -1.06767  -1.03012
 Alpha  occ. eigenvalues --   -1.02239  -0.96245  -0.92412  -0.90799  -0.89993
 Alpha  occ. eigenvalues --   -0.87386  -0.85346  -0.84468  -0.84226  -0.80522
 Alpha  occ. eigenvalues --   -0.78898  -0.76247  -0.73973  -0.72382  -0.72206
 Alpha  occ. eigenvalues --   -0.70542  -0.70337  -0.70221  -0.69175  -0.66961
 Alpha  occ. eigenvalues --   -0.66750  -0.66507  -0.63448  -0.62965  -0.62276
 Alpha  occ. eigenvalues --   -0.61928  -0.60715  -0.60133  -0.59213  -0.58416
 Alpha  occ. eigenvalues --   -0.58272  -0.57062  -0.56511  -0.56114  -0.55665
 Alpha  occ. eigenvalues --   -0.55460  -0.54854  -0.54353  -0.53795  -0.52725
 Alpha  occ. eigenvalues --   -0.52236  -0.51640  -0.51310  -0.51233  -0.50971
 Alpha  occ. eigenvalues --   -0.50694  -0.49534  -0.49204  -0.49026  -0.48591
 Alpha  occ. eigenvalues --   -0.47332  -0.46969  -0.46075  -0.45402  -0.45090
 Alpha  occ. eigenvalues --   -0.44787  -0.44191  -0.44079  -0.43750  -0.43553
 Alpha  occ. eigenvalues --   -0.43482  -0.41260  -0.40424  -0.40351  -0.37984
 Alpha  occ. eigenvalues --   -0.37267  -0.35426  -0.34695  -0.34556  -0.34099
 Alpha virt. eigenvalues --   -0.12834  -0.10712  -0.10047  -0.08900  -0.08730
 Alpha virt. eigenvalues --   -0.07757  -0.05682  -0.03836  -0.02985  -0.01469
 Alpha virt. eigenvalues --   -0.01167  -0.01024   0.00205   0.00477   0.01143

 Mulliken charges:
               1
     1  N   -0.811873
     2  H    0.387778
     3  H    0.462154
     4  H    0.416491
     5  C   -0.071984
     6  H    0.198992
     7  C    0.612313
     8  C   -0.399904
     9  H    0.164269
    10  H    0.189873
    11  O   -0.544546
    12  C    0.159498
    13  C   -0.188071
    14  H    0.171306
    15  C   -0.186034
    16  H    0.126202
    17  C   -0.139618
    18  H    0.168227
    19  C   -0.130646
    20  H    0.156619
    21  C   -0.129605
    22  H    0.160186
    23  N   -0.430000
    24  C   -0.047804
    25  H    0.181573
    26  C    0.612583
    27  C   -0.314722
    28  H    0.198895
    29  H    0.179038
    30  O   -0.526586
    31  C   -0.301169
    32  H    0.178897
    33  H    0.163475
    34  C   -0.152234
    35  H    0.160022
    36  H    0.208347
    37  N   -0.594811
    38  H    0.370465
    39  C   -0.033016
    40  H    0.208582
    41  C    0.587459
    42  C   -0.294483
    43  H    0.174630
    44  H    0.173080
    45  O   -0.463583
    46  C   -0.296694
    47  H    0.145161
    48  H    0.159894
    49  C   -0.275663
    50  H    0.139587
    51  H    0.170516
    52  C   -0.151299
    53  H    0.173076
    54  H    0.168461
    55  N   -0.789219
    56  H    0.337550
    57  H    0.340604
    58  O   -0.559409
    59  H    0.427169
 Sum of Mulliken charges =   1.00000

 Dipole moment (field-independent basis, Debye):
    X=             -8.0969    Y=             -8.5934    Z=             10.3741  Tot=             15.7171
 Quadrupole moment (field-independent basis, Debye-Ang):
   XX=           -122.7933   YY=           -106.1100   ZZ=           -120.6566
   XY=              0.0508   XZ=            -32.7191   YZ=            -17.7832

 Normal termination of Gaussian 16 at Thu Jun  2 02:39:03 2022.
