 Gaussian 16, Revision C.01,
 Gaussian 16:  ES64L-G16RevC.01  3-Jul-2019

 ----------------------------------------------------------------------
 # B3LYP/6-31G* empiricaldispersion=gd3 guess=read geom=check nosymm in
 tegral(ultrafinegrid)
 ----------------------------------------------------------------------

 ------------------------------------------------------
 Candidate Structure: Conf:472 Charge calc in gas phase
 ------------------------------------------------------
 Structure from the checkpoint file:  "conf-472.chk"
 Charge =  1 Multiplicity = 1

                          Input orientation:
 ---------------------------------------------------------------------
 Center     Atomic      Atomic             Coordinates (Angstroms)
 Number     Number       Type             X           Y           Z
 ---------------------------------------------------------------------
      1          7           0       -4.521335   -0.707138   -3.518149
      2          1           0       -5.543591   -0.730647   -3.541995
      3          1           0       -4.133282   -1.008341   -4.424586
      4          1           0       -4.185810    0.278698   -3.318589
      5          6           0       -3.914864   -1.484420   -2.370774
      6          1           0       -4.696455   -2.093804   -1.912819
      7          6           0       -3.428610   -0.370107   -1.411520
      8          6           0       -2.750113   -2.379207   -2.896291
      9          1           0       -2.082187   -2.593184   -2.056438
     10          1           0       -3.173145   -3.336487   -3.217478
     11          8           0       -3.343936    0.778166   -1.870345
     12          6           0       -1.977013   -1.746261   -4.035831
     13          6           0       -2.143165   -2.226213   -5.345090
     14          1           0       -2.785392   -3.085638   -5.530020
     15          6           0       -1.121584   -0.655741   -3.812479
     16          1           0       -0.998845   -0.257241   -2.811281
     17          6           0       -1.450316   -1.638396   -6.408648
     18          1           0       -1.577161   -2.026755   -7.414732
     19          6           0       -0.419550   -0.081802   -4.870807
     20          1           0        0.265070    0.737196   -4.674988
     21          6           0       -0.584335   -0.570859   -6.170633
     22          1           0       -0.034463   -0.123017   -6.992751
     23          7           0       -3.075249   -0.712038   -0.167961
     24          6           0       -2.516752    0.313024    0.746324
     25          1           0       -3.058587    1.252306    0.625643
     26          6           0       -1.036679    0.641691    0.468079
     27          6           0       -2.713966   -0.322170    2.136602
     28          1           0       -1.972590    0.041280    2.851045
     29          1           0       -3.707383   -0.065215    2.519628
     30          8           0       -0.555250    1.671695    0.907179
     31          6           0       -2.616796   -1.831527    1.861200
     32          1           0       -1.568595   -2.132555    1.755095
     33          1           0       -3.064090   -2.445048    2.646391
     34          6           0       -3.350133   -1.996568    0.521321
     35          1           0       -4.431203   -2.110102    0.670471
     36          1           0       -2.989230   -2.850754   -0.058476
     37          7           0       -0.336233   -0.282908   -0.252833
     38          1           0       -0.741921   -1.190407   -0.427533
     39          6           0        1.103197   -0.145616   -0.477213
     40          1           0        1.312479    0.916207   -0.618610
     41          6           0        1.464564   -0.855401   -1.771611
     42          6           0        1.935237   -0.682147    0.707121
     43          1           0        1.698082   -1.744969    0.851632
     44          1           0        1.591553   -0.143363    1.597876
     45          8           0        2.176387   -0.421837   -2.642746
     46          6           0        3.445928   -0.489095    0.533779
     47          1           0        3.795195   -1.029065   -0.358165
     48          1           0        3.647879    0.575112    0.357051
     49          6           0        4.234100   -0.960262    1.761691
     50          1           0        4.002149   -2.016406    1.961946
     51          1           0        3.915959   -0.382168    2.638530
     52          6           0        5.751481   -0.807719    1.604027
     53          1           0        6.233106   -1.169647    2.519622
     54          1           0        6.097411   -1.466690    0.785476
     55          7           0        6.124163    0.601623    1.430093
     56          1           0        5.967950    0.890307    0.466267
     57          1           0        7.121406    0.719977    1.595646
     58          8           0        0.890904   -2.094910   -1.833088
     59          1           0        1.171162   -2.487305   -2.681982
 ---------------------------------------------------------------------

 SCF Done:  E(RB3LYP) =  -1300.58869498     A.U. after    2 cycles

 Alpha  occ. eigenvalues --  -19.30297 -19.27998 -19.24260 -19.21563 -14.60441
 Alpha  occ. eigenvalues --  -14.51737 -14.46939 -14.36365 -10.44644 -10.42220
 Alpha  occ. eigenvalues --  -10.42140 -10.39202 -10.36688 -10.35515 -10.35153
 Alpha  occ. eigenvalues --  -10.33331 -10.33018 -10.31743 -10.31639 -10.30975
 Alpha  occ. eigenvalues --  -10.30924 -10.30904 -10.30562 -10.30508 -10.27443
 Alpha  occ. eigenvalues --  -10.26189 -10.25453 -10.24072  -1.20769  -1.20515
 Alpha  occ. eigenvalues --   -1.14772  -1.13829  -1.11908  -1.09315  -1.03145
 Alpha  occ. eigenvalues --   -0.98472  -0.94847  -0.93194  -0.92348  -0.89545
 Alpha  occ. eigenvalues --   -0.87926  -0.86932  -0.86469  -0.83125  -0.81069
 Alpha  occ. eigenvalues --   -0.78329  -0.77011  -0.75093  -0.73767  -0.73141
 Alpha  occ. eigenvalues --   -0.72409  -0.71941  -0.71136  -0.70695  -0.68880
 Alpha  occ. eigenvalues --   -0.68201  -0.65751  -0.64655  -0.64106  -0.63430
 Alpha  occ. eigenvalues --   -0.62417  -0.60855  -0.60004  -0.59324  -0.58174
 Alpha  occ. eigenvalues --   -0.57800  -0.57412  -0.56741  -0.56453  -0.55650
 Alpha  occ. eigenvalues --   -0.55056  -0.54452  -0.54273  -0.53871  -0.53614
 Alpha  occ. eigenvalues --   -0.53187  -0.52765  -0.52175  -0.51678  -0.51274
 Alpha  occ. eigenvalues --   -0.50534  -0.50068  -0.48993  -0.48334  -0.48132
 Alpha  occ. eigenvalues --   -0.47938  -0.46966  -0.46270  -0.46052  -0.45870
 Alpha  occ. eigenvalues --   -0.45261  -0.44519  -0.43672  -0.42359  -0.42255
 Alpha  occ. eigenvalues --   -0.40602  -0.40350  -0.39839  -0.39382  -0.38178
 Alpha  occ. eigenvalues --   -0.37255  -0.36951  -0.35521  -0.34433  -0.28654
 Alpha virt. eigenvalues --   -0.14530  -0.13073  -0.12748  -0.10862  -0.09872
 Alpha virt. eigenvalues --   -0.07894  -0.06978  -0.06158  -0.03431  -0.03202
 Alpha virt. eigenvalues --   -0.02222  -0.01642  -0.00902  -0.00182   0.00843

 Mulliken charges:
               1
     1  N   -0.759199
     2  H    0.412933
     3  H    0.409142
     4  H    0.438112
     5  C   -0.092756
     6  H    0.211161
     7  C    0.631168
     8  C   -0.386352
     9  H    0.201165
    10  H    0.191261
    11  O   -0.526898
    12  C    0.080994
    13  C   -0.214126
    14  H    0.149309
    15  C   -0.191430
    16  H    0.173058
    17  C   -0.121741
    18  H    0.168723
    19  C   -0.125165
    20  H    0.183128
    21  C   -0.124939
    22  H    0.173241
    23  N   -0.471855
    24  C   -0.056751
    25  H    0.215694
    26  C    0.629322
    27  C   -0.305501
    28  H    0.206734
    29  H    0.177989
    30  O   -0.491619
    31  C   -0.314006
    32  H    0.173344
    33  H    0.190889
    34  C   -0.158241
    35  H    0.183585
    36  H    0.174829
    37  N   -0.637756
    38  H    0.342678
    39  C   -0.022588
    40  H    0.212890
    41  C    0.584521
    42  C   -0.275683
    43  H    0.138007
    44  H    0.175478
    45  O   -0.445852
    46  C   -0.281463
    47  H    0.140499
    48  H    0.161201
    49  C   -0.236865
    50  H    0.123582
    51  H    0.151078
    52  C   -0.147973
    53  H    0.148506
    54  H    0.116890
    55  N   -0.716665
    56  H    0.298492
    57  H    0.307132
    58  O   -0.594861
    59  H    0.423551
 Sum of Mulliken charges =   1.00000

 Dipole moment (field-independent basis, Debye):
    X=            -15.9947    Y=            -10.5791    Z=            -12.1526  Tot=             22.7032
 Quadrupole moment (field-independent basis, Debye-Ang):
   XX=            -64.9545   YY=           -153.2701   ZZ=            -96.1638
   XY=             23.0787   XZ=             43.7338   YZ=             13.5435

 Normal termination of Gaussian 16 at Thu Jun  2 02:48:50 2022.
