 Gaussian 16, Revision C.01,
 Gaussian 16:  ES64L-G16RevC.01  3-Jul-2019

 ----------------------------------------------------------------------
 # B3LYP/6-31G* empiricaldispersion=gd3 guess=read geom=check nosymm in
 tegral(ultrafinegrid)
 ----------------------------------------------------------------------

 ------------------------------------------------------
 Candidate Structure: Conf:876 Charge calc in gas phase
 ------------------------------------------------------
 Structure from the checkpoint file:  "conf-876.chk"
 Charge =  1 Multiplicity = 1

                          Input orientation:
 ---------------------------------------------------------------------
 Center     Atomic      Atomic             Coordinates (Angstroms)
 Number     Number       Type             X           Y           Z
 ---------------------------------------------------------------------
      1          7           0       -2.019972    2.345686    2.971703
      2          1           0       -2.671672    1.603519    3.229083
      3          1           0       -2.280054    3.157234    3.531360
      4          1           0       -0.183046    1.683615    3.366318
      5          6           0       -2.189982    2.692295    1.542003
      6          1           0       -3.180741    3.120514    1.343769
      7          6           0       -2.002687    1.425045    0.695645
      8          6           0       -1.120970    3.762959    1.177358
      9          1           0       -1.120080    4.496609    1.994515
     10          1           0       -0.134722    3.283364    1.180767
     11          8           0       -1.280126    0.484072    1.104050
     12          6           0       -1.370684    4.461326   -0.137916
     13          6           0       -2.366107    5.444673   -0.228616
     14          1           0       -2.910367    5.746256    0.664668
     15          6           0       -0.666373    4.096494   -1.289366
     16          1           0        0.088871    3.320441   -1.242432
     17          6           0       -2.668538    6.036995   -1.454201
     18          1           0       -3.440917    6.798617   -1.511928
     19          6           0       -0.969472    4.686193   -2.518459
     20          1           0       -0.422261    4.382525   -3.406091
     21          6           0       -1.972855    5.653285   -2.604855
     22          1           0       -2.207663    6.112930   -3.560633
     23          7           0       -2.572836    1.332438   -0.510558
     24          6           0       -2.218368    0.182061   -1.376098
     25          1           0       -2.586788   -0.737183   -0.905147
     26          6           0       -0.693569    0.126080   -1.574591
     27          6           0       -2.960524    0.489870   -2.688476
     28          1           0       -2.310676    1.105201   -3.319309
     29          1           0       -3.218960   -0.420977   -3.233527
     30          8           0       -0.077387    1.107555   -1.979793
     31          6           0       -4.178871    1.303640   -2.230791
     32          1           0       -4.631736    1.884237   -3.038351
     33          1           0       -4.947856    0.645809   -1.809657
     34          6           0       -3.589861    2.206665   -1.142169
     35          1           0       -4.327409    2.532172   -0.404749
     36          1           0       -3.109907    3.085750   -1.575280
     37          7           0       -0.093950   -1.059102   -1.310128
     38          1           0       -0.626108   -1.819119   -0.912173
     39          6           0        1.356128   -1.181649   -1.397242
     40          1           0        1.660693   -0.712736   -2.341325
     41          6           0        1.810054   -2.634926   -1.473991
     42          6           0        2.091093   -0.439238   -0.258317
     43          1           0        1.758704    0.602143   -0.307616
     44          1           0        3.162414   -0.458116   -0.483324
     45          8           0        2.958110   -2.976858   -1.317380
     46          6           0        1.850090   -1.043337    1.130599
     47          1           0        0.771834   -1.171301    1.294080
     48          1           0        2.290961   -2.045917    1.160770
     49          6           0        2.476746   -0.220078    2.272214
     50          1           0        3.515811    0.023749    2.019951
     51          1           0        2.526119   -0.826755    3.187559
     52          6           0        1.767786    1.096175    2.601145
     53          1           0        2.310370    1.663344    3.361490
     54          1           0        1.647297    1.728804    1.718058
     55          7           0        0.382286    0.838580    3.121847
     56          1           0        0.390073    0.199457    3.920913
     57          1           0       -0.242206    0.465278    2.353381
     58          8           0        0.799683   -3.496609   -1.733669
     59          1           0        1.194817   -4.388682   -1.783823
 ---------------------------------------------------------------------

 SCF Done:  E(RB3LYP) =  -1300.63804227     A.U. after    3 cycles

 Alpha  occ. eigenvalues --  -19.29771 -19.25229 -19.23573 -19.21632 -14.54924
 Alpha  occ. eigenvalues --  -14.49069 -14.46852 -14.46516 -10.42018 -10.41648
 Alpha  occ. eigenvalues --  -10.39039 -10.36945 -10.35791 -10.34280 -10.34065
 Alpha  occ. eigenvalues --  -10.32852 -10.31470 -10.31018 -10.29573 -10.29215
 Alpha  occ. eigenvalues --  -10.29194 -10.28825 -10.28791 -10.27851 -10.27541
 Alpha  occ. eigenvalues --  -10.27373 -10.27256 -10.27126  -1.20478  -1.16875
 Alpha  occ. eigenvalues --   -1.13719  -1.11473  -1.10517  -1.06105  -1.03010
 Alpha  occ. eigenvalues --   -1.02906  -0.94546  -0.92237  -0.91120  -0.88387
 Alpha  occ. eigenvalues --   -0.88336  -0.85621  -0.82926  -0.82368  -0.82225
 Alpha  occ. eigenvalues --   -0.77581  -0.76977  -0.74558  -0.72461  -0.71598
 Alpha  occ. eigenvalues --   -0.70071  -0.69633  -0.69202  -0.67973  -0.67508
 Alpha  occ. eigenvalues --   -0.67404  -0.66102  -0.64321  -0.62965  -0.62016
 Alpha  occ. eigenvalues --   -0.61418  -0.60839  -0.59266  -0.58823  -0.58318
 Alpha  occ. eigenvalues --   -0.57738  -0.57460  -0.56972  -0.56088  -0.55654
 Alpha  occ. eigenvalues --   -0.54366  -0.54108  -0.54005  -0.53390  -0.52345
 Alpha  occ. eigenvalues --   -0.51997  -0.51726  -0.51388  -0.51098  -0.50218
 Alpha  occ. eigenvalues --   -0.50038  -0.49644  -0.49377  -0.48783  -0.48459
 Alpha  occ. eigenvalues --   -0.48124  -0.47802  -0.46025  -0.45619  -0.44989
 Alpha  occ. eigenvalues --   -0.44656  -0.44459  -0.43715  -0.43491  -0.42859
 Alpha  occ. eigenvalues --   -0.42466  -0.41515  -0.39707  -0.39302  -0.37529
 Alpha  occ. eigenvalues --   -0.37276  -0.35832  -0.34989  -0.33486  -0.33234
 Alpha virt. eigenvalues --   -0.11716  -0.09330  -0.09199  -0.08673  -0.08102
 Alpha virt. eigenvalues --   -0.07488  -0.04595  -0.04136  -0.02678  -0.01434
 Alpha virt. eigenvalues --   -0.00798  -0.00170   0.00027   0.01052   0.01367

 Mulliken charges:
               1
     1  N   -0.775766
     2  H    0.330497
     3  H    0.337060
     4  H    0.416089
     5  C   -0.063158
     6  H    0.166786
     7  C    0.632767
     8  C   -0.363909
     9  H    0.164962
    10  H    0.150235
    11  O   -0.606152
    12  C    0.151948
    13  C   -0.185010
    14  H    0.126561
    15  C   -0.179078
    16  H    0.162971
    17  C   -0.132467
    18  H    0.151435
    19  C   -0.142335
    20  H    0.154807
    21  C   -0.131320
    22  H    0.153036
    23  N   -0.429545
    24  C   -0.028025
    25  H    0.159697
    26  C    0.650189
    27  C   -0.313790
    28  H    0.192383
    29  H    0.176161
    30  O   -0.534607
    31  C   -0.305600
    32  H    0.180335
    33  H    0.163459
    34  C   -0.145810
    35  H    0.167837
    36  H    0.213042
    37  N   -0.605905
    38  H    0.348394
    39  C   -0.049508
    40  H    0.219990
    41  C    0.585909
    42  C   -0.271056
    43  H    0.165150
    44  H    0.180138
    45  O   -0.446726
    46  C   -0.298569
    47  H    0.141204
    48  H    0.179804
    49  C   -0.289714
    50  H    0.188750
    51  H    0.156907
    52  C   -0.191797
    53  H    0.201532
    54  H    0.208232
    55  N   -0.776956
    56  H    0.380629
    57  H    0.451540
    58  O   -0.572936
    59  H    0.429304
 Sum of Mulliken charges =   1.00000

 Dipole moment (field-independent basis, Debye):
    X=             -6.2560    Y=              4.8221    Z=              7.4876  Tot=             10.8837
 Quadrupole moment (field-independent basis, Debye-Ang):
   XX=           -133.4884   YY=           -126.5605   ZZ=           -115.8212
   XY=            -17.3197   XZ=              8.7862   YZ=             12.1165

 Normal termination of Gaussian 16 at Thu Jun  2 02:56:09 2022.
