 Gaussian 16, Revision C.01,
 Gaussian 16:  ES64L-G16RevC.01  3-Jul-2019

 ----------------------------------------------------------------------
 # B3LYP/6-31G* empiricaldispersion=gd3 guess=read geom=check nosymm in
 tegral(ultrafinegrid)
 ----------------------------------------------------------------------

 ------------------------------------------------------
 Candidate Structure: Conf:365 Charge calc in gas phase
 ------------------------------------------------------
 Structure from the checkpoint file:  "conf-365.chk"
 Charge =  1 Multiplicity = 1

                          Input orientation:
 ---------------------------------------------------------------------
 Center     Atomic      Atomic             Coordinates (Angstroms)
 Number     Number       Type             X           Y           Z
 ---------------------------------------------------------------------
      1          7           0       -0.550676    1.845112    3.074171
      2          1           0       -0.160884    2.221788    2.194050
      3          1           0        0.275227    1.336764    3.590667
      4          1           0       -0.924842    2.625568    3.624459
      5          6           0       -1.692664    0.953707    2.665960
      6          1           0       -1.244866    0.146123    2.086905
      7          6           0       -2.620290    1.881589    1.854170
      8          6           0       -2.425892    0.386391    3.891180
      9          1           0       -2.909629    1.217998    4.413342
     10          1           0       -3.231151   -0.255564    3.512779
     11          8           0       -3.095767    2.844414    2.452394
     12          6           0       -1.514843   -0.390014    4.816284
     13          6           0       -0.976888   -1.622108    4.417053
     14          1           0       -1.259611   -2.046467    3.455411
     15          6           0       -1.160829    0.125928    6.068600
     16          1           0       -1.582666    1.072291    6.399103
     17          6           0       -0.097206   -2.319472    5.245595
     18          1           0        0.303890   -3.277124    4.926446
     19          6           0       -0.283158   -0.570292    6.904880
     20          1           0       -0.027368   -0.162461    7.878550
     21          6           0        0.255401   -1.792308    6.492683
     22          1           0        0.932177   -2.337975    7.143548
     23          7           0       -2.845809    1.631772    0.542426
     24          6           0       -2.142602    0.662320   -0.298035
     25          1           0       -2.309505   -0.361902    0.058392
     26          6           0       -0.614343    0.909358   -0.302904
     27          6           0       -2.789563    0.871341   -1.690228
     28          1           0       -2.125823    0.585159   -2.510534
     29          1           0       -3.696782    0.262053   -1.758401
     30          8           0       -0.087152    1.814789    0.354972
     31          6           0       -3.140142    2.366616   -1.685854
     32          1           0       -2.243377    2.964792   -1.883088
     33          1           0       -3.893002    2.625846   -2.433718
     34          6           0       -3.628054    2.606331   -0.254875
     35          1           0       -4.696629    2.393098   -0.139110
     36          1           0       -3.441845    3.614636    0.118919
     37          7           0        0.102190    0.028061   -1.029077
     38          1           0       -0.372310   -0.660116   -1.599065
     39          6           0        1.560528    0.031424   -1.028442
     40          1           0        1.856616    1.027484   -0.690622
     41          6           0        2.157315   -0.134734   -2.419221
     42          6           0        2.164885   -1.036789   -0.063408
     43          1           0        2.522692   -1.894869   -0.641419
     44          1           0        1.352064   -1.406700    0.572158
     45          8           0        3.345945   -0.094410   -2.622869
     46          6           0        3.311064   -0.479671    0.797764
     47          1           0        3.880410   -1.316521    1.221661
     48          1           0        4.004817    0.058492    0.142696
     49          6           0        2.834985    0.440532    1.938102
     50          1           0        2.108187    1.170100    1.556018
     51          1           0        3.688549    1.018558    2.316357
     52          6           0        2.212592   -0.336664    3.101842
     53          1           0        1.385167   -0.966865    2.756722
     54          1           0        2.962887   -1.012195    3.536488
     55          7           0        1.649494    0.575255    4.126731
     56          1           0        2.374683    1.218727    4.447970
     57          1           0        1.364258    0.036190    4.945630
     58          8           0        1.227743   -0.366061   -3.374599
     59          1           0        1.706273   -0.480000   -4.218958
 ---------------------------------------------------------------------

 SCF Done:  E(RB3LYP) =  -1300.63715112     A.U. after    1 cycles

 Alpha  occ. eigenvalues --  -19.30835 -19.25717 -19.24511 -19.23359 -14.53856
 Alpha  occ. eigenvalues --  -14.49572 -14.48624 -14.46140 -10.43019 -10.42467
 Alpha  occ. eigenvalues --  -10.40810 -10.37776 -10.36708 -10.35534 -10.32941
 Alpha  occ. eigenvalues --  -10.32475 -10.31776 -10.31414 -10.31323 -10.30379
 Alpha  occ. eigenvalues --  -10.30330 -10.30204 -10.30178 -10.30058 -10.29954
 Alpha  occ. eigenvalues --  -10.29814 -10.29410 -10.28966  -1.21445  -1.17538
 Alpha  occ. eigenvalues --   -1.15697  -1.12515  -1.09380  -1.06450  -1.05960
 Alpha  occ. eigenvalues --   -1.01721  -0.97036  -0.92472  -0.91568  -0.90627
 Alpha  occ. eigenvalues --   -0.88179  -0.85853  -0.85618  -0.84830  -0.80918
 Alpha  occ. eigenvalues --   -0.78652  -0.76009  -0.75036  -0.72976  -0.72744
 Alpha  occ. eigenvalues --   -0.71817  -0.71182  -0.70325  -0.69132  -0.68872
 Alpha  occ. eigenvalues --   -0.67895  -0.66949  -0.65200  -0.63019  -0.62238
 Alpha  occ. eigenvalues --   -0.61673  -0.61107  -0.60387  -0.59699  -0.58678
 Alpha  occ. eigenvalues --   -0.58437  -0.57777  -0.56877  -0.56710  -0.56209
 Alpha  occ. eigenvalues --   -0.55825  -0.55457  -0.54731  -0.54535  -0.54181
 Alpha  occ. eigenvalues --   -0.53049  -0.52709  -0.52192  -0.52079  -0.51574
 Alpha  occ. eigenvalues --   -0.51042  -0.50238  -0.49895  -0.48970  -0.48891
 Alpha  occ. eigenvalues --   -0.48476  -0.48162  -0.47008  -0.46598  -0.46503
 Alpha  occ. eigenvalues --   -0.45564  -0.45073  -0.44862  -0.44767  -0.44352
 Alpha  occ. eigenvalues --   -0.43637  -0.42455  -0.40055  -0.39558  -0.39300
 Alpha  occ. eigenvalues --   -0.37435  -0.37184  -0.36326  -0.36263  -0.35686
 Alpha virt. eigenvalues --   -0.12104  -0.11914  -0.11488  -0.10532  -0.09654
 Alpha virt. eigenvalues --   -0.06502  -0.04318  -0.04127  -0.02477  -0.01659
 Alpha virt. eigenvalues --   -0.01091  -0.00567   0.00043   0.00661   0.00810

 Mulliken charges:
               1
     1  N   -0.800305
     2  H    0.429312
     3  H    0.461442
     4  H    0.389912
     5  C   -0.089186
     6  H    0.170623
     7  C    0.626426
     8  C   -0.375252
     9  H    0.198794
    10  H    0.189086
    11  O   -0.519965
    12  C    0.160001
    13  C   -0.185785
    14  H    0.132076
    15  C   -0.199272
    16  H    0.150251
    17  C   -0.132677
    18  H    0.158944
    19  C   -0.140174
    20  H    0.164874
    21  C   -0.145852
    22  H    0.164820
    23  N   -0.442949
    24  C   -0.089435
    25  H    0.178923
    26  C    0.633269
    27  C   -0.309571
    28  H    0.175287
    29  H    0.181110
    30  O   -0.560013
    31  C   -0.310326
    32  H    0.175167
    33  H    0.184635
    34  C   -0.122408
    35  H    0.182560
    36  H    0.200620
    37  N   -0.599129
    38  H    0.356543
    39  C   -0.052730
    40  H    0.225643
    41  C    0.589224
    42  C   -0.280937
    43  H    0.177904
    44  H    0.140607
    45  O   -0.432401
    46  C   -0.277306
    47  H    0.156188
    48  H    0.183414
    49  C   -0.291598
    50  H    0.148141
    51  H    0.156541
    52  C   -0.142166
    53  H    0.148059
    54  H    0.163866
    55  N   -0.804187
    56  H    0.334476
    57  H    0.359292
    58  O   -0.578080
    59  H    0.433675
 Sum of Mulliken charges =   1.00000

 Dipole moment (field-independent basis, Debye):
    X=             -1.2996    Y=              0.0501    Z=              8.0872  Tot=              8.1911
 Quadrupole moment (field-independent basis, Debye-Ang):
   XX=           -149.3949   YY=           -154.0355   ZZ=            -88.0171
   XY=             -2.9271   XZ=             19.6546   YZ=              1.5810

 Normal termination of Gaussian 16 at Thu Jun  2 02:42:21 2022.
