 Gaussian 16, Revision C.01,
 Gaussian 16:  ES64L-G16RevC.01  3-Jul-2019

 ----------------------------------------------------------------------
 # B3LYP/6-31G* empiricaldispersion=gd3 guess=read geom=check nosymm in
 tegral(ultrafinegrid)
 ----------------------------------------------------------------------

 ------------------------------------------------------
 Candidate Structure: Conf:662 Charge calc in gas phase
 ------------------------------------------------------
 Structure from the checkpoint file:  "conf-662.chk"
 Charge =  1 Multiplicity = 1

                          Input orientation:
 ---------------------------------------------------------------------
 Center     Atomic      Atomic             Coordinates (Angstroms)
 Number     Number       Type             X           Y           Z
 ---------------------------------------------------------------------
      1          7           0       -2.864690    4.230641   -3.106190
      2          1           0       -3.814734    4.605224   -3.029370
      3          1           0       -2.399694    4.664473   -3.908315
      4          1           0       -2.350034    4.430504   -2.194594
      5          6           0       -2.814456    2.711592   -3.140039
      6          1           0       -3.767593    2.341839   -3.521537
      7          6           0       -2.591761    2.377008   -1.637393
      8          6           0       -1.644067    2.292218   -4.061223
      9          1           0       -1.811510    2.767543   -5.038306
     10          1           0       -0.715569    2.687426   -3.637206
     11          8           0       -2.123943    3.295579   -0.941076
     12          6           0       -1.547193    0.793440   -4.238563
     13          6           0       -0.509028    0.076927   -3.631162
     14          1           0        0.262805    0.621615   -3.096081
     15          6           0       -2.507350    0.103658   -4.989627
     16          1           0       -3.301326    0.652397   -5.493239
     17          6           0       -0.457404   -1.314912   -3.735725
     18          1           0        0.352312   -1.861359   -3.260274
     19          6           0       -2.453994   -1.286108   -5.099624
     20          1           0       -3.202080   -1.811571   -5.685820
     21          6           0       -1.435299   -1.999673   -4.461315
     22          1           0       -1.394415   -3.081500   -4.545674
     23          7           0       -2.883930    1.170386   -1.148814
     24          6           0       -2.664974    0.924029    0.304562
     25          1           0       -3.250063    1.649681    0.875642
     26          6           0       -1.208718    1.118883    0.751427
     27          6           0       -3.181625   -0.514852    0.497655
     28          1           0       -2.364023   -1.226591    0.335698
     29          1           0       -3.565710   -0.666015    1.508105
     30          8           0       -0.955876    1.556438    1.859492
     31          6           0       -4.245759   -0.668039   -0.598873
     32          1           0       -4.479924   -1.710526   -0.828465
     33          1           0       -5.174086   -0.164762   -0.306081
     34          6           0       -3.607624    0.048038   -1.794038
     35          1           0       -4.333620    0.415899   -2.522698
     36          1           0       -2.898423   -0.600938   -2.313819
     37          7           0       -0.266593    0.691425   -0.146414
     38          1           0       -0.573368    0.482158   -1.087412
     39          6           0        1.131180    1.056587    0.003799
     40          1           0        1.289677    1.291762    1.057110
     41          6           0        1.411756    2.309561   -0.824905
     42          6           0        2.047791   -0.110001   -0.430912
     43          1           0        1.807201   -0.370319   -1.471781
     44          1           0        1.761198   -0.971077    0.184413
     45          8           0        0.853990    2.585415   -1.872916
     46          6           0        3.555828    0.148473   -0.300136
     47          1           0        4.077924   -0.743512   -0.670543
     48          1           0        3.855528    0.970579   -0.963405
     49          6           0        4.025938    0.451232    1.128500
     50          1           0        3.693613   -0.351088    1.804302
     51          1           0        3.564287    1.379995    1.489243
     52          6           0        5.555301    0.595779    1.227286
     53          1           0        6.032122   -0.327937    0.873009
     54          1           0        5.885972    1.390968    0.545194
     55          7           0        6.089747    0.894393    2.554446
     56          1           0        5.828708    0.159457    3.210447
     57          1           0        5.677235    1.754705    2.912869
     58          8           0        2.378320    3.066586   -0.287613
     59          1           0        2.541675    3.819981   -0.887545
 ---------------------------------------------------------------------

 SCF Done:  E(RB3LYP) =  -1300.59471305     A.U. after    1 cycles

 Alpha  occ. eigenvalues --  -19.30413 -19.27417 -19.25121 -19.21156 -14.60774
 Alpha  occ. eigenvalues --  -14.51298 -14.45769 -14.36497 -10.44242 -10.42773
 Alpha  occ. eigenvalues --  -10.41924 -10.38708 -10.35202 -10.34669 -10.34492
 Alpha  occ. eigenvalues --  -10.33331 -10.32210 -10.30923 -10.30746 -10.30501
 Alpha  occ. eigenvalues --  -10.30486 -10.30472 -10.30388 -10.30299 -10.28580
 Alpha  occ. eigenvalues --  -10.26493 -10.26465 -10.24802  -1.21435  -1.20178
 Alpha  occ. eigenvalues --   -1.14722  -1.13327  -1.12335  -1.08499  -1.02585
 Alpha  occ. eigenvalues --   -0.98052  -0.94252  -0.93443  -0.91857  -0.89691
 Alpha  occ. eigenvalues --   -0.87389  -0.86464  -0.86085  -0.83087  -0.80948
 Alpha  occ. eigenvalues --   -0.77988  -0.77437  -0.74687  -0.74166  -0.73435
 Alpha  occ. eigenvalues --   -0.72194  -0.71811  -0.70280  -0.69524  -0.68469
 Alpha  occ. eigenvalues --   -0.67663  -0.65476  -0.64868  -0.64125  -0.63423
 Alpha  occ. eigenvalues --   -0.62563  -0.61070  -0.60340  -0.59196  -0.58016
 Alpha  occ. eigenvalues --   -0.57359  -0.57106  -0.57066  -0.56357  -0.55371
 Alpha  occ. eigenvalues --   -0.54937  -0.54494  -0.53596  -0.53344  -0.53321
 Alpha  occ. eigenvalues --   -0.52829  -0.52300  -0.51784  -0.51304  -0.50886
 Alpha  occ. eigenvalues --   -0.50062  -0.49862  -0.49124  -0.48158  -0.47904
 Alpha  occ. eigenvalues --   -0.47237  -0.46781  -0.46035  -0.45794  -0.45598
 Alpha  occ. eigenvalues --   -0.45309  -0.44735  -0.43341  -0.43018  -0.41947
 Alpha  occ. eigenvalues --   -0.41838  -0.40806  -0.39629  -0.39211  -0.38671
 Alpha  occ. eigenvalues --   -0.36753  -0.36436  -0.35623  -0.34478  -0.28538
 Alpha virt. eigenvalues --   -0.13870  -0.12750  -0.12173  -0.11603  -0.09986
 Alpha virt. eigenvalues --   -0.07791  -0.07038  -0.04893  -0.02858  -0.02613
 Alpha virt. eigenvalues --   -0.02035  -0.01698  -0.00935   0.00621   0.01086

 Mulliken charges:
               1
     1  N   -0.754229
     2  H    0.415919
     3  H    0.413743
     4  H    0.439156
     5  C   -0.110399
     6  H    0.205384
     7  C    0.647107
     8  C   -0.399852
     9  H    0.175717
    10  H    0.231936
    11  O   -0.538000
    12  C    0.152130
    13  C   -0.216432
    14  H    0.177398
    15  C   -0.189495
    16  H    0.133482
    17  C   -0.138705
    18  H    0.162391
    19  C   -0.128128
    20  H    0.164082
    21  C   -0.127943
    22  H    0.166814
    23  N   -0.474222
    24  C   -0.034931
    25  H    0.202283
    26  C    0.624703
    27  C   -0.314781
    28  H    0.173942
    29  H    0.198680
    30  O   -0.490901
    31  C   -0.298986
    32  H    0.182841
    33  H    0.170583
    34  C   -0.152339
    35  H    0.163592
    36  H    0.200545
    37  N   -0.614107
    38  H    0.340716
    39  C   -0.060496
    40  H    0.221157
    41  C    0.611431
    42  C   -0.287334
    43  H    0.137004
    44  H    0.169424
    45  O   -0.496769
    46  C   -0.268955
    47  H    0.151496
    48  H    0.139933
    49  C   -0.273921
    50  H    0.130943
    51  H    0.142015
    52  C   -0.141647
    53  H    0.146456
    54  H    0.141567
    55  N   -0.699034
    56  H    0.297262
    57  H    0.295426
    58  O   -0.537335
    59  H    0.421682
 Sum of Mulliken charges =   1.00000

 Dipole moment (field-independent basis, Debye):
    X=            -13.0288    Y=              9.7142    Z=            -15.6492  Tot=             22.5613
 Quadrupole moment (field-independent basis, Debye-Ang):
   XX=           -117.1611   YY=            -98.5985   ZZ=           -114.9877
   XY=            -29.9311   XZ=             41.0009   YZ=            -44.1709

 Normal termination of Gaussian 16 at Thu Jun  2 02:48:33 2022.
