 Gaussian 16, Revision C.01,
 Gaussian 16:  ES64L-G16RevC.01  3-Jul-2019

 ----------------------------------------------------------------------
 # B3LYP/6-31G* empiricaldispersion=gd3 guess=read geom=check nosymm in
 tegral(ultrafinegrid)
 ----------------------------------------------------------------------

 ------------------------------------------------------
 Candidate Structure: Conf:353 Charge calc in gas phase
 ------------------------------------------------------
 Structure from the checkpoint file:  "conf-353.chk"
 Charge =  1 Multiplicity = 1

                          Input orientation:
 ---------------------------------------------------------------------
 Center     Atomic      Atomic             Coordinates (Angstroms)
 Number     Number       Type             X           Y           Z
 ---------------------------------------------------------------------
      1          7           0       -4.311531    1.953018    3.832300
      2          1           0       -5.326292    1.863370    3.921675
      3          1           0       -3.909169    2.403877    4.670077
      4          1           0       -3.874660    0.996563    3.723766
      5          6           0       -3.870436    2.647172    2.563476
      6          1           0       -4.726932    3.177414    2.144776
      7          6           0       -3.405951    1.480257    1.668041
      8          6           0       -2.682860    3.631112    2.859826
      9          1           0       -2.050796    3.661010    1.968096
     10          1           0       -3.098956    4.630838    3.018311
     11          8           0       -3.115351    0.412217    2.229425
     12          6           0       -1.862899    3.205619    4.058657
     13          6           0       -2.136811    3.748347    5.326216
     14          1           0       -2.861814    4.555455    5.424592
     15          6           0       -0.887175    2.206192    3.937134
     16          1           0       -0.663241    1.799664    2.957085
     17          6           0       -1.445856    3.296974    6.455452
     18          1           0       -1.653635    3.734868    7.427256
     19          6           0       -0.199255    1.761541    5.065474
     20          1           0        0.562240    0.994517    4.959825
     21          6           0       -0.479103    2.299328    6.325007
     22          1           0        0.062315    1.950013    7.199051
     23          7           0       -3.285879    1.692810    0.355930
     24          6           0       -2.483046    0.756618   -0.443000
     25          1           0       -2.844956   -0.265406   -0.304234
     26          6           0       -1.014061    0.876980    0.022405
     27          6           0       -2.668828    1.282860   -1.879835
     28          1           0       -1.839718    0.998217   -2.532255
     29          1           0       -3.591546    0.871628   -2.303338
     30          8           0       -0.623408    1.878712    0.628597
     31          6           0       -2.785078    2.802249   -1.675996
     32          1           0       -1.793774    3.234940   -1.513581
     33          1           0       -3.255271    3.314438   -2.518391
     34          6           0       -3.614184    2.929659   -0.388713
     35          1           0       -4.690351    2.949153   -0.599115
     36          1           0       -3.351523    3.824516    0.179599
     37          7           0       -0.213086   -0.144748   -0.324433
     38          1           0       -0.563809   -0.955409   -0.823546
     39          6           0        1.214523   -0.142791   -0.023080
     40          1           0        1.600403    0.863395   -0.205972
     41          6           0        1.868212   -1.115019   -0.992401
     42          6           0        1.475658   -0.534534    1.454836
     43          1           0        1.190741   -1.585559    1.588250
     44          1           0        0.771639    0.057880    2.047463
     45          8           0        1.262700   -1.960963   -1.616124
     46          6           0        2.908547   -0.304347    1.964460
     47          1           0        2.915331   -0.565095    3.031672
     48          1           0        3.593469   -1.003121    1.472921
     49          6           0        3.442299    1.129054    1.794663
     50          1           0        3.603527    1.346896    0.729207
     51          1           0        4.435361    1.183337    2.261495
     52          6           0        2.546008    2.220474    2.407131
     53          1           0        1.576650    2.244191    1.895690
     54          1           0        2.335894    1.967868    3.456218
     55          7           0        3.083510    3.582976    2.378255
     56          1           0        3.260110    3.860341    1.413055
     57          1           0        3.991298    3.605663    2.842363
     58          8           0        3.199027   -0.942672   -1.052187
     59          1           0        3.556643   -1.621472   -1.657231
 ---------------------------------------------------------------------

 SCF Done:  E(RB3LYP) =  -1300.60492285     A.U. after    1 cycles

 Alpha  occ. eigenvalues --  -19.29523 -19.26521 -19.23974 -19.22791 -14.59031
 Alpha  occ. eigenvalues --  -14.50148 -14.46920 -14.37414 -10.43137 -10.41974
 Alpha  occ. eigenvalues --  -10.40585 -10.39845 -10.35226 -10.35022 -10.33641
 Alpha  occ. eigenvalues --  -10.33269 -10.31405 -10.30800 -10.30387 -10.30371
 Alpha  occ. eigenvalues --  -10.29766 -10.29443 -10.29376 -10.29244 -10.27954
 Alpha  occ. eigenvalues --  -10.27010 -10.26200 -10.25049  -1.20515  -1.19069
 Alpha  occ. eigenvalues --   -1.14720  -1.13244  -1.11651  -1.07931  -1.03419
 Alpha  occ. eigenvalues --   -0.96937  -0.94225  -0.93569  -0.91133  -0.89589
 Alpha  occ. eigenvalues --   -0.87315  -0.85916  -0.85113  -0.83330  -0.79478
 Alpha  occ. eigenvalues --   -0.77505  -0.76911  -0.73707  -0.73448  -0.72639
 Alpha  occ. eigenvalues --   -0.71739  -0.71193  -0.70843  -0.69397  -0.68642
 Alpha  occ. eigenvalues --   -0.68046  -0.64855  -0.64354  -0.63115  -0.62777
 Alpha  occ. eigenvalues --   -0.61061  -0.59905  -0.59404  -0.58409  -0.57908
 Alpha  occ. eigenvalues --   -0.57201  -0.56854  -0.56199  -0.55944  -0.55442
 Alpha  occ. eigenvalues --   -0.55109  -0.54303  -0.53309  -0.53219  -0.52585
 Alpha  occ. eigenvalues --   -0.52280  -0.51866  -0.51668  -0.51148  -0.50546
 Alpha  occ. eigenvalues --   -0.49788  -0.49482  -0.48829  -0.48310  -0.47351
 Alpha  occ. eigenvalues --   -0.46864  -0.46784  -0.46128  -0.46027  -0.45660
 Alpha  occ. eigenvalues --   -0.44924  -0.44496  -0.43790  -0.42641  -0.41198
 Alpha  occ. eigenvalues --   -0.40982  -0.40483  -0.40040  -0.38469  -0.37653
 Alpha  occ. eigenvalues --   -0.36374  -0.36033  -0.35944  -0.35498  -0.29471
 Alpha virt. eigenvalues --   -0.12983  -0.11912  -0.11257  -0.09522  -0.09312
 Alpha virt. eigenvalues --   -0.08399  -0.04417  -0.02923  -0.02092  -0.01701
 Alpha virt. eigenvalues --   -0.01145  -0.00967  -0.00134   0.00050   0.00805

 Mulliken charges:
               1
     1  N   -0.760527
     2  H    0.408264
     3  H    0.406044
     4  H    0.432462
     5  C   -0.102028
     6  H    0.206355
     7  C    0.639976
     8  C   -0.392555
     9  H    0.236552
    10  H    0.185472
    11  O   -0.544558
    12  C    0.093730
    13  C   -0.229622
    14  H    0.147172
    15  C   -0.168125
    16  H    0.203065
    17  C   -0.119101
    18  H    0.163485
    19  C   -0.134642
    20  H    0.157370
    21  C   -0.124473
    22  H    0.164201
    23  N   -0.426508
    24  C   -0.088174
    25  H    0.195327
    26  C    0.656276
    27  C   -0.297905
    28  H    0.185374
    29  H    0.178559
    30  O   -0.539439
    31  C   -0.312993
    32  H    0.191247
    33  H    0.182614
    34  C   -0.140589
    35  H    0.178684
    36  H    0.177933
    37  N   -0.619334
    38  H    0.360682
    39  C   -0.030662
    40  H    0.199880
    41  C    0.586750
    42  C   -0.287001
    43  H    0.154750
    44  H    0.172139
    45  O   -0.462840
    46  C   -0.268168
    47  H    0.141460
    48  H    0.157212
    49  C   -0.277650
    50  H    0.135630
    51  H    0.139026
    52  C   -0.171472
    53  H    0.165574
    54  H    0.131751
    55  N   -0.704804
    56  H    0.293817
    57  H    0.297278
    58  O   -0.552915
    59  H    0.429974
 Sum of Mulliken charges =   1.00000

 Dipole moment (field-independent basis, Debye):
    X=            -13.1636    Y=              8.7643    Z=             10.0291  Tot=             18.7263
 Quadrupole moment (field-independent basis, Debye-Ang):
   XX=            -70.7203   YY=           -141.3253   ZZ=            -94.3564
   XY=            -46.4250   XZ=            -43.3416   YZ=             24.2979

 Normal termination of Gaussian 16 at Thu Jun  2 02:42:19 2022.
