 Gaussian 16, Revision C.01,
 Gaussian 16:  ES64L-G16RevC.01  3-Jul-2019

 ----------------------------------------------------------------------
 # B3LYP/6-31G* empiricaldispersion=gd3 guess=read geom=check nosymm in
 tegral(ultrafinegrid)
 ----------------------------------------------------------------------

 ------------------------------------------------------
 Candidate Structure: Conf:197 Charge calc in gas phase
 ------------------------------------------------------
 Structure from the checkpoint file:  "conf-197.chk"
 Charge =  1 Multiplicity = 1

                          Input orientation:
 ---------------------------------------------------------------------
 Center     Atomic      Atomic             Coordinates (Angstroms)
 Number     Number       Type             X           Y           Z
 ---------------------------------------------------------------------
      1          7           0       -2.897500   -1.478693    3.417797
      2          1           0       -2.807787   -2.016475    2.537303
      3          1           0       -3.551346   -1.936811    4.055270
      4          1           0       -1.869721   -1.532758    3.867839
      5          6           0       -3.385882   -0.115577    3.001314
      6          1           0       -4.473399   -0.195279    2.874079
      7          6           0       -2.788484    0.062964    1.578144
      8          6           0       -3.115759    0.930351    4.102625
      9          1           0       -3.547176    1.879164    3.775294
     10          1           0       -3.712502    0.631545    4.973334
     11          8           0       -2.311292   -0.947135    1.038385
     12          6           0       -1.674847    1.128159    4.530069
     13          6           0       -1.321575    0.931742    5.872723
     14          1           0       -2.082496    0.640733    6.593928
     15          6           0       -0.684184    1.530437    3.623245
     16          1           0       -0.915731    1.730653    2.584088
     17          6           0       -0.002972    1.112401    6.299878
     18          1           0        0.251014    0.963494    7.345481
     19          6           0        0.634876    1.701454    4.045835
     20          1           0        1.380321    2.019807    3.323495
     21          6           0        0.982703    1.487777    5.382678
     22          1           0        2.008013    1.629995    5.711383
     23          7           0       -2.812487    1.253091    0.962861
     24          6           0       -2.122819    1.383781   -0.348677
     25          1           0       -2.529672    0.630315   -1.030652
     26          6           0       -0.603258    1.189114   -0.140051
     27          6           0       -2.463670    2.817334   -0.790365
     28          1           0       -1.665150    3.484400   -0.452017
     29          1           0       -2.546793    2.894992   -1.876689
     30          8           0        0.052427    2.027721    0.478874
     31          6           0       -3.773481    3.137741   -0.056126
     32          1           0       -3.961109    4.210487    0.035334
     33          1           0       -4.629846    2.682340   -0.565913
     34          6           0       -3.567470    2.473538    1.310022
     35          1           0       -4.508061    2.220553    1.806323
     36          1           0       -2.968760    3.111138    1.971658
     37          7           0       -0.085414    0.066147   -0.672477
     38          1           0       -0.704097   -0.669557   -0.995895
     39          6           0        1.314211   -0.307172   -0.530656
     40          1           0        1.942407    0.479976   -0.961158
     41          6           0        1.507806   -1.581144   -1.343247
     42          6           0        1.766493   -0.536216    0.935418
     43          1           0        1.805215    0.441335    1.422778
     44          1           0        2.790257   -0.927109    0.901685
     45          8           0        0.604166   -2.288704   -1.735974
     46          6           0        0.852944   -1.476147    1.732507
     47          1           0       -0.091902   -0.966391    1.935783
     48          1           0        0.595814   -2.362025    1.135228
     49          6           0        1.503039   -1.925244    3.044418
     50          1           0        1.862446   -1.049131    3.604019
     51          1           0        2.392806   -2.527458    2.821123
     52          6           0        0.594451   -2.754035    3.955320
     53          1           0        0.106001   -3.553599    3.385822
     54          1           0        1.203449   -3.232746    4.732360
     55          7           0       -0.471128   -1.923335    4.595150
     56          1           0       -0.057018   -1.045715    4.913291
     57          1           0       -0.775356   -2.389577    5.452002
     58          8           0        2.810728   -1.848867   -1.532410
     59          1           0        2.868443   -2.685372   -2.032930
 ---------------------------------------------------------------------

 SCF Done:  E(RB3LYP) =  -1300.63507808     A.U. after    1 cycles

 Alpha  occ. eigenvalues --  -19.29270 -19.25559 -19.23863 -19.21390 -14.55246
 Alpha  occ. eigenvalues --  -14.49746 -14.46656 -14.45695 -10.42707 -10.41783
 Alpha  occ. eigenvalues --  -10.39646 -10.38649 -10.34597 -10.34239 -10.33413
 Alpha  occ. eigenvalues --  -10.33293 -10.32673 -10.31410 -10.30266 -10.29935
 Alpha  occ. eigenvalues --  -10.29838 -10.29718 -10.29538 -10.29381 -10.29127
 Alpha  occ. eigenvalues --  -10.28623 -10.28029 -10.27581  -1.20337  -1.18023
 Alpha  occ. eigenvalues --   -1.13338  -1.11463  -1.10336  -1.07014  -1.02406
 Alpha  occ. eigenvalues --   -1.01919  -0.96974  -0.92695  -0.90505  -0.90155
 Alpha  occ. eigenvalues --   -0.87360  -0.85879  -0.85234  -0.84845  -0.80118
 Alpha  occ. eigenvalues --   -0.79494  -0.76407  -0.73446  -0.72603  -0.72076
 Alpha  occ. eigenvalues --   -0.71238  -0.70370  -0.69302  -0.69049  -0.67422
 Alpha  occ. eigenvalues --   -0.67334  -0.66333  -0.63819  -0.62572  -0.62406
 Alpha  occ. eigenvalues --   -0.61787  -0.60470  -0.59946  -0.58694  -0.58602
 Alpha  occ. eigenvalues --   -0.57895  -0.57108  -0.56494  -0.56407  -0.55914
 Alpha  occ. eigenvalues --   -0.55575  -0.54514  -0.54241  -0.54005  -0.52987
 Alpha  occ. eigenvalues --   -0.52806  -0.52447  -0.52041  -0.51707  -0.51127
 Alpha  occ. eigenvalues --   -0.50914  -0.50117  -0.49176  -0.48663  -0.48316
 Alpha  occ. eigenvalues --   -0.47256  -0.46999  -0.46400  -0.45884  -0.45482
 Alpha  occ. eigenvalues --   -0.45056  -0.44688  -0.44315  -0.43740  -0.43170
 Alpha  occ. eigenvalues --   -0.42713  -0.41330  -0.40076  -0.39553  -0.38003
 Alpha  occ. eigenvalues --   -0.37370  -0.36023  -0.35687  -0.35343  -0.34465
 Alpha virt. eigenvalues --   -0.12847  -0.11639  -0.11048  -0.09132  -0.08091
 Alpha virt. eigenvalues --   -0.07762  -0.04331  -0.02899  -0.02240  -0.01344
 Alpha virt. eigenvalues --   -0.01172  -0.00309   0.00436   0.01006   0.01594

 Mulliken charges:
               1
     1  N   -0.792620
     2  H    0.408729
     3  H    0.380427
     4  H    0.470440
     5  C   -0.109283
     6  H    0.208259
     7  C    0.634642
     8  C   -0.375943
     9  H    0.199160
    10  H    0.168465
    11  O   -0.542294
    12  C    0.147458
    13  C   -0.211665
    14  H    0.140671
    15  C   -0.201170
    16  H    0.186241
    17  C   -0.144226
    18  H    0.161089
    19  C   -0.147205
    20  H    0.175969
    21  C   -0.137431
    22  H    0.163650
    23  N   -0.444976
    24  C   -0.032392
    25  H    0.174987
    26  C    0.634672
    27  C   -0.318713
    28  H    0.198454
    29  H    0.181821
    30  O   -0.538769
    31  C   -0.302159
    32  H    0.182829
    33  H    0.169355
    34  C   -0.152558
    35  H    0.169006
    36  H    0.188763
    37  N   -0.605489
    38  H    0.369266
    39  C   -0.020436
    40  H    0.201670
    41  C    0.584530
    42  C   -0.297263
    43  H    0.182304
    44  H    0.168581
    45  O   -0.464741
    46  C   -0.278695
    47  H    0.150473
    48  H    0.149518
    49  C   -0.282616
    50  H    0.147447
    51  H    0.162805
    52  C   -0.139802
    53  H    0.158690
    54  H    0.163506
    55  N   -0.809349
    56  H    0.364609
    57  H    0.331385
    58  O   -0.558689
    59  H    0.428611
 Sum of Mulliken charges =   1.00000

 Dipole moment (field-independent basis, Debye):
    X=             -9.2879    Y=             -2.7875    Z=             14.8396  Tot=             17.7271
 Quadrupole moment (field-independent basis, Debye-Ang):
   XX=           -107.7836   YY=           -142.7714   ZZ=            -81.8120
   XY=            -11.1653   XZ=            -31.3428   YZ=            -19.4892

 Normal termination of Gaussian 16 at Thu Jun  2 02:42:28 2022.
