 Gaussian 16, Revision C.01,
 Gaussian 16:  ES64L-G16RevC.01  3-Jul-2019

 ----------------------------------------------------------------------
 # B3LYP/6-31G* empiricaldispersion=gd3 guess=read geom=check nosymm in
 tegral(ultrafinegrid)
 ----------------------------------------------------------------------

 -----------------------------------------------------
 Candidate Structure: Conf:14 Charge calc in gas phase
 -----------------------------------------------------
 Structure from the checkpoint file:  "conf-14.chk"
 Charge =  1 Multiplicity = 1

                          Input orientation:
 ---------------------------------------------------------------------
 Center     Atomic      Atomic             Coordinates (Angstroms)
 Number     Number       Type             X           Y           Z
 ---------------------------------------------------------------------
      1          7           0       -2.664686   -0.828538    4.178650
      2          1           0       -3.241224   -0.831548    5.023731
      3          1           0       -1.672035   -1.271234    4.432529
      4          1           0       -3.070099   -1.466235    3.485653
      5          6           0       -2.564739    0.566882    3.596453
      6          1           0       -3.532718    1.057696    3.732514
      7          6           0       -2.230624    0.349740    2.109084
      8          6           0       -1.465941    1.328448    4.378671
      9          1           0       -1.683793    1.211157    5.449181
     10          1           0       -0.512453    0.829612    4.183823
     11          8           0       -1.743929   -0.746594    1.794086
     12          6           0       -1.364425    2.793742    4.028378
     13          6           0       -0.409333    3.231870    3.103958
     14          1           0        0.266260    2.524296    2.635271
     15          6           0       -2.256454    3.717445    4.588648
     16          1           0       -2.992208    3.386753    5.319755
     17          6           0       -0.360840    4.576155    2.730881
     18          1           0        0.377503    4.901717    2.004222
     19          6           0       -2.207504    5.060911    4.216654
     20          1           0       -2.901252    5.770772    4.657591
     21          6           0       -1.260396    5.491338    3.282786
     22          1           0       -1.220663    6.537373    2.993021
     23          7           0       -2.436936    1.333131    1.222654
     24          6           0       -1.936094    1.146559   -0.159334
     25          1           0       -2.481966    0.313939   -0.620159
     26          6           0       -0.420630    0.866536   -0.137017
     27          6           0       -2.278989    2.485662   -0.830194
     28          1           0       -1.461758    3.189085   -0.639117
     29          1           0       -2.406805    2.379932   -1.909944
     30          8           0        0.349006    1.639888    0.427075
     31          6           0       -3.552478    2.932524   -0.098466
     32          1           0       -3.759456    3.999606   -0.212076
     33          1           0       -4.422593    2.374720   -0.463224
     34          6           0       -3.249208    2.565655    1.359407
     35          1           0       -4.148339    2.369824    1.951020
     36          1           0       -2.670370    3.350702    1.846102
     37          7           0       -0.035385   -0.254531   -0.788915
     38          1           0       -0.746396   -0.887202   -1.129466
     39          6           0        1.335174   -0.750603   -0.798098
     40          1           0        1.991622    0.097516   -0.590344
     41          6           0        1.734500   -1.305644   -2.160670
     42          6           0        1.544182   -1.851160    0.273836
     43          1           0        2.486410   -2.368904    0.065580
     44          1           0        0.740261   -2.589244    0.148899
     45          8           0        2.879716   -1.472923   -2.501488
     46          6           0        1.536337   -1.287158    1.707631
     47          1           0        2.563219   -1.040753    2.007533
     48          1           0        0.977504   -0.347786    1.729615
     49          6           0        0.891481   -2.234085    2.727263
     50          1           0        1.379549   -3.217375    2.715206
     51          1           0       -0.151889   -2.381967    2.429782
     52          6           0        0.927695   -1.648525    4.145413
     53          1           0        1.836178   -1.961719    4.674605
     54          1           0        0.952399   -0.554757    4.099952
     55          7           0       -0.292040   -2.020736    4.923246
     56          1           0       -0.140083   -1.811239    5.912121
     57          1           0       -0.413476   -3.034741    4.877761
     58          8           0        0.664086   -1.662189   -2.912582
     59          1           0        1.014941   -2.045026   -3.739572
 ---------------------------------------------------------------------

 SCF Done:  E(RB3LYP) =  -1300.62143426     A.U. after    2 cycles

 Alpha  occ. eigenvalues --  -19.28463 -19.24677 -19.22219 -19.21119 -14.56709
 Alpha  occ. eigenvalues --  -14.49063 -14.48102 -14.45919 -10.41944 -10.40560
 Alpha  occ. eigenvalues --  -10.39422 -10.38683 -10.34131 -10.33270 -10.33167
 Alpha  occ. eigenvalues --  -10.33011 -10.32877 -10.30035 -10.29418 -10.29183
 Alpha  occ. eigenvalues --  -10.28971 -10.28477 -10.28365 -10.28294 -10.28146
 Alpha  occ. eigenvalues --  -10.28133 -10.28078 -10.27406  -1.19081  -1.17203
 Alpha  occ. eigenvalues --   -1.13156  -1.11219  -1.10127  -1.06327  -1.02901
 Alpha  occ. eigenvalues --   -1.02472  -0.95980  -0.92321  -0.90126  -0.89874
 Alpha  occ. eigenvalues --   -0.87077  -0.85075  -0.84257  -0.83903  -0.79742
 Alpha  occ. eigenvalues --   -0.78793  -0.75852  -0.73259  -0.72192  -0.71257
 Alpha  occ. eigenvalues --   -0.70310  -0.70042  -0.69543  -0.69218  -0.68861
 Alpha  occ. eigenvalues --   -0.66842  -0.65838  -0.62930  -0.62458  -0.62405
 Alpha  occ. eigenvalues --   -0.61980  -0.60843  -0.60393  -0.59481  -0.57624
 Alpha  occ. eigenvalues --   -0.57454  -0.56350  -0.56022  -0.55630  -0.55158
 Alpha  occ. eigenvalues --   -0.54955  -0.54351  -0.53368  -0.53150  -0.52554
 Alpha  occ. eigenvalues --   -0.52050  -0.51607  -0.51394  -0.50996  -0.50738
 Alpha  occ. eigenvalues --   -0.49836  -0.49471  -0.48655  -0.48471  -0.48283
 Alpha  occ. eigenvalues --   -0.46662  -0.46267  -0.46080  -0.45097  -0.44934
 Alpha  occ. eigenvalues --   -0.43995  -0.43948  -0.43585  -0.43322  -0.43251
 Alpha  occ. eigenvalues --   -0.42348  -0.40646  -0.40053  -0.38997  -0.37305
 Alpha  occ. eigenvalues --   -0.36853  -0.35319  -0.34480  -0.34210  -0.33692
 Alpha virt. eigenvalues --   -0.11806  -0.10481  -0.09702  -0.09278  -0.08124
 Alpha virt. eigenvalues --   -0.07416  -0.05224  -0.03636  -0.02852  -0.02407
 Alpha virt. eigenvalues --   -0.01512  -0.00520   0.00376   0.00753   0.00938

 Mulliken charges:
               1
     1  N   -0.777960
     2  H    0.384397
     3  H    0.463797
     4  H    0.398236
     5  C   -0.089076
     6  H    0.194409
     7  C    0.617609
     8  C   -0.383170
     9  H    0.163858
    10  H    0.187597
    11  O   -0.549141
    12  C    0.152105
    13  C   -0.183464
    14  H    0.178825
    15  C   -0.183928
    16  H    0.125971
    17  C   -0.144163
    18  H    0.162633
    19  C   -0.131887
    20  H    0.155453
    21  C   -0.128184
    22  H    0.158124
    23  N   -0.438924
    24  C   -0.030636
    25  H    0.159716
    26  C    0.650081
    27  C   -0.311706
    28  H    0.192001
    29  H    0.177878
    30  O   -0.540676
    31  C   -0.306023
    32  H    0.179819
    33  H    0.163409
    34  C   -0.146032
    35  H    0.157800
    36  H    0.209304
    37  N   -0.582616
    38  H    0.348272
    39  C   -0.075686
    40  H    0.216835
    41  C    0.591825
    42  C   -0.272814
    43  H    0.182454
    44  H    0.145546
    45  O   -0.440731
    46  C   -0.283220
    47  H    0.154963
    48  H    0.171545
    49  C   -0.290375
    50  H    0.154302
    51  H    0.167308
    52  C   -0.157490
    53  H    0.173584
    54  H    0.171822
    55  N   -0.796053
    56  H    0.340661
    57  H    0.344294
    58  O   -0.579116
    59  H    0.426637
 Sum of Mulliken charges =   1.00000

 Dipole moment (field-independent basis, Debye):
    X=            -11.7972    Y=             -1.1294    Z=             15.7059  Tot=             19.6755
 Quadrupole moment (field-independent basis, Debye-Ang):
   XX=           -131.2521   YY=           -127.3132   ZZ=            -69.7051
   XY=            -10.9610   XZ=            -30.1947   YZ=            -11.0479

 Normal termination of Gaussian 16 at Thu Jun  2 02:33:27 2022.
