 Gaussian 16, Revision C.01,
 Gaussian 16:  ES64L-G16RevC.01  3-Jul-2019

 ----------------------------------------------------------------------
 # B3LYP/6-31G* empiricaldispersion=gd3 guess=read geom=check nosymm in
 tegral(ultrafinegrid)
 ----------------------------------------------------------------------

 ------------------------------------------------------
 Candidate Structure: Conf:669 Charge calc in gas phase
 ------------------------------------------------------
 Structure from the checkpoint file:  "conf-669.chk"
 Charge =  1 Multiplicity = 1

                          Input orientation:
 ---------------------------------------------------------------------
 Center     Atomic      Atomic             Coordinates (Angstroms)
 Number     Number       Type             X           Y           Z
 ---------------------------------------------------------------------
      1          7           0       -0.638743    0.408233    3.015341
      2          1           0       -0.278431    1.100311    2.330677
      3          1           0        0.129363   -0.236724    3.240793
      4          1           0       -0.994166    0.889020    3.851697
      5          6           0       -1.787960   -0.324371    2.365521
      6          1           0       -1.405277   -0.680419    1.411784
      7          6           0       -2.889052    0.749123    2.262988
      8          6           0       -2.196586   -1.536361    3.219130
      9          1           0       -2.507534   -1.186756    4.209233
     10          1           0       -3.080715   -1.981283    2.748893
     11          8           0       -3.274287    1.237667    3.323294
     12          6           0       -1.058337   -2.533261    3.287590
     13          6           0       -0.833171   -3.418198    2.223824
     14          1           0       -1.537018   -3.453506    1.394755
     15          6           0       -0.151352   -2.520431    4.356984
     16          1           0       -0.332227   -1.867772    5.209424
     17          6           0        0.275957   -4.267698    2.225792
     18          1           0        0.416999   -4.974176    1.411483
     19          6           0        0.968375   -3.356748    4.354940
     20          1           0        1.659424   -3.335838    5.192152
     21          6           0        1.187618   -4.228208    3.287144
     22          1           0        2.049471   -4.888643    3.290223
     23          7           0       -3.333344    1.121568    1.039576
     24          6           0       -2.705712    0.770418   -0.242567
     25          1           0       -2.900881   -0.280361   -0.490100
     26          6           0       -1.175972    1.001823   -0.184900
     27          6           0       -3.399806    1.715269   -1.257875
     28          1           0       -2.747013    1.961552   -2.099842
     29          1           0       -4.291577    1.219615   -1.655608
     30          8           0       -0.683448    1.786899    0.627917
     31          6           0       -3.790635    2.930259   -0.403554
     32          1           0       -2.917952    3.569241   -0.233353
     33          1           0       -4.577498    3.532379   -0.863911
     34          6           0       -4.233147    2.293214    0.915101
     35          1           0       -5.273502    1.950523    0.879733
     36          1           0       -4.111431    2.933675    1.789675
     37          7           0       -0.456257    0.241179   -1.046019
     38          1           0       -0.970411   -0.397998   -1.639285
     39          6           0        1.007657    0.023132   -0.989684
     40          1           0        1.251537   -0.554456   -1.884815
     41          6           0        1.251650   -0.876350    0.233240
     42          6           0        1.857527    1.295420   -0.955143
     43          1           0        1.657711    1.835632   -0.027846
     44          1           0        1.534845    1.937842   -1.783543
     45          8           0        1.310547   -0.471845    1.379992
     46          6           0        3.350527    0.965540   -1.073384
     47          1           0        3.665167    0.315558   -0.247932
     48          1           0        3.536775    0.406821   -2.002533
     49          6           0        4.233333    2.218183   -1.053895
     50          1           0        3.998427    2.816755   -0.160749
     51          1           0        4.005395    2.854089   -1.920005
     52          6           0        5.730472    1.886028   -1.054243
     53          1           0        5.959565    1.261386   -1.927291
     54          1           0        6.304371    2.820610   -1.176564
     55          7           0        6.088398    1.119864    0.148086
     56          1           0        6.082368    1.739406    0.958058
     57          1           0        7.043518    0.775774    0.068138
     58          8           0        1.296709   -2.172459   -0.093244
     59          1           0        1.362435   -2.693652    0.736338
 ---------------------------------------------------------------------

 SCF Done:  E(RB3LYP) =  -1300.61410935     A.U. after    1 cycles

 Alpha  occ. eigenvalues --  -19.32040 -19.26875 -19.25936 -19.24425 -14.57543
 Alpha  occ. eigenvalues --  -14.50707 -14.49385 -14.38155 -10.44871 -10.43085
 Alpha  occ. eigenvalues --  -10.41891 -10.39160 -10.37059 -10.36353 -10.33040
 Alpha  occ. eigenvalues --  -10.32827 -10.32308 -10.31568 -10.31234 -10.31184
 Alpha  occ. eigenvalues --  -10.30969 -10.30724 -10.30651 -10.29857 -10.28457
 Alpha  occ. eigenvalues --  -10.27699 -10.26530 -10.25797  -1.23273  -1.18183
 Alpha  occ. eigenvalues --   -1.16675  -1.14246  -1.12244  -1.07095  -1.06584
 Alpha  occ. eigenvalues --   -0.97930  -0.94868  -0.92974  -0.92010  -0.90806
 Alpha  occ. eigenvalues --   -0.87589  -0.86466  -0.85888  -0.84546  -0.79713
 Alpha  occ. eigenvalues --   -0.78968  -0.76960  -0.74929  -0.73053  -0.72678
 Alpha  occ. eigenvalues --   -0.72463  -0.71751  -0.70749  -0.69770  -0.68894
 Alpha  occ. eigenvalues --   -0.67989  -0.65887  -0.65373  -0.63914  -0.62847
 Alpha  occ. eigenvalues --   -0.62265  -0.61814  -0.61239  -0.60162  -0.59207
 Alpha  occ. eigenvalues --   -0.57625  -0.57278  -0.57188  -0.56310  -0.56001
 Alpha  occ. eigenvalues --   -0.55450  -0.54861  -0.54416  -0.53844  -0.53578
 Alpha  occ. eigenvalues --   -0.53287  -0.52944  -0.52742  -0.51955  -0.51356
 Alpha  occ. eigenvalues --   -0.50823  -0.50411  -0.49815  -0.49021  -0.48329
 Alpha  occ. eigenvalues --   -0.47678  -0.47057  -0.46719  -0.46081  -0.45932
 Alpha  occ. eigenvalues --   -0.45820  -0.45389  -0.44543  -0.44230  -0.43077
 Alpha  occ. eigenvalues --   -0.41711  -0.40977  -0.40901  -0.39422  -0.38523
 Alpha  occ. eigenvalues --   -0.38196  -0.37274  -0.37034  -0.36450  -0.30430
 Alpha virt. eigenvalues --   -0.13980  -0.13031  -0.12838  -0.11520  -0.11217
 Alpha virt. eigenvalues --   -0.06444  -0.05082  -0.03337  -0.02143  -0.01432
 Alpha virt. eigenvalues --   -0.00704   0.00007   0.00205   0.00283   0.00743

 Mulliken charges:
               1
     1  N   -0.744425
     2  H    0.451986
     3  H    0.420732
     4  H    0.407359
     5  C   -0.115844
     6  H    0.188954
     7  C    0.633308
     8  C   -0.374261
     9  H    0.200803
    10  H    0.195636
    11  O   -0.517543
    12  C    0.159452
    13  C   -0.175868
    14  H    0.141983
    15  C   -0.217231
    16  H    0.149276
    17  C   -0.186624
    18  H    0.170446
    19  C   -0.112892
    20  H    0.169660
    21  C   -0.122444
    22  H    0.171295
    23  N   -0.440769
    24  C   -0.069807
    25  H    0.166939
    26  C    0.615296
    27  C   -0.307267
    28  H    0.180296
    29  H    0.181612
    30  O   -0.543744
    31  C   -0.301519
    32  H    0.183199
    33  H    0.183797
    34  C   -0.134850
    35  H    0.182240
    36  H    0.205915
    37  N   -0.616495
    38  H    0.352856
    39  C   -0.025583
    40  H    0.189330
    41  C    0.605769
    42  C   -0.269527
    43  H    0.181444
    44  H    0.154597
    45  O   -0.503544
    46  C   -0.275479
    47  H    0.175674
    48  H    0.134674
    49  C   -0.256903
    50  H    0.131559
    51  H    0.140459
    52  C   -0.145019
    53  H    0.145164
    54  H    0.132713
    55  N   -0.720895
    56  H    0.296923
    57  H    0.308808
    58  O   -0.558363
    59  H    0.426741
 Sum of Mulliken charges =   1.00000

 Dipole moment (field-independent basis, Debye):
    X=             -1.8403    Y=             -1.8423    Z=              4.0785  Tot=              4.8389
 Quadrupole moment (field-independent basis, Debye-Ang):
   XX=           -119.9049   YY=           -139.5302   ZZ=           -129.4607
   XY=             -1.9181   XZ=              9.0577   YZ=            -13.0618

 Normal termination of Gaussian 16 at Thu Jun  2 02:48:30 2022.
