 Gaussian 16, Revision C.01,
 Gaussian 16:  ES64L-G16RevC.01  3-Jul-2019

 ----------------------------------------------------------------------
 # B3LYP/6-31G* empiricaldispersion=gd3 guess=read geom=check nosymm in
 tegral(ultrafinegrid)
 ----------------------------------------------------------------------

 ------------------------------------------------------
 Candidate Structure: Conf:727 Charge calc in gas phase
 ------------------------------------------------------
 Structure from the checkpoint file:  "conf-727.chk"
 Charge =  1 Multiplicity = 1

                          Input orientation:
 ---------------------------------------------------------------------
 Center     Atomic      Atomic             Coordinates (Angstroms)
 Number     Number       Type             X           Y           Z
 ---------------------------------------------------------------------
      1          7           0       -1.730648    4.338586    1.025858
      2          1           0       -0.880220    3.770166    0.849415
      3          1           0       -1.590271    4.969677    1.819849
      4          1           0       -1.961821    4.877695    0.176006
      5          6           0       -2.846799    3.336157    1.232633
      6          1           0       -2.463629    2.612628    1.946781
      7          6           0       -3.053495    2.781255   -0.191567
      8          6           0       -4.141881    3.974887    1.748349
      9          1           0       -3.956086    4.449950    2.720118
     10          1           0       -4.470755    4.745299    1.043669
     11          8           0       -3.274091    3.615813   -1.072918
     12          6           0       -5.175874    2.871036    1.870352
     13          6           0       -6.072990    2.622126    0.824208
     14          1           0       -6.077529    3.273905   -0.045676
     15          6           0       -5.165718    2.016994    2.981371
     16          1           0       -4.483159    2.211551    3.806873
     17          6           0       -6.947408    1.536215    0.889342
     18          1           0       -7.646732    1.358627    0.077447
     19          6           0       -6.038748    0.929633    3.046168
     20          1           0       -6.031939    0.281837    3.918046
     21          6           0       -6.929222    0.686213    1.997490
     22          1           0       -7.614398   -0.154801    2.050220
     23          7           0       -3.008094    1.456580   -0.395945
     24          6           0       -2.436350    0.458598    0.516139
     25          1           0       -2.880537    0.543273    1.513992
     26          6           0       -0.909294    0.727071    0.645278
     27          6           0       -2.855638   -0.856754   -0.166263
     28          1           0       -2.286356   -1.732967    0.155079
     29          1           0       -3.903541   -1.049711    0.087859
     30          8           0       -0.471323    1.887825    0.661860
     31          6           0       -2.709281   -0.526143   -1.659357
     32          1           0       -1.651033   -0.547168   -1.944229
     33          1           0       -3.253252   -1.218712   -2.305342
     34          6           0       -3.256006    0.905486   -1.748468
     35          1           0       -4.333908    0.930489   -1.941094
     36          1           0       -2.761865    1.526676   -2.498677
     37          7           0       -0.093386   -0.330945    0.773934
     38          1           0       -0.457575   -1.259106    0.617404
     39          6           0        1.357450   -0.167432    0.757672
     40          1           0        1.613348    0.633227    1.455510
     41          6           0        1.881666    0.296012   -0.604887
     42          6           0        2.077913   -1.461674    1.184228
     43          1           0        1.767932   -1.703298    2.208904
     44          1           0        3.144019   -1.220223    1.221072
     45          8           0        2.971072    0.790276   -0.753042
     46          6           0        1.842197   -2.669837    0.263133
     47          1           0        0.767430   -2.902023    0.206503
     48          1           0        2.149898   -2.418696   -0.760872
     49          6           0        2.586547   -3.935021    0.722275
     50          1           0        2.254604   -4.780587    0.104725
     51          1           0        2.301083   -4.177314    1.756779
     52          6           0        4.122168   -3.837232    0.626632
     53          1           0        4.400033   -3.549748   -0.396658
     54          1           0        4.492799   -3.037260    1.279422
     55          7           0        4.857092   -5.052381    0.967707
     56          1           0        4.563205   -5.823310    0.369715
     57          1           0        4.649817   -5.335275    1.924331
     58          8           0        1.024136    0.038921   -1.624511
     59          1           0        1.471436    0.333161   -2.441526
 ---------------------------------------------------------------------

 SCF Done:  E(RB3LYP) =  -1300.60159933     A.U. after    1 cycles

 Alpha  occ. eigenvalues --  -19.30405 -19.26101 -19.24876 -19.24150 -14.59571
 Alpha  occ. eigenvalues --  -14.49707 -14.49613 -14.37481 -10.42800 -10.42390
 Alpha  occ. eigenvalues --  -10.42140 -10.39477 -10.37217 -10.35223 -10.33561
 Alpha  occ. eigenvalues --  -10.33030 -10.32121 -10.31010 -10.30599 -10.29793
 Alpha  occ. eigenvalues --  -10.29652 -10.29380 -10.29349 -10.29152 -10.29067
 Alpha  occ. eigenvalues --  -10.28485 -10.27649 -10.26335  -1.20993  -1.18232
 Alpha  occ. eigenvalues --   -1.17045  -1.13603  -1.12048  -1.07703  -1.06075
 Alpha  occ. eigenvalues --   -0.96870  -0.94541  -0.93295  -0.91952  -0.90664
 Alpha  occ. eigenvalues --   -0.87759  -0.85187  -0.84823  -0.84659  -0.79966
 Alpha  occ. eigenvalues --   -0.78036  -0.77247  -0.74354  -0.73788  -0.73318
 Alpha  occ. eigenvalues --   -0.72459  -0.71688  -0.71032  -0.70556  -0.68723
 Alpha  occ. eigenvalues --   -0.68286  -0.66387  -0.65738  -0.63777  -0.62539
 Alpha  occ. eigenvalues --   -0.61826  -0.61143  -0.59620  -0.59084  -0.57982
 Alpha  occ. eigenvalues --   -0.57384  -0.57028  -0.56955  -0.56018  -0.55804
 Alpha  occ. eigenvalues --   -0.55242  -0.55052  -0.54711  -0.53803  -0.53431
 Alpha  occ. eigenvalues --   -0.52816  -0.52229  -0.51725  -0.51522  -0.50719
 Alpha  occ. eigenvalues --   -0.50470  -0.49666  -0.49232  -0.48880  -0.48396
 Alpha  occ. eigenvalues --   -0.47699  -0.47306  -0.46806  -0.46361  -0.45971
 Alpha  occ. eigenvalues --   -0.44850  -0.44781  -0.44455  -0.43781  -0.42566
 Alpha  occ. eigenvalues --   -0.41698  -0.41171  -0.40740  -0.40074  -0.39065
 Alpha  occ. eigenvalues --   -0.37219  -0.36783  -0.35411  -0.35145  -0.29503
 Alpha virt. eigenvalues --   -0.13320  -0.11403  -0.10905  -0.10559  -0.09340
 Alpha virt. eigenvalues --   -0.08874  -0.06027  -0.03737  -0.02792  -0.02181
 Alpha virt. eigenvalues --   -0.01781  -0.01061   0.00215   0.01020   0.01110

 Mulliken charges:
               1
     1  N   -0.748206
     2  H    0.446550
     3  H    0.407861
     4  H    0.417895
     5  C   -0.084812
     6  H    0.192241
     7  C    0.635255
     8  C   -0.368251
     9  H    0.170579
    10  H    0.193959
    11  O   -0.537524
    12  C    0.144698
    13  C   -0.177251
    14  H    0.160206
    15  C   -0.194698
    16  H    0.133901
    17  C   -0.133769
    18  H    0.158789
    19  C   -0.130967
    20  H    0.156273
    21  C   -0.129102
    22  H    0.159200
    23  N   -0.425585
    24  C   -0.107022
    25  H    0.200488
    26  C    0.671016
    27  C   -0.319724
    28  H    0.160481
    29  H    0.189692
    30  O   -0.581112
    31  C   -0.323441
    32  H    0.181163
    33  H    0.184363
    34  C   -0.119421
    35  H    0.186966
    36  H    0.196149
    37  N   -0.604463
    38  H    0.359867
    39  C   -0.036781
    40  H    0.202599
    41  C    0.604311
    42  C   -0.306786
    43  H    0.161591
    44  H    0.197115
    45  O   -0.439813
    46  C   -0.286555
    47  H    0.117427
    48  H    0.157863
    49  C   -0.267622
    50  H    0.140387
    51  H    0.131901
    52  C   -0.143871
    53  H    0.149015
    54  H    0.147851
    55  N   -0.697450
    56  H    0.299457
    57  H    0.298224
    58  O   -0.577763
    59  H    0.426658
 Sum of Mulliken charges =   1.00000

 Dipole moment (field-independent basis, Debye):
    X=            -11.3462    Y=              6.2708    Z=              5.0457  Tot=             13.9111
 Quadrupole moment (field-independent basis, Debye-Ang):
   XX=           -136.5262   YY=           -100.0960   ZZ=           -141.3753
   XY=            -17.0369   XZ=            -11.5386   YZ=             17.5404

 Normal termination of Gaussian 16 at Thu Jun  2 02:55:34 2022.
