 Gaussian 16, Revision C.01,
 Gaussian 16:  ES64L-G16RevC.01  3-Jul-2019

 ----------------------------------------------------------------------
 # B3LYP/6-31G* empiricaldispersion=gd3 guess=read geom=check nosymm in
 tegral(ultrafinegrid)
 ----------------------------------------------------------------------

 ------------------------------------------------------
 Candidate Structure: Conf:549 Charge calc in gas phase
 ------------------------------------------------------
 Structure from the checkpoint file:  "conf-549.chk"
 Charge =  1 Multiplicity = 1

                          Input orientation:
 ---------------------------------------------------------------------
 Center     Atomic      Atomic             Coordinates (Angstroms)
 Number     Number       Type             X           Y           Z
 ---------------------------------------------------------------------
      1          7           0       -2.632933    1.160884    3.502780
      2          1           0       -1.690451    1.050406    3.074288
      3          1           0       -2.632894    0.967329    4.510327
      4          1           0       -2.981445    2.120257    3.367622
      5          6           0       -3.537600    0.221556    2.736624
      6          1           0       -3.011384   -0.731011    2.730488
      7          6           0       -3.623342    0.888342    1.350176
      8          6           0       -4.940895    0.092098    3.411983
      9          1           0       -5.700804    0.217252    2.636350
     10          1           0       -5.035233   -0.927706    3.796859
     11          8           0       -4.142623    2.004141    1.302386
     12          6           0       -5.173825    1.085583    4.533590
     13          6           0       -4.937720    0.712339    5.865088
     14          1           0       -4.668365   -0.316331    6.098355
     15          6           0       -5.548423    2.408367    4.251017
     16          1           0       -5.717088    2.704826    3.219898
     17          6           0       -5.081313    1.641777    6.899435
     18          1           0       -4.908934    1.336465    7.927402
     19          6           0       -5.692930    3.333978    5.285779
     20          1           0       -5.994329    4.352187    5.057408
     21          6           0       -5.458006    2.954169    6.610291
     22          1           0       -5.575435    3.676057    7.412962
     23          7           0       -3.137015    0.250307    0.266895
     24          6           0       -2.241480   -0.915011    0.234320
     25          1           0       -2.611855   -1.719116    0.878860
     26          6           0       -0.847540   -0.488334    0.773913
     27          6           0       -2.308826   -1.305060   -1.253326
     28          1           0       -1.512637   -1.981639   -1.576007
     29          1           0       -3.253306   -1.832327   -1.425566
     30          8           0       -0.754391    0.251853    1.764210
     31          6           0       -2.309667    0.061360   -1.957209
     32          1           0       -1.298080    0.481240   -1.970352
     33          1           0       -2.675500    0.008742   -2.984878
     34          6           0       -3.219924    0.914529   -1.060279
     35          1           0       -4.264581    0.909519   -1.386804
     36          1           0       -2.898266    1.954725   -0.972744
     37          7           0        0.245115   -0.964779    0.154975
     38          1           0        0.134916   -1.423809   -0.737999
     39          6           0        1.567031   -0.406308    0.432090
     40          1           0        1.730929   -0.415604    1.512247
     41          6           0        1.575694    1.050577   -0.048082
     42          6           0        2.640340   -1.258348   -0.275214
     43          1           0        2.489751   -1.187763   -1.362400
     44          1           0        2.453543   -2.302686    0.006483
     45          8           0        0.830702    1.497585   -0.892472
     46          6           0        4.087262   -0.894842    0.077504
     47          1           0        4.310399    0.126727   -0.253507
     48          1           0        4.201278   -0.906914    1.168953
     49          6           0        5.087815   -1.875775   -0.545435
     50          1           0        4.957440   -1.891924   -1.636989
     51          1           0        4.880852   -2.888023   -0.174939
     52          6           0        6.547245   -1.532381   -0.224000
     53          1           0        7.190092   -2.286953   -0.690738
     54          1           0        6.804789   -0.565985   -0.694909
     55          7           0        6.789511   -1.567353    1.224949
     56          1           0        6.513346   -0.683461    1.648126
     57          1           0        7.786350   -1.660045    1.407716
     58          8           0        2.531811    1.766911    0.567169
     59          1           0        2.519059    2.664646    0.181772
 ---------------------------------------------------------------------

 SCF Done:  E(RB3LYP) =  -1300.60291606     A.U. after    3 cycles

 Alpha  occ. eigenvalues --  -19.30360 -19.26177 -19.24776 -19.24378 -14.58022
 Alpha  occ. eigenvalues --  -14.49561 -14.49430 -14.37485 -10.42805 -10.42773
 Alpha  occ. eigenvalues --  -10.41799 -10.39154 -10.37264 -10.35167 -10.32988
 Alpha  occ. eigenvalues --  -10.32351 -10.31786 -10.30898 -10.29830 -10.29750
 Alpha  occ. eigenvalues --  -10.29593 -10.29283 -10.29112 -10.29043 -10.28936
 Alpha  occ. eigenvalues --  -10.27213 -10.26753 -10.25162  -1.21349  -1.18022
 Alpha  occ. eigenvalues --   -1.16732  -1.12638  -1.12385  -1.07234  -1.05914
 Alpha  occ. eigenvalues --   -0.96311  -0.94281  -0.92783  -0.91290  -0.90162
 Alpha  occ. eigenvalues --   -0.87337  -0.85312  -0.84686  -0.84071  -0.79248
 Alpha  occ. eigenvalues --   -0.78110  -0.76950  -0.74840  -0.72785  -0.72107
 Alpha  occ. eigenvalues --   -0.71858  -0.70593  -0.70475  -0.69955  -0.68923
 Alpha  occ. eigenvalues --   -0.67777  -0.65225  -0.64848  -0.63218  -0.62034
 Alpha  occ. eigenvalues --   -0.61906  -0.60061  -0.59917  -0.58812  -0.58268
 Alpha  occ. eigenvalues --   -0.57225  -0.56836  -0.56310  -0.55516  -0.55432
 Alpha  occ. eigenvalues --   -0.55110  -0.54614  -0.54298  -0.53924  -0.53156
 Alpha  occ. eigenvalues --   -0.52466  -0.52055  -0.51677  -0.51275  -0.50842
 Alpha  occ. eigenvalues --   -0.49644  -0.49529  -0.49201  -0.48490  -0.47745
 Alpha  occ. eigenvalues --   -0.47203  -0.46727  -0.46289  -0.45835  -0.45533
 Alpha  occ. eigenvalues --   -0.44892  -0.44421  -0.44055  -0.42538  -0.41613
 Alpha  occ. eigenvalues --   -0.41095  -0.40407  -0.40112  -0.39709  -0.38439
 Alpha  occ. eigenvalues --   -0.38061  -0.36890  -0.35529  -0.35113  -0.29805
 Alpha virt. eigenvalues --   -0.13623  -0.11415  -0.11090  -0.10335  -0.09554
 Alpha virt. eigenvalues --   -0.06822  -0.04743  -0.03810  -0.02258  -0.01548
 Alpha virt. eigenvalues --   -0.00995   0.00002   0.00946   0.01204   0.01343

 Mulliken charges:
               1
     1  N   -0.752760
     2  H    0.446214
     3  H    0.403858
     4  H    0.417439
     5  C   -0.070842
     6  H    0.187864
     7  C    0.595558
     8  C   -0.374649
     9  H    0.208410
    10  H    0.181020
    11  O   -0.511899
    12  C    0.106246
    13  C   -0.211927
    14  H    0.142520
    15  C   -0.201148
    16  H    0.180334
    17  C   -0.123951
    18  H    0.161515
    19  C   -0.127713
    20  H    0.163902
    21  C   -0.125228
    22  H    0.163718
    23  N   -0.430355
    24  C   -0.105370
    25  H    0.192247
    26  C    0.676585
    27  C   -0.318595
    28  H    0.162845
    29  H    0.185604
    30  O   -0.583134
    31  C   -0.334901
    32  H    0.198125
    33  H    0.184071
    34  C   -0.116651
    35  H    0.188436
    36  H    0.199968
    37  N   -0.593249
    38  H    0.356566
    39  C   -0.031754
    40  H    0.199731
    41  C    0.600432
    42  C   -0.308811
    43  H    0.154381
    44  H    0.169345
    45  O   -0.462531
    46  C   -0.271913
    47  H    0.148051
    48  H    0.154532
    49  C   -0.237346
    50  H    0.130658
    51  H    0.147766
    52  C   -0.151835
    53  H    0.152771
    54  H    0.121714
    55  N   -0.718923
    56  H    0.296756
    57  H    0.309890
    58  O   -0.551004
    59  H    0.427415
 Sum of Mulliken charges =   1.00000

 Dipole moment (field-independent basis, Debye):
    X=             -6.6786    Y=              0.8035    Z=              9.5823  Tot=             11.7077
 Quadrupole moment (field-independent basis, Debye-Ang):
   XX=            -98.0633   YY=           -147.9517   ZZ=           -100.0710
   XY=             -0.0036   XZ=            -39.1747   YZ=             21.0929

 Normal termination of Gaussian 16 at Thu Jun  2 02:49:11 2022.
