 Gaussian 16, Revision C.01,
 Gaussian 16:  ES64L-G16RevC.01  3-Jul-2019

 ----------------------------------------------------------------------
 # B3LYP/6-31G* empiricaldispersion=gd3 guess=read geom=check nosymm in
 tegral(ultrafinegrid)
 ----------------------------------------------------------------------

 ------------------------------------------------------
 Candidate Structure: Conf:961 Charge calc in gas phase
 ------------------------------------------------------
 Structure from the checkpoint file:  "conf-961.chk"
 Charge =  1 Multiplicity = 1

                          Input orientation:
 ---------------------------------------------------------------------
 Center     Atomic      Atomic             Coordinates (Angstroms)
 Number     Number       Type             X           Y           Z
 ---------------------------------------------------------------------
      1          7           0       -4.738315    3.861802   -1.650871
      2          1           0       -5.759513    3.911218   -1.677981
      3          1           0       -4.327106    4.499411   -2.349200
      4          1           0       -4.389260    4.140381   -0.690540
      5          6           0       -4.188376    2.458861   -1.793821
      6          1           0       -4.994449    1.810409   -2.139666
      7          6           0       -3.739520    2.110662   -0.354557
      8          6           0       -2.998215    2.450042   -2.806014
      9          1           0       -2.347771    1.601634   -2.573328
     10          1           0       -3.404885    2.274959   -3.806975
     11          8           0       -3.606058    3.050887    0.442656
     12          6           0       -2.207672    3.743073   -2.789810
     13          6           0       -2.355428    4.662375   -3.840584
     14          1           0       -2.974773    4.407100   -4.698648
     15          6           0       -1.382132    4.077252   -1.704060
     16          1           0       -1.270041    3.385168   -0.876708
     17          6           0       -1.678732    5.886621   -3.816435
     18          1           0       -1.791285    6.581530   -4.643244
     19          6           0       -0.709134    5.297419   -1.682509
     20          1           0       -0.069986    5.542614   -0.839288
     21          6           0       -0.854846    6.204450   -2.737196
     22          1           0       -0.326745    7.152971   -2.716057
     23          7           0       -3.448452    0.839019   -0.060740
     24          6           0       -2.835333    0.516649    1.252956
     25          1           0       -3.429143    0.966533    2.050914
     26          6           0       -1.403350    1.066038    1.390658
     27          6           0       -2.850238   -1.031742    1.289326
     28          1           0       -1.868670   -1.421753    0.997340
     29          1           0       -3.064377   -1.402020    2.293369
     30          8           0       -0.932983    1.336069    2.482504
     31          6           0       -3.913013   -1.436063    0.253988
     32          1           0       -3.770690   -2.448683   -0.131451
     33          1           0       -4.917172   -1.372894    0.687043
     34          6           0       -3.761212   -0.374943   -0.843101
     35          1           0       -4.668382   -0.240818   -1.437656
     36          1           0       -2.935096   -0.616359   -1.525186
     37          7           0       -0.725773    1.143434    0.212334
     38          1           0       -1.152481    0.805512   -0.638890
     39          6           0        0.690053    1.452768    0.097381
     40          1           0        0.887630    2.423841    0.565992
     41          6           0        0.972078    1.566850   -1.394161
     42          6           0        1.595537    0.390233    0.763753
     43          1           0        1.309057    0.371622    1.818397
     44          1           0        2.632103    0.740460    0.716108
     45          8           0        0.180566    1.261077   -2.268676
     46          6           0        1.477455   -1.003632    0.129888
     47          1           0        0.423162   -1.219743   -0.098905
     48          1           0        2.003705   -1.008281   -0.833711
     49          6           0        2.031608   -2.117860    1.029969
     50          1           0        3.018314   -1.839256    1.419648
     51          1           0        2.179982   -3.026660    0.430490
     52          6           0        1.116226   -2.455013    2.213612
     53          1           0        0.939127   -1.557793    2.819531
     54          1           0        0.125030   -2.758478    1.814433
     55          7           0        1.749994   -3.450738    3.075011
     56          1           0        1.827042   -4.341446    2.586272
     57          1           0        1.182975   -3.622575    3.902556
     58          8           0        2.208976    2.015850   -1.634629
     59          1           0        2.339170    2.030007   -2.602361
 ---------------------------------------------------------------------

 SCF Done:  E(RB3LYP) =  -1300.59450911     A.U. after    3 cycles

 Alpha  occ. eigenvalues --  -19.30590 -19.27488 -19.25429 -19.21409 -14.59919
 Alpha  occ. eigenvalues --  -14.51341 -14.46219 -14.37224 -10.44178 -10.43186
 Alpha  occ. eigenvalues --  -10.41642 -10.38981 -10.36304 -10.34878 -10.34452
 Alpha  occ. eigenvalues --  -10.33975 -10.32466 -10.31265 -10.31259 -10.30773
 Alpha  occ. eigenvalues --  -10.30564 -10.30558 -10.30404 -10.30274 -10.27412
 Alpha  occ. eigenvalues --  -10.27255 -10.26572 -10.24971  -1.21775  -1.20036
 Alpha  occ. eigenvalues --   -1.14316  -1.13599  -1.12755  -1.08933  -1.02997
 Alpha  occ. eigenvalues --   -0.97947  -0.94302  -0.94156  -0.91823  -0.89795
 Alpha  occ. eigenvalues --   -0.87692  -0.86644  -0.86099  -0.83963  -0.80498
 Alpha  occ. eigenvalues --   -0.78185  -0.77092  -0.74605  -0.73539  -0.73273
 Alpha  occ. eigenvalues --   -0.72209  -0.71944  -0.71571  -0.70267  -0.69384
 Alpha  occ. eigenvalues --   -0.67702  -0.64929  -0.64602  -0.64096  -0.63423
 Alpha  occ. eigenvalues --   -0.62150  -0.60858  -0.60025  -0.59523  -0.58129
 Alpha  occ. eigenvalues --   -0.57901  -0.57104  -0.56726  -0.56322  -0.55634
 Alpha  occ. eigenvalues --   -0.54846  -0.54578  -0.54253  -0.53687  -0.53377
 Alpha  occ. eigenvalues --   -0.53043  -0.52507  -0.52268  -0.51779  -0.51191
 Alpha  occ. eigenvalues --   -0.50518  -0.50323  -0.49767  -0.49003  -0.47878
 Alpha  occ. eigenvalues --   -0.47675  -0.47045  -0.46012  -0.45925  -0.45814
 Alpha  occ. eigenvalues --   -0.45508  -0.44593  -0.44223  -0.42841  -0.41915
 Alpha  occ. eigenvalues --   -0.41678  -0.40574  -0.39978  -0.39614  -0.38592
 Alpha  occ. eigenvalues --   -0.36974  -0.36520  -0.35676  -0.34543  -0.29385
 Alpha virt. eigenvalues --   -0.13936  -0.12610  -0.12355  -0.10546  -0.09946
 Alpha virt. eigenvalues --   -0.07810  -0.06332  -0.05173  -0.03073  -0.02778
 Alpha virt. eigenvalues --   -0.02417  -0.01600  -0.01185  -0.01058   0.00236

 Mulliken charges:
               1
     1  N   -0.758889
     2  H    0.411148
     3  H    0.408209
     4  H    0.436766
     5  C   -0.096655
     6  H    0.206025
     7  C    0.631076
     8  C   -0.391650
     9  H    0.223875
    10  H    0.187641
    11  O   -0.529064
    12  C    0.097480
    13  C   -0.214339
    14  H    0.149657
    15  C   -0.181313
    16  H    0.177595
    17  C   -0.121114
    18  H    0.166914
    19  C   -0.137173
    20  H    0.166405
    21  C   -0.124337
    22  H    0.169116
    23  N   -0.469997
    24  C   -0.032887
    25  H    0.208920
    26  C    0.620306
    27  C   -0.332398
    28  H    0.185008
    29  H    0.198529
    30  O   -0.494997
    31  C   -0.290983
    32  H    0.185152
    33  H    0.176329
    34  C   -0.163280
    35  H    0.172182
    36  H    0.183129
    37  N   -0.637124
    38  H    0.350339
    39  C   -0.034356
    40  H    0.199053
    41  C    0.602685
    42  C   -0.285140
    43  H    0.198811
    44  H    0.173302
    45  O   -0.494676
    46  C   -0.283013
    47  H    0.116703
    48  H    0.145879
    49  C   -0.254039
    50  H    0.163628
    51  H    0.135702
    52  C   -0.140421
    53  H    0.153426
    54  H    0.096071
    55  N   -0.710747
    56  H    0.298385
    57  H    0.304023
    58  O   -0.550543
    59  H    0.429664
 Sum of Mulliken charges =   1.00000

 Dipole moment (field-independent basis, Debye):
    X=            -17.4344    Y=             10.3921    Z=            -10.4327  Tot=             22.8209
 Quadrupole moment (field-independent basis, Debye-Ang):
   XX=            -71.1063   YY=            -91.9396   ZZ=           -145.7488
   XY=            -39.7569   XZ=             26.5003   YZ=            -44.1746

 Normal termination of Gaussian 16 at Thu Jun  2 02:55:43 2022.
