 Gaussian 16, Revision C.01,
 Gaussian 16:  ES64L-G16RevC.01  3-Jul-2019

 ----------------------------------------------------------------------
 # B3LYP/6-31G* empiricaldispersion=gd3 guess=read geom=check nosymm in
 tegral(ultrafinegrid)
 ----------------------------------------------------------------------

 ------------------------------------------------------
 Candidate Structure: Conf:304 Charge calc in gas phase
 ------------------------------------------------------
 Structure from the checkpoint file:  "conf-304.chk"
 Charge =  1 Multiplicity = 1

                          Input orientation:
 ---------------------------------------------------------------------
 Center     Atomic      Atomic             Coordinates (Angstroms)
 Number     Number       Type             X           Y           Z
 ---------------------------------------------------------------------
      1          7           0       -3.276449   -1.630789   -3.947458
      2          1           0       -4.243225   -1.380465   -4.170535
      3          1           0       -2.925772   -2.289749   -4.660758
      4          1           0       -2.704142   -0.746756   -3.902572
      5          6           0       -3.116051   -2.207331   -2.559277
      6          1           0       -4.078098   -2.617498   -2.246566
      7          6           0       -2.664520   -0.986299   -1.722674
      8          6           0       -2.019610   -3.307388   -2.589290
      9          1           0       -1.039048   -2.826843   -2.665092
     10          1           0       -2.050273   -3.824656   -1.625622
     11          8           0       -2.230103   -0.005723   -2.344098
     12          6           0       -2.227125   -4.278740   -3.729694
     13          6           0       -1.434088   -4.176103   -4.884176
     14          1           0       -0.612858   -3.461860   -4.907633
     15          6           0       -3.250411   -5.237328   -3.686998
     16          1           0       -3.864242   -5.333879   -2.793536
     17          6           0       -1.661072   -5.020807   -5.976144
     18          1           0       -1.033409   -4.941888   -6.858771
     19          6           0       -3.471667   -6.081905   -4.773727
     20          1           0       -4.257388   -6.829999   -4.725349
     21          6           0       -2.679975   -5.971787   -5.921779
     22          1           0       -2.853490   -6.632271   -6.765872
     23          7           0       -2.675340   -1.078928   -0.388246
     24          6           0       -2.154050    0.041556    0.431749
     25          1           0       -2.508460    0.990566    0.024834
     26          6           0       -0.616565    0.145904    0.451930
     27          6           0       -2.720520   -0.259642    1.831873
     28          1           0       -2.081754    0.157959    2.612189
     29          1           0       -3.716545    0.184848    1.932260
     30          8           0       -0.099697    1.122813    0.971687
     31          6           0       -2.809485   -1.793327    1.855332
     32          1           0       -1.816985   -2.228006    2.018678
     33          1           0       -3.482267   -2.178834    2.624641
     34          6           0       -3.299522   -2.136828    0.441383
     35          1           0       -4.392015   -2.065633    0.368694
     36          1           0       -2.992293   -3.134050    0.117413
     37          7           0        0.078410   -0.899379   -0.073198
     38          1           0       -0.412962   -1.611418   -0.592259
     39          6           0        1.513585   -0.833810   -0.290762
     40          1           0        1.806702    0.220951   -0.254627
     41          6           0        1.803430   -1.373332   -1.683586
     42          6           0        2.322618   -1.607126    0.777908
     43          1           0        3.387300   -1.494337    0.543710
     44          1           0        2.088969   -2.678270    0.699311
     45          8           0        1.002102   -1.966375   -2.385471
     46          6           0        2.034149   -1.110705    2.198001
     47          1           0        2.183736   -0.025016    2.235764
     48          1           0        0.973253   -1.277911    2.431085
     49          6           0        2.899166   -1.800761    3.257423
     50          1           0        3.960230   -1.586200    3.061813
     51          1           0        2.783231   -2.891957    3.175496
     52          6           0        2.549208   -1.368566    4.695668
     53          1           0        1.504214   -1.636652    4.905817
     54          1           0        3.160885   -1.946000    5.399491
     55          7           0        2.714646    0.047569    5.021808
     56          1           0        2.122497    0.628411    4.431511
     57          1           0        3.675134    0.340882    4.849329
     58          8           0        3.074044   -1.151940   -2.041774
     59          1           0        3.214351   -1.548913   -2.922648
 ---------------------------------------------------------------------

 SCF Done:  E(RB3LYP) =  -1300.59717510     A.U. after    2 cycles

 Alpha  occ. eigenvalues --  -19.30594 -19.27362 -19.25587 -19.21206 -14.60062
 Alpha  occ. eigenvalues --  -14.51338 -14.46300 -14.36575 -10.44212 -10.43307
 Alpha  occ. eigenvalues --  -10.41558 -10.38891 -10.36106 -10.34823 -10.34230
 Alpha  occ. eigenvalues --  -10.33680 -10.32875 -10.31533 -10.31440 -10.30999
 Alpha  occ. eigenvalues --  -10.30987 -10.30966 -10.30673 -10.30326 -10.27900
 Alpha  occ. eigenvalues --  -10.26411 -10.25828 -10.24654  -1.21798  -1.19976
 Alpha  occ. eigenvalues --   -1.14450  -1.13553  -1.12748  -1.08794  -1.02890
 Alpha  occ. eigenvalues --   -0.98384  -0.94445  -0.93472  -0.91928  -0.89534
 Alpha  occ. eigenvalues --   -0.87740  -0.86702  -0.86498  -0.83641  -0.80476
 Alpha  occ. eigenvalues --   -0.77908  -0.77130  -0.74506  -0.73792  -0.73603
 Alpha  occ. eigenvalues --   -0.72463  -0.71516  -0.70935  -0.70337  -0.68876
 Alpha  occ. eigenvalues --   -0.68710  -0.65183  -0.64788  -0.63902  -0.63399
 Alpha  occ. eigenvalues --   -0.62756  -0.60639  -0.60221  -0.59338  -0.58527
 Alpha  occ. eigenvalues --   -0.57597  -0.57302  -0.57005  -0.56668  -0.55705
 Alpha  occ. eigenvalues --   -0.54930  -0.54581  -0.54135  -0.53948  -0.53417
 Alpha  occ. eigenvalues --   -0.53084  -0.52381  -0.52017  -0.51453  -0.50536
 Alpha  occ. eigenvalues --   -0.50147  -0.49809  -0.49196  -0.48212  -0.48016
 Alpha  occ. eigenvalues --   -0.47633  -0.47465  -0.46454  -0.46064  -0.45761
 Alpha  occ. eigenvalues --   -0.45457  -0.44276  -0.43378  -0.42577  -0.42170
 Alpha  occ. eigenvalues --   -0.41859  -0.40490  -0.40047  -0.39621  -0.38625
 Alpha  occ. eigenvalues --   -0.37415  -0.36990  -0.35563  -0.34637  -0.28580
 Alpha virt. eigenvalues --   -0.14282  -0.12962  -0.12187  -0.10592  -0.10050
 Alpha virt. eigenvalues --   -0.07790  -0.06001  -0.04519  -0.02960  -0.02453
 Alpha virt. eigenvalues --   -0.02112  -0.01707  -0.00966  -0.00573   0.00792

 Mulliken charges:
               1
     1  N   -0.750424
     2  H    0.414424
     3  H    0.407236
     4  H    0.430387
     5  C   -0.100991
     6  H    0.206527
     7  C    0.614863
     8  C   -0.435790
     9  H    0.249309
    10  H    0.194522
    11  O   -0.526143
    12  C    0.127940
    13  C   -0.228673
    14  H    0.165117
    15  C   -0.180468
    16  H    0.140644
    17  C   -0.119939
    18  H    0.168782
    19  C   -0.123802
    20  H    0.168484
    21  C   -0.123705
    22  H    0.171163
    23  N   -0.473402
    24  C   -0.045365
    25  H    0.213024
    26  C    0.626982
    27  C   -0.307769
    28  H    0.207721
    29  H    0.173773
    30  O   -0.504027
    31  C   -0.309698
    32  H    0.178124
    33  H    0.187145
    34  C   -0.150372
    35  H    0.181201
    36  H    0.170475
    37  N   -0.608883
    38  H    0.341208
    39  C   -0.053935
    40  H    0.216364
    41  C    0.593517
    42  C   -0.263693
    43  H    0.173197
    44  H    0.136330
    45  O   -0.493633
    46  C   -0.260990
    47  H    0.153302
    48  H    0.128155
    49  C   -0.264037
    50  H    0.134567
    51  H    0.126788
    52  C   -0.143089
    53  H    0.133414
    54  H    0.153282
    55  N   -0.703377
    56  H    0.301251
    57  H    0.298000
    58  O   -0.541848
    59  H    0.426841
 Sum of Mulliken charges =   1.00000

 Dipole moment (field-independent basis, Debye):
    X=            -12.7101    Y=            -14.1460    Z=            -14.4436  Tot=             23.8804
 Quadrupole moment (field-independent basis, Debye-Ang):
   XX=            -91.1596   YY=           -123.0845   ZZ=           -100.0260
   XY=             34.1770   XZ=             34.6296   YZ=             40.0455

 Normal termination of Gaussian 16 at Thu Jun  2 02:42:30 2022.
