 Gaussian 16, Revision C.01,
 Gaussian 16:  ES64L-G16RevC.01  3-Jul-2019

 ----------------------------------------------------------------------
 # B3LYP/6-31G* empiricaldispersion=gd3 guess=read geom=check nosymm in
 tegral(ultrafinegrid)
 ----------------------------------------------------------------------

 ------------------------------------------------------
 Candidate Structure: Conf:667 Charge calc in gas phase
 ------------------------------------------------------
 Structure from the checkpoint file:  "conf-667.chk"
 Charge =  1 Multiplicity = 1

                          Input orientation:
 ---------------------------------------------------------------------
 Center     Atomic      Atomic             Coordinates (Angstroms)
 Number     Number       Type             X           Y           Z
 ---------------------------------------------------------------------
      1          7           0       -2.475241    4.200628    0.718531
      2          1           0       -1.558160    3.733709    0.567640
      3          1           0       -2.433361    4.926263    1.442502
      4          1           0       -2.798162    4.643957   -0.153201
      5          6           0       -3.446340    3.094261    1.065181
      6          1           0       -2.955595    2.523464    1.851029
      7          6           0       -3.576375    2.327906   -0.264812
      8          6           0       -4.819516    3.662924    1.549772
      9          1           0       -5.611898    3.130565    1.017029
     10          1           0       -4.926039    3.422379    2.611768
     11          8           0       -4.026638    2.955930   -1.223798
     12          6           0       -4.968715    5.158227    1.347169
     13          6           0       -4.680093    6.042355    2.397449
     14          1           0       -4.430816    5.649451    3.381655
     15          6           0       -5.316580    5.679515    0.091424
     16          1           0       -5.525367    4.998731   -0.728546
     17          6           0       -4.745196    7.424774    2.200353
     18          1           0       -4.532225    8.098397    3.025267
     19          6           0       -5.382747    7.060255   -0.102293
     20          1           0       -5.663425    7.453283   -1.075147
     21          6           0       -5.095493    7.934967    0.949400
     22          1           0       -5.151519    9.008467    0.795726
     23          7           0       -3.206739    1.032333   -0.334701
     24          6           0       -2.375115    0.286608    0.620269
     25          1           0       -2.776592    0.360812    1.637018
     26          6           0       -0.943281    0.891585    0.638186
     27          6           0       -2.492284   -1.149148    0.073210
     28          1           0       -1.725806   -1.835177    0.442327
     29          1           0       -3.459363   -1.559450    0.383040
     30          8           0       -0.766749    2.107946    0.470378
     31          6           0       -2.454068   -0.929476   -1.446022
     32          1           0       -1.424281   -0.734779   -1.767485
     33          1           0       -2.833244   -1.784320   -2.010165
     34          6           0       -3.319298    0.324122   -1.635850
     35          1           0       -4.372399    0.085002   -1.815550
     36          1           0       -2.981470    0.978973   -2.442066
     37          7           0        0.087860    0.069174    0.874151
     38          1           0       -0.057072   -0.929827    0.899065
     39          6           0        1.470660    0.546389    0.799014
     40          1           0        1.586606    1.393548    1.479338
     41          6           0        1.803592    1.072825   -0.597472
     42          6           0        2.431320   -0.589334    1.200195
     43          1           0        2.371506   -1.387775    0.446296
     44          1           0        2.077467   -0.995974    2.154686
     45          8           0        2.594794    1.956164   -0.815683
     46          6           0        3.879815   -0.121070    1.379836
     47          1           0        4.221939    0.410833    0.485330
     48          1           0        3.901766    0.599089    2.205221
     49          6           0        4.851399   -1.272583    1.683239
     50          1           0        5.841026   -0.839755    1.883132
     51          1           0        4.971422   -1.908110    0.795453
     52          6           0        4.440848   -2.163445    2.864286
     53          1           0        3.567147   -2.766980    2.584759
     54          1           0        5.257166   -2.878910    3.061947
     55          7           0        4.057237   -1.351976    4.028280
     56          1           0        4.862527   -0.811028    4.343841
     57          1           0        3.812616   -1.961744    4.807040
     58          8           0        1.162363    0.379139   -1.573790
     59          1           0        1.480929    0.740258   -2.423152
 ---------------------------------------------------------------------

 SCF Done:  E(RB3LYP) =  -1300.60266521     A.U. after    1 cycles

 Alpha  occ. eigenvalues --  -19.29751 -19.26033 -19.24545 -19.23693 -14.58042
 Alpha  occ. eigenvalues --  -14.49692 -14.49498 -14.38518 -10.42684 -10.41969
 Alpha  occ. eigenvalues --  -10.41854 -10.39245 -10.37432 -10.34605 -10.33383
 Alpha  occ. eigenvalues --  -10.32459 -10.32104 -10.30923 -10.30461 -10.29762
 Alpha  occ. eigenvalues --  -10.29280 -10.29116 -10.29060 -10.28931 -10.28674
 Alpha  occ. eigenvalues --  -10.27839 -10.26023 -10.25541  -1.20413  -1.17987
 Alpha  occ. eigenvalues --   -1.16789  -1.12649  -1.11477  -1.07401  -1.05809
 Alpha  occ. eigenvalues --   -0.96333  -0.95164  -0.92960  -0.91253  -0.89979
 Alpha  occ. eigenvalues --   -0.87437  -0.85378  -0.84695  -0.83827  -0.79317
 Alpha  occ. eigenvalues --   -0.77765  -0.76903  -0.74485  -0.72789  -0.72174
 Alpha  occ. eigenvalues --   -0.71941  -0.70862  -0.70558  -0.70437  -0.68950
 Alpha  occ. eigenvalues --   -0.68206  -0.65575  -0.64205  -0.63237  -0.62094
 Alpha  occ. eigenvalues --   -0.61132  -0.60173  -0.59400  -0.59176  -0.57480
 Alpha  occ. eigenvalues --   -0.57084  -0.56890  -0.56100  -0.56007  -0.55473
 Alpha  occ. eigenvalues --   -0.55076  -0.54823  -0.54089  -0.53382  -0.52932
 Alpha  occ. eigenvalues --   -0.52554  -0.52027  -0.51497  -0.51238  -0.50808
 Alpha  occ. eigenvalues --   -0.50463  -0.49604  -0.48908  -0.48685  -0.47596
 Alpha  occ. eigenvalues --   -0.47419  -0.46940  -0.46360  -0.45905  -0.45797
 Alpha  occ. eigenvalues --   -0.44929  -0.44442  -0.44078  -0.41913  -0.41772
 Alpha  occ. eigenvalues --   -0.40786  -0.40540  -0.40186  -0.39673  -0.38617
 Alpha  occ. eigenvalues --   -0.37125  -0.36399  -0.35531  -0.35124  -0.30854
 Alpha virt. eigenvalues --   -0.13409  -0.11404  -0.11100  -0.10366  -0.08825
 Alpha virt. eigenvalues --   -0.06852  -0.05022  -0.03956  -0.02267  -0.01605
 Alpha virt. eigenvalues --   -0.01185  -0.00041   0.00281   0.01042   0.01264

 Mulliken charges:
               1
     1  N   -0.751192
     2  H    0.447876
     3  H    0.404530
     4  H    0.418711
     5  C   -0.071136
     6  H    0.187251
     7  C    0.601582
     8  C   -0.376095
     9  H    0.207245
    10  H    0.181255
    11  O   -0.514263
    12  C    0.107246
    13  C   -0.212040
    14  H    0.142331
    15  C   -0.199741
    16  H    0.179003
    17  C   -0.123653
    18  H    0.161856
    19  C   -0.127549
    20  H    0.164192
    21  C   -0.124891
    22  H    0.164233
    23  N   -0.431135
    24  C   -0.108142
    25  H    0.193472
    26  C    0.673676
    27  C   -0.311654
    28  H    0.162107
    29  H    0.186037
    30  O   -0.581477
    31  C   -0.324247
    32  H    0.182018
    33  H    0.186069
    34  C   -0.117999
    35  H    0.189236
    36  H    0.196079
    37  N   -0.610193
    38  H    0.355214
    39  C   -0.003402
    40  H    0.197958
    41  C    0.598556
    42  C   -0.326525
    43  H    0.149671
    44  H    0.184251
    45  O   -0.440975
    46  C   -0.255331
    47  H    0.163302
    48  H    0.156666
    49  C   -0.279425
    50  H    0.148290
    51  H    0.142836
    52  C   -0.140116
    53  H    0.132972
    54  H    0.136928
    55  N   -0.727473
    56  H    0.302980
    57  H    0.306400
    58  O   -0.578662
    59  H    0.425289
 Sum of Mulliken charges =   1.00000

 Dipole moment (field-independent basis, Debye):
    X=             -8.5555    Y=              8.2987    Z=              5.5388  Tot=             13.1431
 Quadrupole moment (field-independent basis, Debye-Ang):
   XX=           -113.4420   YY=            -85.6984   ZZ=           -137.8688
   XY=            -48.5146   XZ=             -1.4185   YZ=             13.8561

 Normal termination of Gaussian 16 at Thu Jun  2 02:48:30 2022.
