 Gaussian 16, Revision C.01,
 Gaussian 16:  ES64L-G16RevC.01  3-Jul-2019

 ----------------------------------------------------------------------
 # B3LYP/6-31G* empiricaldispersion=gd3 guess=read geom=check nosymm in
 tegral(ultrafinegrid)
 ----------------------------------------------------------------------

 ------------------------------------------------------
 Candidate Structure: Conf:684 Charge calc in gas phase
 ------------------------------------------------------
 Structure from the checkpoint file:  "conf-684.chk"
 Charge =  1 Multiplicity = 1

                          Input orientation:
 ---------------------------------------------------------------------
 Center     Atomic      Atomic             Coordinates (Angstroms)
 Number     Number       Type             X           Y           Z
 ---------------------------------------------------------------------
      1          7           0       -1.391396   -0.230819   -4.392045
      2          1           0       -0.432611   -0.394452   -4.019628
      3          1           0       -1.363258    0.489962   -5.118694
      4          1           0       -1.745545   -1.127720   -4.779675
      5          6           0       -2.350853    0.103412   -3.270513
      6          1           0       -1.840960    0.799213   -2.606849
      7          6           0       -2.646708   -1.286232   -2.657567
      8          6           0       -3.644084    0.730840   -3.827900
      9          1           0       -3.386792    1.650109   -4.369764
     10          1           0       -4.094556    0.029711   -4.540028
     11          8           0       -2.789967   -2.217379   -3.458976
     12          6           0       -4.596377    1.033120   -2.689085
     13          6           0       -5.520237    0.068478   -2.266734
     14          1           0       -5.611437   -0.866568   -2.814817
     15          6           0       -4.491299    2.237930   -1.982058
     16          1           0       -3.782296    2.996860   -2.306047
     17          6           0       -6.317085    0.299489   -1.144619
     18          1           0       -7.036650   -0.450901   -0.830155
     19          6           0       -5.288456    2.470130   -0.859760
     20          1           0       -5.200948    3.408489   -0.320507
     21          6           0       -6.197958    1.498021   -0.436070
     22          1           0       -6.820983    1.679687    0.434634
     23          7           0       -2.737137   -1.403105   -1.326832
     24          6           0       -2.425376   -0.343038   -0.349716
     25          1           0       -3.045029    0.540956   -0.510803
     26          6           0       -0.967572    0.138985   -0.434359
     27          6           0       -2.765367   -1.006352    1.006820
     28          1           0       -2.139290   -0.619141    1.813851
     29          1           0       -3.807954   -0.778875    1.250522
     30          8           0       -0.659709    1.243252   -0.016082
     31          6           0       -2.592161   -2.511859    0.745791
     32          1           0       -1.534301   -2.795878    0.805927
     33          1           0       -3.140641   -3.130900    1.459402
     34          6           0       -3.109529   -2.683429   -0.686357
     35          1           0       -4.199998   -2.790572   -0.718677
     36          1           0       -2.669452   -3.516914   -1.237820
     37          7           0       -0.076515   -0.705694   -1.056966
     38          1           0       -0.346782   -1.674192   -1.168121
     39          6           0        1.351326   -0.411213   -1.017381
     40          1           0        1.424996    0.684063   -0.999116
     41          6           0        2.057139   -0.860967   -2.289292
     42          6           0        2.055375   -0.966266    0.236161
     43          1           0        1.613752   -0.457421    1.100690
     44          1           0        3.108839   -0.672624    0.189041
     45          8           0        3.217703   -1.159226   -2.367415
     46          6           0        1.946387   -2.486265    0.400062
     47          1           0        0.887246   -2.781431    0.465708
     48          1           0        2.359449   -2.984207   -0.487851
     49          6           0        2.673169   -3.000843    1.648692
     50          1           0        2.290690   -2.480273    2.539168
     51          1           0        3.741212   -2.751471    1.577371
     52          6           0        2.517008   -4.519636    1.844743
     53          1           0        1.447899   -4.765097    1.918991
     54          1           0        2.887978   -5.039954    0.951406
     55          7           0        3.188394   -5.094693    3.006715
     56          1           0        2.871213   -4.638260    3.860785
     57          1           0        4.192452   -4.931127    2.950524
     58          8           0        1.254461   -0.871621   -3.422436
     59          1           0        1.854785   -1.154947   -4.141415
 ---------------------------------------------------------------------

 SCF Done:  E(RB3LYP) =  -1300.59980678     A.U. after    1 cycles

 Alpha  occ. eigenvalues --  -19.34467 -19.27554 -19.26562 -19.24504 -14.60128
 Alpha  occ. eigenvalues --  -14.50927 -14.49451 -14.37661 -10.45566 -10.43645
 Alpha  occ. eigenvalues --  -10.41621 -10.40760 -10.36415 -10.36180 -10.34545
 Alpha  occ. eigenvalues --  -10.34241 -10.31655 -10.31454 -10.31135 -10.30219
 Alpha  occ. eigenvalues --  -10.30177 -10.29805 -10.29724 -10.29616 -10.29303
 Alpha  occ. eigenvalues --  -10.28322 -10.27895 -10.26311  -1.24217  -1.19225
 Alpha  occ. eigenvalues --   -1.16633  -1.15430  -1.14259  -1.08898  -1.05579
 Alpha  occ. eigenvalues --   -0.97566  -0.94697  -0.93904  -0.92043  -0.91202
 Alpha  occ. eigenvalues --   -0.88093  -0.86013  -0.85498  -0.85406  -0.80534
 Alpha  occ. eigenvalues --   -0.79394  -0.77807  -0.74640  -0.74515  -0.73674
 Alpha  occ. eigenvalues --   -0.73324  -0.71624  -0.71377  -0.69884  -0.69350
 Alpha  occ. eigenvalues --   -0.69153  -0.67085  -0.66652  -0.64678  -0.63644
 Alpha  occ. eigenvalues --   -0.62441  -0.62097  -0.61597  -0.60101  -0.58941
 Alpha  occ. eigenvalues --   -0.58333  -0.57708  -0.57331  -0.56897  -0.56520
 Alpha  occ. eigenvalues --   -0.55836  -0.55328  -0.54499  -0.54371  -0.53636
 Alpha  occ. eigenvalues --   -0.53494  -0.53161  -0.52889  -0.52383  -0.52231
 Alpha  occ. eigenvalues --   -0.51233  -0.50709  -0.50448  -0.50008  -0.48227
 Alpha  occ. eigenvalues --   -0.47832  -0.47392  -0.46701  -0.46182  -0.46056
 Alpha  occ. eigenvalues --   -0.45994  -0.45394  -0.45032  -0.44432  -0.43709
 Alpha  occ. eigenvalues --   -0.42698  -0.41400  -0.41090  -0.40825  -0.40128
 Alpha  occ. eigenvalues --   -0.38772  -0.36950  -0.35868  -0.35688  -0.29711
 Alpha virt. eigenvalues --   -0.13753  -0.12809  -0.11986  -0.11234  -0.11143
 Alpha virt. eigenvalues --   -0.10071  -0.06503  -0.05617  -0.03323  -0.02402
 Alpha virt. eigenvalues --   -0.02077  -0.01320  -0.00623  -0.00041   0.01263

 Mulliken charges:
               1
     1  N   -0.778305
     2  H    0.449558
     3  H    0.406434
     4  H    0.417220
     5  C   -0.110960
     6  H    0.219594
     7  C    0.622621
     8  C   -0.372820
     9  H    0.176011
    10  H    0.193078
    11  O   -0.539581
    12  C    0.144844
    13  C   -0.181605
    14  H    0.154108
    15  C   -0.190131
    16  H    0.143753
    17  C   -0.136615
    18  H    0.159874
    19  C   -0.124919
    20  H    0.165904
    21  C   -0.129093
    22  H    0.164149
    23  N   -0.462022
    24  C   -0.062581
    25  H    0.214459
    26  C    0.591747
    27  C   -0.309090
    28  H    0.195347
    29  H    0.185740
    30  O   -0.496691
    31  C   -0.324969
    32  H    0.168090
    33  H    0.191223
    34  C   -0.136746
    35  H    0.188991
    36  H    0.197040
    37  N   -0.622847
    38  H    0.347146
    39  C   -0.074190
    40  H    0.229053
    41  C    0.611385
    42  C   -0.260928
    43  H    0.167336
    44  H    0.184113
    45  O   -0.413429
    46  C   -0.292178
    47  H    0.117678
    48  H    0.153511
    49  C   -0.265968
    50  H    0.132130
    51  H    0.145388
    52  C   -0.139566
    53  H    0.133036
    54  H    0.146974
    55  N   -0.697986
    56  H    0.297532
    57  H    0.301584
    58  O   -0.626866
    59  H    0.433436
 Sum of Mulliken charges =   1.00000

 Dipole moment (field-independent basis, Debye):
    X=             -8.4879    Y=             -1.3886    Z=            -12.0157  Tot=             14.7767
 Quadrupole moment (field-independent basis, Debye-Ang):
   XX=           -120.5489   YY=           -167.7946   ZZ=            -94.8315
   XY=             -1.1272   XZ=             11.8661   YZ=             -4.6901

 Normal termination of Gaussian 16 at Thu Jun  2 02:55:35 2022.
