 Gaussian 16, Revision C.01,
 Gaussian 16:  ES64L-G16RevC.01  3-Jul-2019

 ----------------------------------------------------------------------
 # B3LYP/6-31G* empiricaldispersion=gd3 guess=read geom=check nosymm in
 tegral(ultrafinegrid)
 ----------------------------------------------------------------------

 ------------------------------------------------------
 Candidate Structure: Conf:315 Charge calc in gas phase
 ------------------------------------------------------
 Structure from the checkpoint file:  "conf-315.chk"
 Charge =  1 Multiplicity = 1

                          Input orientation:
 ---------------------------------------------------------------------
 Center     Atomic      Atomic             Coordinates (Angstroms)
 Number     Number       Type             X           Y           Z
 ---------------------------------------------------------------------
      1          7           0       -2.667539   -2.330441   -3.542943
      2          1           0       -3.585796   -2.335258   -3.995056
      3          1           0       -2.130824   -3.153738   -3.858222
      4          1           0       -2.182437   -1.422602   -3.777395
      5          6           0       -2.746864   -2.279484   -2.036396
      6          1           0       -3.707844   -2.693629   -1.728917
      7          6           0       -2.552818   -0.777583   -1.719817
      8          6           0       -1.562094   -3.077524   -1.422828
      9          1           0       -0.654365   -2.479035   -1.550113
     10          1           0       -1.759449   -3.162283   -0.349273
     11          8           0       -2.060252   -0.077956   -2.614551
     12          6           0       -1.377127   -4.438811   -2.052019
     13          6           0       -2.185137   -5.526103   -1.691555
     14          1           0       -2.927307   -5.410861   -0.904431
     15          6           0       -0.413739   -4.608616   -3.061098
     16          1           0        0.242909   -3.780270   -3.320309
     17          6           0       -2.026778   -6.760900   -2.319998
     18          1           0       -2.647979   -7.600700   -2.023398
     19          6           0       -0.260480   -5.845654   -3.696154
     20          1           0        0.494584   -5.967477   -4.467233
     21          6           0       -1.067068   -6.921783   -3.324738
     22          1           0       -0.945372   -7.885341   -3.809907
     23          7           0       -2.776037   -0.349648   -0.472376
     24          6           0       -2.285435    0.994442   -0.067297
     25          1           0       -2.720545    1.755176   -0.719046
     26          6           0       -0.756126    1.112178   -0.219911
     27          6           0       -2.769078    1.115328    1.394507
     28          1           0       -1.982242    0.771985    2.075533
     29          1           0       -3.004999    2.149442    1.651803
     30          8           0       -0.227231    2.143958   -0.586789
     31          6           0       -3.984451    0.176561    1.468505
     32          1           0       -4.226503   -0.133262    2.488048
     33          1           0       -4.869019    0.658156    1.037981
     34          6           0       -3.564819   -1.009325    0.589454
     35          1           0       -4.414096   -1.553452    0.167172
     36          1           0       -2.941479   -1.717665    1.151814
     37          7           0       -0.058353   -0.009998    0.139417
     38          1           0       -0.569814   -0.858941    0.330200
     39          6           0        1.374722   -0.142154   -0.087779
     40          1           0        1.896469    0.693464    0.384257
     41          6           0        1.727092   -0.058461   -1.573537
     42          6           0        1.837359   -1.493991    0.487391
     43          1           0        1.179692   -2.267910    0.068232
     44          1           0        1.660913   -1.484071    1.570211
     45          8           0        2.601631    0.612172   -2.050598
     46          6           0        3.298882   -1.854185    0.190068
     47          1           0        3.519095   -1.694123   -0.871881
     48          1           0        3.960629   -1.172154    0.736597
     49          6           0        3.647845   -3.310358    0.542400
     50          1           0        3.566962   -3.465746    1.626776
     51          1           0        4.694100   -3.484015    0.268037
     52          6           0        2.775175   -4.358310   -0.166981
     53          1           0        3.196801   -5.350352    0.028985
     54          1           0        1.762908   -4.365519    0.281766
     55          7           0        2.771476   -4.155933   -1.621210
     56          1           0        2.248356   -3.315072   -1.860872
     57          1           0        2.296583   -4.931686   -2.077848
     58          8           0        0.969560   -0.921767   -2.334994
     59          1           0        1.276769   -0.779186   -3.250885
 ---------------------------------------------------------------------

 SCF Done:  E(RB3LYP) =  -1300.58341147     A.U. after    2 cycles

 Alpha  occ. eigenvalues --  -19.30279 -19.27969 -19.23804 -19.21800 -14.60816
 Alpha  occ. eigenvalues --  -14.51798 -14.46846 -14.39462 -10.44741 -10.42313
 Alpha  occ. eigenvalues --  -10.41622 -10.39234 -10.36895 -10.35431 -10.35299
 Alpha  occ. eigenvalues --  -10.33913 -10.33875 -10.32630 -10.32313 -10.31957
 Alpha  occ. eigenvalues --  -10.31799 -10.31683 -10.31551 -10.31165 -10.29396
 Alpha  occ. eigenvalues --  -10.28734 -10.26858 -10.25832  -1.20657  -1.20354
 Alpha  occ. eigenvalues --   -1.15167  -1.13950  -1.11555  -1.09403  -1.03357
 Alpha  occ. eigenvalues --   -0.99347  -0.96165  -0.95275  -0.92572  -0.90389
 Alpha  occ. eigenvalues --   -0.88583  -0.87638  -0.87386  -0.83870  -0.81289
 Alpha  occ. eigenvalues --   -0.78708  -0.77744  -0.75302  -0.74662  -0.73888
 Alpha  occ. eigenvalues --   -0.73315  -0.72623  -0.72031  -0.71457  -0.70169
 Alpha  occ. eigenvalues --   -0.68376  -0.65439  -0.65145  -0.64472  -0.64097
 Alpha  occ. eigenvalues --   -0.63505  -0.61595  -0.59896  -0.59648  -0.58693
 Alpha  occ. eigenvalues --   -0.58493  -0.57969  -0.57833  -0.57231  -0.55809
 Alpha  occ. eigenvalues --   -0.55692  -0.55326  -0.55068  -0.54943  -0.54222
 Alpha  occ. eigenvalues --   -0.53830  -0.53646  -0.52662  -0.52389  -0.51441
 Alpha  occ. eigenvalues --   -0.50650  -0.50167  -0.49939  -0.49238  -0.49040
 Alpha  occ. eigenvalues --   -0.48222  -0.48002  -0.47377  -0.47103  -0.47041
 Alpha  occ. eigenvalues --   -0.46230  -0.46217  -0.45104  -0.42459  -0.42303
 Alpha  occ. eigenvalues --   -0.41657  -0.41240  -0.40971  -0.39935  -0.38462
 Alpha  occ. eigenvalues --   -0.38363  -0.37899  -0.35337  -0.35002  -0.31444
 Alpha virt. eigenvalues --   -0.15049  -0.14016  -0.12916  -0.11241  -0.09439
 Alpha virt. eigenvalues --   -0.08121  -0.07355  -0.06433  -0.05009  -0.03473
 Alpha virt. eigenvalues --   -0.03253  -0.02572  -0.01513  -0.01030  -0.00791

 Mulliken charges:
               1
     1  N   -0.751372
     2  H    0.416353
     3  H    0.406348
     4  H    0.429137
     5  C   -0.099737
     6  H    0.205845
     7  C    0.630666
     8  C   -0.429574
     9  H    0.234522
    10  H    0.191094
    11  O   -0.520296
    12  C    0.136358
    13  C   -0.178292
    14  H    0.145109
    15  C   -0.238687
    16  H    0.151076
    17  C   -0.122701
    18  H    0.172637
    19  C   -0.127084
    20  H    0.174570
    21  C   -0.122300
    22  H    0.175731
    23  N   -0.474108
    24  C   -0.033213
    25  H    0.210658
    26  C    0.626707
    27  C   -0.319256
    28  H    0.175105
    29  H    0.203382
    30  O   -0.481129
    31  C   -0.296793
    32  H    0.186830
    33  H    0.180777
    34  C   -0.155080
    35  H    0.174887
    36  H    0.169629
    37  N   -0.628704
    38  H    0.323457
    39  C    0.001236
    40  H    0.210731
    41  C    0.606332
    42  C   -0.320047
    43  H    0.128930
    44  H    0.168142
    45  O   -0.421648
    46  C   -0.295528
    47  H    0.171774
    48  H    0.164789
    49  C   -0.246175
    50  H    0.137514
    51  H    0.166114
    52  C   -0.149416
    53  H    0.158399
    54  H    0.099235
    55  N   -0.725845
    56  H    0.288400
    57  H    0.300009
    58  O   -0.603361
    59  H    0.417860
 Sum of Mulliken charges =   1.00000

 Dipole moment (field-independent basis, Debye):
    X=            -14.7474    Y=            -16.5742    Z=             -7.6852  Tot=             23.4788
 Quadrupole moment (field-independent basis, Debye-Ang):
   XX=           -119.6440   YY=           -106.7629   ZZ=           -114.7490
   XY=             26.5746   XZ=             27.0825   YZ=             45.3508

 Normal termination of Gaussian 16 at Thu Jun  2 02:42:30 2022.
