 Gaussian 16, Revision C.01,
 Gaussian 16:  ES64L-G16RevC.01  3-Jul-2019

 ----------------------------------------------------------------------
 # B3LYP/6-31G* empiricaldispersion=gd3 guess=read geom=check nosymm in
 tegral(ultrafinegrid)
 ----------------------------------------------------------------------

 -----------------------------------------------------
 Candidate Structure: Conf:34 Charge calc in gas phase
 -----------------------------------------------------
 Structure from the checkpoint file:  "conf-34.chk"
 Charge =  1 Multiplicity = 1

                          Input orientation:
 ---------------------------------------------------------------------
 Center     Atomic      Atomic             Coordinates (Angstroms)
 Number     Number       Type             X           Y           Z
 ---------------------------------------------------------------------
      1          7           0       -3.875641    2.333126    3.455538
      2          1           0       -4.834377    2.147185    3.760039
      3          1           0       -3.464928    3.074504    4.046390
      4          1           0       -3.322930    1.438593    3.504998
      5          6           0       -3.770909    2.705552    1.993933
      6          1           0       -4.719367    3.146038    1.683939
      7          6           0       -3.420483    1.370284    1.306117
      8          6           0       -2.589904    3.703821    1.822537
      9          1           0       -1.652270    3.151258    1.931729
     10          1           0       -2.604885    4.062763    0.790768
     11          8           0       -2.937425    0.485673    2.032149
     12          6           0       -2.675025    4.836621    2.819397
     13          6           0       -3.632698    5.852663    2.681473
     14          1           0       -4.281640    5.869539    1.807795
     15          6           0       -1.831970    4.832873    3.943198
     16          1           0       -1.054952    4.071159    4.028888
     17          6           0       -3.743036    6.853469    3.645416
     18          1           0       -4.477948    7.643750    3.523106
     19          6           0       -1.950881    5.837005    4.911200
     20          1           0       -1.287186    5.836903    5.771365
     21          6           0       -2.904616    6.844215    4.765352
     22          1           0       -2.991553    7.625768    5.514273
     23          7           0       -3.518961    1.260002   -0.021100
     24          6           0       -2.635292    0.282886   -0.690130
     25          1           0       -2.858539   -0.730053   -0.346860
     26          6           0       -1.184063    0.684669   -0.330452
     27          6           0       -2.939583    0.502961   -2.184518
     28          1           0       -2.093999    0.224982   -2.818884
     29          1           0       -3.798346   -0.111120   -2.476928
     30          8           0       -0.905421    1.865598   -0.118613
     31          6           0       -3.283057    1.999945   -2.257637
     32          1           0       -2.365812    2.593923   -2.229727
     33          1           0       -3.851101    2.266316   -3.151993
     34          6           0       -4.085721    2.241451   -0.971393
     35          1           0       -5.151692    2.026909   -1.112565
     36          1           0       -3.982713    3.264943   -0.605669
     37          7           0       -0.286885   -0.318117   -0.274725
     38          1           0       -0.540254   -1.268440   -0.518162
     39          6           0        1.109583   -0.077831    0.062684
     40          1           0        1.341094    0.954268   -0.213422
     41          6           0        1.957585   -1.032656   -0.763930
     42          6           0        1.411615   -0.277310    1.571223
     43          1           0        2.435471    0.074920    1.744828
     44          1           0        1.406363   -1.352313    1.798778
     45          8           0        1.522556   -2.002277   -1.346905
     46          6           0        0.418112    0.434610    2.501587
     47          1           0        0.296942    1.479988    2.194947
     48          1           0       -0.563829   -0.033526    2.388721
     49          6           0        0.869567    0.387607    3.972825
     50          1           0        1.405273   -0.549860    4.173150
     51          1           0       -0.005554    0.381825    4.637844
     52          6           0        1.756822    1.578241    4.358396
     53          1           0        2.348870    1.335600    5.254459
     54          1           0        2.474117    1.777662    3.552844
     55          7           0        0.931014    2.793035    4.538262
     56          1           0        1.530835    3.617200    4.539581
     57          1           0        0.514970    2.762287    5.469618
     58          8           0        3.258200   -0.694590   -0.721285
     59          1           0        3.752337   -1.368118   -1.227415
 ---------------------------------------------------------------------

 SCF Done:  E(RB3LYP) =  -1300.60527244     A.U. after    1 cycles

 Alpha  occ. eigenvalues --  -19.28617 -19.26230 -19.23100 -19.21703 -14.58869
 Alpha  occ. eigenvalues --  -14.49668 -14.46238 -14.40823 -10.42900 -10.41107
 Alpha  occ. eigenvalues --  -10.40161 -10.39067 -10.34707 -10.34512 -10.32898
 Alpha  occ. eigenvalues --  -10.32415 -10.31317 -10.30196 -10.30131 -10.29746
 Alpha  occ. eigenvalues --  -10.29732 -10.29706 -10.29629 -10.29486 -10.29090
 Alpha  occ. eigenvalues --  -10.27620 -10.26251 -10.25786  -1.19609  -1.18810
 Alpha  occ. eigenvalues --   -1.13997  -1.13001  -1.10771  -1.07325  -1.02662
 Alpha  occ. eigenvalues --   -0.96952  -0.96825  -0.93119  -0.90767  -0.89089
 Alpha  occ. eigenvalues --   -0.86938  -0.85708  -0.85193  -0.83968  -0.79021
 Alpha  occ. eigenvalues --   -0.77876  -0.76567  -0.73374  -0.72706  -0.72480
 Alpha  occ. eigenvalues --   -0.71284  -0.71069  -0.70729  -0.69474  -0.68351
 Alpha  occ. eigenvalues --   -0.67217  -0.65639  -0.64228  -0.62713  -0.62374
 Alpha  occ. eigenvalues --   -0.61404  -0.59052  -0.58544  -0.58120  -0.57675
 Alpha  occ. eigenvalues --   -0.57374  -0.56444  -0.56065  -0.55767  -0.55557
 Alpha  occ. eigenvalues --   -0.55218  -0.54218  -0.53759  -0.52930  -0.52836
 Alpha  occ. eigenvalues --   -0.52520  -0.52268  -0.51207  -0.50881  -0.50455
 Alpha  occ. eigenvalues --   -0.49439  -0.49098  -0.48774  -0.48063  -0.47128
 Alpha  occ. eigenvalues --   -0.46846  -0.46576  -0.46076  -0.45478  -0.45337
 Alpha  occ. eigenvalues --   -0.44932  -0.44757  -0.44036  -0.42051  -0.41564
 Alpha  occ. eigenvalues --   -0.41002  -0.40744  -0.40392  -0.37716  -0.36898
 Alpha  occ. eigenvalues --   -0.36066  -0.35726  -0.35478  -0.35124  -0.33084
 Alpha virt. eigenvalues --   -0.13261  -0.11685  -0.10829  -0.09376  -0.08309
 Alpha virt. eigenvalues --   -0.07716  -0.04580  -0.02800  -0.01620  -0.01448
 Alpha virt. eigenvalues --   -0.00899  -0.00652  -0.00094   0.00432   0.00943

 Mulliken charges:
               1
     1  N   -0.748497
     2  H    0.410264
     3  H    0.405354
     4  H    0.426665
     5  C   -0.118946
     6  H    0.203324
     7  C    0.648705
     8  C   -0.394045
     9  H    0.237968
    10  H    0.209388
    11  O   -0.543901
    12  C    0.111147
    13  C   -0.180770
    14  H    0.137498
    15  C   -0.247105
    16  H    0.201089
    17  C   -0.125223
    18  H    0.162937
    19  C   -0.133572
    20  H    0.153681
    21  C   -0.124317
    22  H    0.164342
    23  N   -0.428645
    24  C   -0.078438
    25  H    0.188393
    26  C    0.657455
    27  C   -0.301537
    28  H    0.187962
    29  H    0.176840
    30  O   -0.547021
    31  C   -0.306843
    32  H    0.193865
    33  H    0.178430
    34  C   -0.136691
    35  H    0.180746
    36  H    0.163757
    37  N   -0.605770
    38  H    0.354141
    39  C   -0.050653
    40  H    0.206960
    41  C    0.587411
    42  C   -0.275298
    43  H    0.168939
    44  H    0.150477
    45  O   -0.462649
    46  C   -0.296326
    47  H    0.169473
    48  H    0.160415
    49  C   -0.244356
    50  H    0.144674
    51  H    0.118011
    52  C   -0.152349
    53  H    0.140077
    54  H    0.151971
    55  N   -0.730803
    56  H    0.313593
    57  H    0.297732
    58  O   -0.557944
    59  H    0.428016
 Sum of Mulliken charges =   1.00000

 Dipole moment (field-independent basis, Debye):
    X=            -13.4689    Y=             11.6761    Z=             10.8789  Tot=             20.8828
 Quadrupole moment (field-independent basis, Debye-Ang):
   XX=            -79.5211   YY=           -114.0647   ZZ=            -96.0208
   XY=            -48.3389   XZ=            -27.9820   YZ=             43.7561

 Normal termination of Gaussian 16 at Thu Jun  2 02:33:17 2022.
