 Gaussian 16, Revision C.01,
 Gaussian 16:  ES64L-G16RevC.01  3-Jul-2019

 ----------------------------------------------------------------------
 # B3LYP/6-31G* empiricaldispersion=gd3 guess=read geom=check nosymm in
 tegral(ultrafinegrid)
 ----------------------------------------------------------------------

 ------------------------------------------------------
 Candidate Structure: Conf:433 Charge calc in gas phase
 ------------------------------------------------------
 Structure from the checkpoint file:  "conf-433.chk"
 Charge =  1 Multiplicity = 1

                          Input orientation:
 ---------------------------------------------------------------------
 Center     Atomic      Atomic             Coordinates (Angstroms)
 Number     Number       Type             X           Y           Z
 ---------------------------------------------------------------------
      1          7           0       -0.794065   -0.703249   -3.610188
      2          1           0        0.144102   -0.675503   -3.166776
      3          1           0       -0.747091   -0.475665   -4.609606
      4          1           0       -1.188979   -1.659476   -3.502534
      5          6           0       -1.747695    0.186771   -2.856325
      6          1           0       -1.175226    1.048469   -2.520850
      7          6           0       -2.225309   -0.716372   -1.698891
      8          6           0       -2.924989    0.652021   -3.766273
      9          1           0       -3.769992    0.887601   -3.110010
     10          1           0       -2.626338    1.591834   -4.242195
     11          8           0       -2.329708   -1.927197   -1.919212
     12          6           0       -3.309674   -0.359399   -4.825166
     13          6           0       -2.822074   -0.206797   -6.133085
     14          1           0       -2.250271    0.682191   -6.396696
     15          6           0       -4.087671   -1.483789   -4.515563
     16          1           0       -4.465720   -1.619875   -3.507252
     17          6           0       -3.105059   -1.160723   -7.114274
     18          1           0       -2.733543   -1.022961   -8.125385
     19          6           0       -4.371856   -2.433885   -5.496468
     20          1           0       -4.982011   -3.296875   -5.247211
     21          6           0       -3.879123   -2.276938   -6.795003
     22          1           0       -4.106640   -3.017215   -7.556074
     23          7           0       -2.514910   -0.130351   -0.523317
     24          6           0       -2.104037    1.233895   -0.142914
     25          1           0       -2.567897    1.990583   -0.781333
     26          6           0       -0.584209    1.468966   -0.250541
     27          6           0       -2.609796    1.358050    1.313962
     28          1           0       -1.997252    2.055174    1.890692
     29          1           0       -3.633906    1.744266    1.304216
     30          8           0       -0.155491    2.604362   -0.370511
     31          6           0       -2.586510   -0.086351    1.840864
     32          1           0       -1.573652   -0.365769    2.154974
     33          1           0       -3.248134   -0.231793    2.697874
     34          6           0       -3.021503   -0.917392    0.626876
     35          1           0       -4.111583   -0.996619    0.553304
     36          1           0       -2.607506   -1.927667    0.593526
     37          7           0        0.217824    0.349591   -0.251397
     38          1           0       -0.190221   -0.522393    0.062563
     39          6           0        1.661154    0.483944   -0.091036
     40          1           0        1.886176    1.531383   -0.330543
     41          6           0        2.452794   -0.354715   -1.087217
     42          6           0        2.121412    0.184542    1.350436
     43          1           0        3.210223    0.285901    1.385775
     44          1           0        1.903917   -0.868753    1.580411
     45          8           0        3.592530   -0.700943   -0.930420
     46          6           0        1.458328    1.095690    2.386708
     47          1           0        1.690568    2.145258    2.160803
     48          1           0        0.367090    1.001603    2.305083
     49          6           0        1.870222    0.765751    3.824688
     50          1           0        2.948770    0.934483    3.947137
     51          1           0        1.699551   -0.304488    4.018089
     52          6           0        1.102758    1.590716    4.877313
     53          1           0        1.507020    1.362816    5.870279
     54          1           0        1.284031    2.659974    4.708351
     55          7           0       -0.347720    1.392702    4.936254
     56          1           0       -0.569193    0.407478    5.072666
     57          1           0       -0.794130    1.685505    4.070040
     58          8           0        1.779465   -0.680375   -2.254746
     59          1           0        2.446051   -1.168379   -2.779554
 ---------------------------------------------------------------------

 SCF Done:  E(RB3LYP) =  -1300.59587121     A.U. after    1 cycles

 Alpha  occ. eigenvalues --  -19.34153 -19.27241 -19.27067 -19.24915 -14.59291
 Alpha  occ. eigenvalues --  -14.51377 -14.49819 -14.39064 -10.45319 -10.44021
 Alpha  occ. eigenvalues --  -10.42102 -10.40733 -10.37256 -10.36451 -10.35085
 Alpha  occ. eigenvalues --  -10.34259 -10.32214 -10.32026 -10.31761 -10.30825
 Alpha  occ. eigenvalues --  -10.30299 -10.30159 -10.29961 -10.29824 -10.29766
 Alpha  occ. eigenvalues --  -10.28103 -10.28102 -10.26431  -1.23965  -1.19583
 Alpha  occ. eigenvalues --   -1.17077  -1.15101  -1.13869  -1.09353  -1.05918
 Alpha  occ. eigenvalues --   -0.97517  -0.95700  -0.94258  -0.92210  -0.91323
 Alpha  occ. eigenvalues --   -0.88579  -0.86505  -0.85707  -0.85648  -0.80412
 Alpha  occ. eigenvalues --   -0.79544  -0.78148  -0.74771  -0.73907  -0.73717
 Alpha  occ. eigenvalues --   -0.72892  -0.72138  -0.71684  -0.71403  -0.70026
 Alpha  occ. eigenvalues --   -0.69542  -0.67073  -0.66307  -0.64346  -0.63708
 Alpha  occ. eigenvalues --   -0.62568  -0.61945  -0.61306  -0.60290  -0.58994
 Alpha  occ. eigenvalues --   -0.58531  -0.58076  -0.57425  -0.57189  -0.56705
 Alpha  occ. eigenvalues --   -0.56587  -0.55752  -0.55004  -0.54651  -0.54539
 Alpha  occ. eigenvalues --   -0.54121  -0.53355  -0.53060  -0.52406  -0.52214
 Alpha  occ. eigenvalues --   -0.51590  -0.50895  -0.50492  -0.50117  -0.49042
 Alpha  occ. eigenvalues --   -0.48413  -0.47964  -0.47387  -0.47259  -0.46703
 Alpha  occ. eigenvalues --   -0.45562  -0.45509  -0.45205  -0.45067  -0.43640
 Alpha  occ. eigenvalues --   -0.42195  -0.41593  -0.41426  -0.41213  -0.40583
 Alpha  occ. eigenvalues --   -0.38719  -0.37227  -0.36445  -0.36052  -0.30810
 Alpha virt. eigenvalues --   -0.14046  -0.12457  -0.12257  -0.11885  -0.11518
 Alpha virt. eigenvalues --   -0.08935  -0.06522  -0.05277  -0.03696  -0.03283
 Alpha virt. eigenvalues --   -0.02757  -0.02070  -0.01160  -0.00495   0.00426

 Mulliken charges:
               1
     1  N   -0.779911
     2  H    0.443807
     3  H    0.402600
     4  H    0.424055
     5  C   -0.104366
     6  H    0.219989
     7  C    0.612622
     8  C   -0.387784
     9  H    0.202251
    10  H    0.193587
    11  O   -0.525919
    12  C    0.126148
    13  C   -0.225764
    14  H    0.144454
    15  C   -0.165123
    16  H    0.153824
    17  C   -0.122634
    18  H    0.164421
    19  C   -0.128267
    20  H    0.166138
    21  C   -0.124161
    22  H    0.167334
    23  N   -0.466855
    24  C   -0.061934
    25  H    0.196317
    26  C    0.589561
    27  C   -0.311084
    28  H    0.199989
    29  H    0.189382
    30  O   -0.492422
    31  C   -0.326092
    32  H    0.161606
    33  H    0.195582
    34  C   -0.140017
    35  H    0.193824
    36  H    0.198218
    37  N   -0.615134
    38  H    0.345734
    39  C   -0.085731
    40  H    0.237270
    41  C    0.621200
    42  C   -0.268805
    43  H    0.195546
    44  H    0.141842
    45  O   -0.412557
    46  C   -0.272962
    47  H    0.162276
    48  H    0.104739
    49  C   -0.266001
    50  H    0.150194
    51  H    0.127369
    52  C   -0.149957
    53  H    0.163731
    54  H    0.153067
    55  N   -0.706559
    56  H    0.293888
    57  H    0.292530
    58  O   -0.626834
    59  H    0.431781
 Sum of Mulliken charges =   1.00000

 Dipole moment (field-independent basis, Debye):
    X=             -6.4063    Y=             -2.9621    Z=            -11.6708  Tot=             13.6390
 Quadrupole moment (field-independent basis, Debye-Ang):
   XX=           -138.6023   YY=           -164.6464   ZZ=            -91.2514
   XY=              4.5138   XZ=             18.2868   YZ=              8.4629

 Normal termination of Gaussian 16 at Thu Jun  2 02:48:36 2022.
