 Gaussian 16, Revision C.01,
 Gaussian 16:  ES64L-G16RevC.01  3-Jul-2019

 ----------------------------------------------------------------------
 # B3LYP/6-31G* empiricaldispersion=gd3 guess=read geom=check nosymm in
 tegral(ultrafinegrid)
 ----------------------------------------------------------------------

 ------------------------------------------------------
 Candidate Structure: Conf:428 Charge calc in gas phase
 ------------------------------------------------------
 Structure from the checkpoint file:  "conf-428.chk"
 Charge =  1 Multiplicity = 1

                          Input orientation:
 ---------------------------------------------------------------------
 Center     Atomic      Atomic             Coordinates (Angstroms)
 Number     Number       Type             X           Y           Z
 ---------------------------------------------------------------------
      1          7           0       -4.273243    4.301784    2.201294
      2          1           0       -5.265313    4.119739    2.377535
      3          1           0       -4.037795    5.231729    2.558274
      4          1           0       -3.697516    3.537517    2.674187
      5          6           0       -3.871754    4.100742    0.749273
      6          1           0       -4.750002    4.251363    0.120246
      7          6           0       -3.350565    2.639746    0.768021
      8          6           0       -2.752869    5.111623    0.396359
      9          1           0       -3.084052    6.104918    0.732992
     10          1           0       -1.855260    4.844707    0.964671
     11          8           0       -2.998095    2.205974    1.880986
     12          6           0       -2.454919    5.160252   -1.086260
     13          6           0       -1.269855    4.619063   -1.596262
     14          1           0       -0.553488    4.157733   -0.926629
     15          6           0       -3.389886    5.725396   -1.964588
     16          1           0       -4.304099    6.170107   -1.573989
     17          6           0       -1.034149    4.630281   -2.973040
     18          1           0       -0.110819    4.209742   -3.360721
     19          6           0       -3.156493    5.730192   -3.339047
     20          1           0       -3.885986    6.172041   -4.011421
     21          6           0       -1.976770    5.177382   -3.846068
     22          1           0       -1.790194    5.184701   -4.916017
     23          7           0       -3.267945    1.935147   -0.356601
     24          6           0       -2.526331    0.664023   -0.336639
     25          1           0       -2.977885   -0.002833    0.405931
     26          6           0       -1.048786    0.917905    0.021791
     27          6           0       -2.678133    0.125210   -1.781470
     28          1           0       -1.795467    0.399476   -2.368701
     29          1           0       -2.765769   -0.963834   -1.801337
     30          8           0       -0.568330    2.043576    0.064230
     31          6           0       -3.929423    0.839814   -2.315703
     32          1           0       -3.964233    0.877902   -3.407347
     33          1           0       -4.839279    0.343688   -1.959882
     34          6           0       -3.810568    2.236891   -1.699033
     35          1           0       -4.764577    2.763912   -1.622819
     36          1           0       -3.108531    2.858224   -2.259150
     37          7           0       -0.326842   -0.209881    0.238680
     38          1           0       -0.745645   -1.104007    0.019010
     39          6           0        1.127338   -0.145787    0.292824
     40          1           0        1.396250    0.678252    0.958231
     41          6           0        1.764371    0.202612   -1.055698
     42          6           0        1.736365   -1.452296    0.837641
     43          1           0        1.370890   -1.587806    1.861438
     44          1           0        2.818968   -1.296067    0.899002
     45          8           0        2.909280    0.564318   -1.172141
     46          6           0        1.449513   -2.701361   -0.012181
     47          1           0        0.374068   -2.940022    0.008822
     48          1           0        1.696117   -2.493067   -1.061219
     49          6           0        2.235627   -3.938603    0.446539
     50          1           0        3.312065   -3.729357    0.421535
     51          1           0        2.061311   -4.750308   -0.273585
     52          6           0        1.865999   -4.438572    1.847249
     53          1           0        2.109683   -3.671138    2.592422
     54          1           0        0.768022   -4.585324    1.896586
     55          7           0        2.652593   -5.628066    2.174504
     56          1           0        2.373812   -6.405400    1.577255
     57          1           0        2.468803   -5.922778    3.131461
     58          8           0        0.931511    0.012703   -2.113566
     59          1           0        1.456945    0.225895   -2.908575
 ---------------------------------------------------------------------

 SCF Done:  E(RB3LYP) =  -1300.58849896     A.U. after    1 cycles

 Alpha  occ. eigenvalues --  -19.28531 -19.26680 -19.22204 -19.22165 -14.60232
 Alpha  occ. eigenvalues --  -14.50510 -14.46215 -14.36716 -10.43527 -10.41206
 Alpha  occ. eigenvalues --  -10.40327 -10.39297 -10.35114 -10.34496 -10.34048
 Alpha  occ. eigenvalues --  -10.32723 -10.30851 -10.30714 -10.30577 -10.29728
 Alpha  occ. eigenvalues --  -10.29186 -10.29005 -10.28867 -10.28754 -10.27474
 Alpha  occ. eigenvalues --  -10.26887 -10.26612 -10.24678  -1.19513  -1.19040
 Alpha  occ. eigenvalues --   -1.14524  -1.13679  -1.10049  -1.08012  -1.02920
 Alpha  occ. eigenvalues --   -0.96871  -0.93671  -0.93589  -0.91404  -0.89199
 Alpha  occ. eigenvalues --   -0.87025  -0.85598  -0.84622  -0.82981  -0.80106
 Alpha  occ. eigenvalues --   -0.77739  -0.76194  -0.74124  -0.73463  -0.72244
 Alpha  occ. eigenvalues --   -0.71783  -0.71267  -0.70775  -0.68460  -0.68340
 Alpha  occ. eigenvalues --   -0.66834  -0.64351  -0.64063  -0.64006  -0.63113
 Alpha  occ. eigenvalues --   -0.61288  -0.61224  -0.58638  -0.58339  -0.57031
 Alpha  occ. eigenvalues --   -0.56325  -0.56129  -0.55853  -0.55482  -0.55109
 Alpha  occ. eigenvalues --   -0.54144  -0.53597  -0.53137  -0.52829  -0.52001
 Alpha  occ. eigenvalues --   -0.51909  -0.51725  -0.51555  -0.51148  -0.50467
 Alpha  occ. eigenvalues --   -0.50184  -0.49429  -0.48688  -0.48488  -0.47385
 Alpha  occ. eigenvalues --   -0.46443  -0.46042  -0.45704  -0.45169  -0.44715
 Alpha  occ. eigenvalues --   -0.44495  -0.44065  -0.43717  -0.41457  -0.41280
 Alpha  occ. eigenvalues --   -0.40526  -0.39736  -0.39178  -0.38512  -0.38108
 Alpha  occ. eigenvalues --   -0.35992  -0.35252  -0.34918  -0.34180  -0.28926
 Alpha virt. eigenvalues --   -0.13055  -0.11522  -0.11222  -0.10345  -0.08145
 Alpha virt. eigenvalues --   -0.07320  -0.06508  -0.04239  -0.02903  -0.02073
 Alpha virt. eigenvalues --   -0.01641  -0.01379  -0.00695   0.00576   0.01925

 Mulliken charges:
               1
     1  N   -0.754792
     2  H    0.413952
     3  H    0.411838
     4  H    0.435568
     5  C   -0.112639
     6  H    0.205609
     7  C    0.657792
     8  C   -0.379474
     9  H    0.173491
    10  H    0.208866
    11  O   -0.552574
    12  C    0.141588
    13  C   -0.179543
    14  H    0.192454
    15  C   -0.186029
    16  H    0.125476
    17  C   -0.142060
    18  H    0.156758
    19  C   -0.131221
    20  H    0.157525
    21  C   -0.126520
    22  H    0.159657
    23  N   -0.435859
    24  C   -0.065235
    25  H    0.192988
    26  C    0.660851
    27  C   -0.322638
    28  H    0.192981
    29  H    0.174170
    30  O   -0.530615
    31  C   -0.295204
    32  H    0.182190
    33  H    0.167547
    34  C   -0.153978
    35  H    0.163268
    36  H    0.210002
    37  N   -0.609268
    38  H    0.344354
    39  C   -0.040086
    40  H    0.208345
    41  C    0.600875
    42  C   -0.297851
    43  H    0.164813
    44  H    0.186782
    45  O   -0.445509
    46  C   -0.289574
    47  H    0.116911
    48  H    0.153068
    49  C   -0.251389
    50  H    0.164052
    51  H    0.136927
    52  C   -0.133225
    53  H    0.143385
    54  H    0.104604
    55  N   -0.712981
    56  H    0.297922
    57  H    0.303800
    58  O   -0.581410
    59  H    0.419264
 Sum of Mulliken charges =   1.00000

 Dipole moment (field-independent basis, Debye):
    X=            -19.5772    Y=             12.7477    Z=              1.0457  Tot=             23.3851
 Quadrupole moment (field-independent basis, Debye-Ang):
   XX=            -91.7016   YY=            -72.8375   ZZ=           -125.9461
   XY=            -72.2051   XZ=            -15.4041   YZ=             12.2942

 Normal termination of Gaussian 16 at Thu Jun  2 02:48:42 2022.
