 Gaussian 16, Revision C.01,
 Gaussian 16:  ES64L-G16RevC.01  3-Jul-2019

 ----------------------------------------------------------------------
 # B3LYP/6-31G* empiricaldispersion=gd3 guess=read geom=check nosymm in
 tegral(ultrafinegrid)
 ----------------------------------------------------------------------

 ------------------------------------------------------
 Candidate Structure: Conf:245 Charge calc in gas phase
 ------------------------------------------------------
 Structure from the checkpoint file:  "conf-245.chk"
 Charge =  1 Multiplicity = 1

                          Input orientation:
 ---------------------------------------------------------------------
 Center     Atomic      Atomic             Coordinates (Angstroms)
 Number     Number       Type             X           Y           Z
 ---------------------------------------------------------------------
      1          7           0       -5.086269    3.440411    2.576142
      2          1           0       -6.092755    3.293824    2.679687
      3          1           0       -4.807446    4.349121    2.981244
      4          1           0       -4.556342    2.668478    3.071193
      5          6           0       -4.591563    3.297787    1.154439
      6          1           0       -5.456604    3.308013    0.490103
      7          6           0       -3.887803    1.923595    1.165165
      8          6           0       -3.595315    4.452384    0.792469
      9          1           0       -2.875293    4.050325    0.075328
     10          1           0       -4.159316    5.246872    0.294238
     11          8           0       -3.594088    1.439707    2.269521
     12          6           0       -2.875216    5.001754    2.005686
     13          6           0       -3.376506    6.143169    2.656164
     14          1           0       -4.214576    6.688109    2.223433
     15          6           0       -1.764524    4.336108    2.545728
     16          1           0       -1.366303    3.461112    2.041639
     17          6           0       -2.776164    6.614236    3.828197
     18          1           0       -3.162859    7.505609    4.313297
     19          6           0       -1.167143    4.813848    3.712436
     20          1           0       -0.300517    4.300356    4.118598
     21          6           0       -1.671747    5.946409    4.358249
     22          1           0       -1.199855    6.311794    5.265457
     23          7           0       -3.609230    1.341385   -0.003450
     24          6           0       -2.643250    0.237862   -0.041297
     25          1           0       -2.950340   -0.541986    0.660893
     26          6           0       -1.256861    0.793536    0.334928
     27          6           0       -2.643761   -0.229832   -1.528215
     28          1           0       -1.686601    0.022822   -1.994433
     29          1           0       -2.774877   -1.311781   -1.605857
     30          8           0       -1.034318    2.001644    0.354789
     31          6           0       -3.801970    0.545939   -2.187575
     32          1           0       -3.623337    0.747755   -3.246393
     33          1           0       -4.741485   -0.009214   -2.097975
     34          6           0       -3.886985    1.834076   -1.362765
     35          1           0       -4.865333    2.318185   -1.418372
     36          1           0       -3.112703    2.550343   -1.663563
     37          7           0       -0.302877   -0.140631    0.565370
     38          1           0       -0.523248   -1.105343    0.349013
     39          6           0        1.106457    0.232150    0.508902
     40          1           0        1.282569    1.036558    1.227798
     41          6           0        1.419436    0.771334   -0.892724
     42          6           0        1.975759   -0.991740    0.861469
     43          1           0        1.820004   -1.767059    0.097311
     44          1           0        1.590475   -1.394750    1.807142
     45          8           0        0.796904    0.489703   -1.893557
     46          6           0        3.473523   -0.700307    1.006350
     47          1           0        3.880416   -0.339106    0.054427
     48          1           0        3.609999    0.116687    1.727690
     49          6           0        4.262701   -1.932348    1.464192
     50          1           0        4.097934   -2.756105    0.754161
     51          1           0        3.875937   -2.277018    2.435248
     52          6           0        5.778017   -1.675393    1.586232
     53          1           0        6.276681   -2.618397    1.840866
     54          1           0        6.173125   -1.373603    0.606962
     55          7           0        6.202457   -0.671540    2.562185
     56          1           0        5.846006   -0.903081    3.488274
     57          1           0        5.832116    0.246356    2.325206
     58          8           0        2.495595    1.577936   -0.882045
     59          1           0        2.662691    1.853307   -1.804176
 ---------------------------------------------------------------------

 SCF Done:  E(RB3LYP) =  -1300.59816751     A.U. after    1 cycles

 Alpha  occ. eigenvalues --  -19.28882 -19.26468 -19.23271 -19.23014 -14.58856
 Alpha  occ. eigenvalues --  -14.50128 -14.46850 -14.36721 -10.43147 -10.41228
 Alpha  occ. eigenvalues --  -10.40578 -10.39819 -10.35060 -10.34879 -10.33517
 Alpha  occ. eigenvalues --  -10.33389 -10.31543 -10.30516 -10.30345 -10.30170
 Alpha  occ. eigenvalues --  -10.29892 -10.29523 -10.29468 -10.29292 -10.28521
 Alpha  occ. eigenvalues --  -10.26337 -10.26170 -10.24766  -1.19837  -1.19038
 Alpha  occ. eigenvalues --   -1.14937  -1.13134  -1.10849  -1.07998  -1.03509
 Alpha  occ. eigenvalues --   -0.97023  -0.93576  -0.93409  -0.90932  -0.89592
 Alpha  occ. eigenvalues --   -0.87291  -0.85892  -0.85181  -0.82988  -0.79580
 Alpha  occ. eigenvalues --   -0.77448  -0.76781  -0.73655  -0.73461  -0.72560
 Alpha  occ. eigenvalues --   -0.71427  -0.70859  -0.70194  -0.69312  -0.68615
 Alpha  occ. eigenvalues --   -0.66683  -0.64800  -0.64041  -0.63534  -0.62759
 Alpha  occ. eigenvalues --   -0.61341  -0.60728  -0.59455  -0.58544  -0.57729
 Alpha  occ. eigenvalues --   -0.56724  -0.56202  -0.56156  -0.55510  -0.55379
 Alpha  occ. eigenvalues --   -0.54736  -0.54153  -0.53465  -0.52856  -0.52390
 Alpha  occ. eigenvalues --   -0.51979  -0.51942  -0.51632  -0.50921  -0.50103
 Alpha  occ. eigenvalues --   -0.49761  -0.49491  -0.49051  -0.47854  -0.47346
 Alpha  occ. eigenvalues --   -0.46972  -0.46794  -0.45706  -0.45057  -0.45051
 Alpha  occ. eigenvalues --   -0.44906  -0.44463  -0.43156  -0.42238  -0.41021
 Alpha  occ. eigenvalues --   -0.40924  -0.40256  -0.39328  -0.38477  -0.37783
 Alpha  occ. eigenvalues --   -0.36592  -0.36167  -0.36035  -0.35675  -0.28668
 Alpha virt. eigenvalues --   -0.12787  -0.11973  -0.11309  -0.09477  -0.09309
 Alpha virt. eigenvalues --   -0.07901  -0.05101  -0.03180  -0.02011  -0.01790
 Alpha virt. eigenvalues --   -0.01178  -0.00801  -0.00065   0.00332   0.00881

 Mulliken charges:
               1
     1  N   -0.762908
     2  H    0.407648
     3  H    0.406368
     4  H    0.432967
     5  C   -0.101599
     6  H    0.204554
     7  C    0.640156
     8  C   -0.383354
     9  H    0.229612
    10  H    0.184114
    11  O   -0.543698
    12  C    0.084432
    13  C   -0.227370
    14  H    0.146511
    15  C   -0.177501
    16  H    0.203753
    17  C   -0.120047
    18  H    0.163767
    19  C   -0.130832
    20  H    0.160936
    21  C   -0.124031
    22  H    0.165147
    23  N   -0.424963
    24  C   -0.075060
    25  H    0.198024
    26  C    0.650244
    27  C   -0.340905
    28  H    0.219572
    29  H    0.176358
    30  O   -0.531704
    31  C   -0.285578
    32  H    0.185146
    33  H    0.170870
    34  C   -0.160266
    35  H    0.166828
    36  H    0.194336
    37  N   -0.598676
    38  H    0.343525
    39  C   -0.023194
    40  H    0.194938
    41  C    0.601283
    42  C   -0.307691
    43  H    0.153862
    44  H    0.164811
    45  O   -0.468670
    46  C   -0.261285
    47  H    0.153897
    48  H    0.131076
    49  C   -0.265114
    50  H    0.134791
    51  H    0.128466
    52  C   -0.146454
    53  H    0.154725
    54  H    0.145508
    55  N   -0.700961
    56  H    0.294768
    57  H    0.297048
    58  O   -0.552696
    59  H    0.424520
 Sum of Mulliken charges =   1.00000

 Dipole moment (field-independent basis, Debye):
    X=            -17.8745    Y=             12.0615    Z=              5.9628  Tot=             22.3725
 Quadrupole moment (field-independent basis, Debye-Ang):
   XX=            -69.7078   YY=            -97.4232   ZZ=           -131.0840
   XY=            -64.1668   XZ=            -29.4566   YZ=             32.0637

 Normal termination of Gaussian 16 at Thu Jun  2 02:48:41 2022.
