 Gaussian 16, Revision C.01,
 Gaussian 16:  ES64L-G16RevC.01  3-Jul-2019

 ----------------------------------------------------------------------
 # B3LYP/6-31G* empiricaldispersion=gd3 guess=read geom=check nosymm in
 tegral(ultrafinegrid)
 ----------------------------------------------------------------------

 ------------------------------------------------------
 Candidate Structure: Conf:879 Charge calc in gas phase
 ------------------------------------------------------
 Structure from the checkpoint file:  "conf-879.chk"
 Charge =  1 Multiplicity = 1

                          Input orientation:
 ---------------------------------------------------------------------
 Center     Atomic      Atomic             Coordinates (Angstroms)
 Number     Number       Type             X           Y           Z
 ---------------------------------------------------------------------
      1          7           0       -5.067519    4.138098   -0.137585
      2          1           0       -6.073966    3.992395   -0.021419
      3          1           0       -4.873256    5.151153   -0.175455
      4          1           0       -4.568234    3.664320    0.657880
      5          6           0       -4.499952    3.435089   -1.349893
      6          1           0       -5.281915    3.376567   -2.108207
      7          6           0       -4.035932    2.075663   -0.792777
      8          6           0       -3.273855    4.239888   -1.857122
      9          1           0       -2.476018    4.149821   -1.112495
     10          1           0       -2.895324    3.740503   -2.752405
     11          8           0       -3.784544    2.030387    0.420762
     12          6           0       -3.635803    5.683692   -2.120641
     13          6           0       -4.365859    6.041679   -3.263643
     14          1           0       -4.612637    5.284098   -4.004885
     15          6           0       -3.312968    6.677025   -1.181935
     16          1           0       -2.708281    6.421679   -0.312980
     17          6           0       -4.758375    7.363527   -3.467346
     18          1           0       -5.310994    7.630781   -4.363230
     19          6           0       -3.711927    8.002887   -1.383834
     20          1           0       -3.442892    8.763787   -0.657262
     21          6           0       -4.436078    8.345871   -2.525103
     22          1           0       -4.740840    9.375212   -2.687618
     23          7           0       -3.851669    1.058394   -1.638040
     24          6           0       -2.963487   -0.036162   -1.226005
     25          1           0       -3.301557   -0.468556   -0.280960
     26          6           0       -1.535938    0.545375   -1.083302
     27          6           0       -3.038782   -1.012008   -2.417046
     28          1           0       -2.148610   -1.640911   -2.490416
     29          1           0       -3.917282   -1.657512   -2.310949
     30          8           0       -1.247090    1.648721   -1.537618
     31          6           0       -3.185367   -0.064314   -3.618328
     32          1           0       -2.208834    0.358710   -3.871209
     33          1           0       -3.594476   -0.553232   -4.505367
     34          6           0       -4.110689    1.046381   -3.095579
     35          1           0       -5.166999    0.811478   -3.271920
     36          1           0       -3.885420    2.012356   -3.553044
     37          7           0       -0.642096   -0.276051   -0.482725
     38          1           0       -0.924943   -1.223566   -0.269742
     39          6           0        0.786727   -0.014653   -0.592154
     40          1           0        0.943486    1.046443   -0.382548
     41          6           0        1.327046   -0.229816   -2.009746
     42          6           0        1.600728   -0.854003    0.411025
     43          1           0        1.285231   -0.565995    1.419678
     44          1           0        2.648120   -0.553022    0.300292
     45          8           0        2.421146    0.135362   -2.361688
     46          6           0        1.485380   -2.375149    0.217905
     47          1           0        0.457870   -2.711720    0.429559
     48          1           0        1.679591   -2.624244   -0.833520
     49          6           0        2.454599   -3.172678    1.103252
     50          1           0        3.487319   -2.862143    0.902923
     51          1           0        2.390574   -4.233616    0.823882
     52          6           0        2.186650   -3.044954    2.606775
     53          1           0        2.325449   -2.003386    2.922292
     54          1           0        1.123840   -3.292499    2.802975
     55          7           0        3.147055   -3.857482    3.353910
     56          1           0        2.977931   -4.846902    3.177424
     57          1           0        3.023941   -3.720918    4.355217
     58          8           0        0.472778   -0.912953   -2.818915
     59          1           0        0.935374   -1.013058   -3.673161
 ---------------------------------------------------------------------

 SCF Done:  E(RB3LYP) =  -1300.59366308     A.U. after    2 cycles

 Alpha  occ. eigenvalues --  -19.28727 -19.26199 -19.22349 -19.22340 -14.59641
 Alpha  occ. eigenvalues --  -14.49951 -14.46374 -14.36698 -10.43059 -10.40605
 Alpha  occ. eigenvalues --  -10.40481 -10.39294 -10.34989 -10.34940 -10.33352
 Alpha  occ. eigenvalues --  -10.32869 -10.32159 -10.30973 -10.30721 -10.30525
 Alpha  occ. eigenvalues --  -10.30386 -10.30323 -10.30268 -10.30024 -10.27502
 Alpha  occ. eigenvalues --  -10.26874 -10.26650 -10.24676  -1.19183  -1.18929
 Alpha  occ. eigenvalues --   -1.14460  -1.13550  -1.10210  -1.07742  -1.03077
 Alpha  occ. eigenvalues --   -0.97686  -0.93732  -0.93637  -0.91364  -0.89134
 Alpha  occ. eigenvalues --   -0.87281  -0.86161  -0.85886  -0.83066  -0.79716
 Alpha  occ. eigenvalues --   -0.77187  -0.76213  -0.73902  -0.73283  -0.72486
 Alpha  occ. eigenvalues --   -0.71812  -0.71708  -0.70880  -0.70124  -0.68434
 Alpha  occ. eigenvalues --   -0.66945  -0.64811  -0.64119  -0.63174  -0.62931
 Alpha  occ. eigenvalues --   -0.62053  -0.60588  -0.58153  -0.57912  -0.57680
 Alpha  occ. eigenvalues --   -0.57176  -0.56553  -0.56240  -0.55612  -0.55039
 Alpha  occ. eigenvalues --   -0.54486  -0.53836  -0.53420  -0.53144  -0.52896
 Alpha  occ. eigenvalues --   -0.52077  -0.51671  -0.51314  -0.50792  -0.50425
 Alpha  occ. eigenvalues --   -0.50030  -0.49517  -0.48698  -0.48486  -0.47393
 Alpha  occ. eigenvalues --   -0.47059  -0.46470  -0.45935  -0.45769  -0.45532
 Alpha  occ. eigenvalues --   -0.45349  -0.44553  -0.43759  -0.41340  -0.40815
 Alpha  occ. eigenvalues --   -0.40550  -0.39873  -0.39197  -0.38508  -0.37996
 Alpha  occ. eigenvalues --   -0.36776  -0.36285  -0.35892  -0.34322  -0.28911
 Alpha virt. eigenvalues --   -0.13491  -0.12416  -0.11177  -0.09787  -0.08567
 Alpha virt. eigenvalues --   -0.07526  -0.04950  -0.03512  -0.02363  -0.01834
 Alpha virt. eigenvalues --   -0.01626  -0.01109  -0.00848   0.00180   0.01239

 Mulliken charges:
               1
     1  N   -0.747072
     2  H    0.412961
     3  H    0.404936
     4  H    0.425409
     5  C   -0.123934
     6  H    0.204512
     7  C    0.654663
     8  C   -0.383691
     9  H    0.213270
    10  H    0.218499
    11  O   -0.544143
    12  C    0.135485
    13  C   -0.180347
    14  H    0.140539
    15  C   -0.230563
    16  H    0.154066
    17  C   -0.122523
    18  H    0.166499
    19  C   -0.119635
    20  H    0.167688
    21  C   -0.124379
    22  H    0.169169
    23  N   -0.431439
    24  C   -0.100878
    25  H    0.196884
    26  C    0.666176
    27  C   -0.300092
    28  H    0.190850
    29  H    0.174288
    30  O   -0.540231
    31  C   -0.316187
    32  H    0.190289
    33  H    0.179259
    34  C   -0.133145
    35  H    0.178177
    36  H    0.166229
    37  N   -0.609552
    38  H    0.345409
    39  C   -0.045266
    40  H    0.209025
    41  C    0.603811
    42  C   -0.295320
    43  H    0.164754
    44  H    0.187409
    45  O   -0.442820
    46  C   -0.291113
    47  H    0.118232
    48  H    0.152720
    49  C   -0.251410
    50  H    0.164265
    51  H    0.137534
    52  C   -0.133285
    53  H    0.142892
    54  H    0.105472
    55  N   -0.713089
    56  H    0.298142
    57  H    0.303770
    58  O   -0.584682
    59  H    0.421514
 Sum of Mulliken charges =   1.00000

 Dipole moment (field-independent basis, Debye):
    X=            -21.8549    Y=             12.2763    Z=             -5.7956  Tot=             25.7281
 Quadrupole moment (field-independent basis, Debye-Ang):
   XX=            -68.6601   YY=            -55.2320   ZZ=           -130.8364
   XY=            -84.3646   XZ=             33.0693   YZ=            -17.6953

 Normal termination of Gaussian 16 at Thu Jun  2 02:55:32 2022.
