 Gaussian 16, Revision C.01,
 Gaussian 16:  ES64L-G16RevC.01  3-Jul-2019

 ----------------------------------------------------------------------
 # B3LYP/6-31G* empiricaldispersion=gd3 guess=read geom=check nosymm in
 tegral(ultrafinegrid)
 ----------------------------------------------------------------------

 ------------------------------------------------------
 Candidate Structure: Conf:962 Charge calc in gas phase
 ------------------------------------------------------
 Structure from the checkpoint file:  "conf-962.chk"
 Charge =  1 Multiplicity = 1

                          Input orientation:
 ---------------------------------------------------------------------
 Center     Atomic      Atomic             Coordinates (Angstroms)
 Number     Number       Type             X           Y           Z
 ---------------------------------------------------------------------
      1          7           0       -4.450121    0.547139    3.395292
      2          1           0       -4.576051   -0.306481    2.836963
      3          1           0       -5.240661    0.675824    4.030854
      4          1           0       -3.524723    0.314454    4.004070
      5          6           0       -4.329952    1.702313    2.438285
      6          1           0       -5.333782    1.888271    2.034247
      7          6           0       -3.464059    1.138083    1.284091
      8          6           0       -3.890691    2.967167    3.206451
      9          1           0       -4.045014    3.823387    2.545050
     10          1           0       -4.619823    3.108289    4.015011
     11          8           0       -3.182711   -0.069247    1.329149
     12          6           0       -2.488380    3.004366    3.785341
     13          6           0       -2.312790    3.120226    5.171775
     14          1           0       -3.182264    3.126204    5.826679
     15          6           0       -1.354217    3.030461    2.960310
     16          1           0       -1.438789    2.958967    1.883425
     17          6           0       -1.037963    3.275629    5.721996
     18          1           0       -0.923749    3.383586    6.796834
     19          6           0       -0.079139    3.177623    3.508090
     20          1           0        0.777362    3.202165    2.840967
     21          6           0        0.083663    3.308768    4.889546
     22          1           0        1.074533    3.439205    5.314449
     23          7           0       -3.077751    1.920576    0.264159
     24          6           0       -2.202881    1.318399   -0.771361
     25          1           0       -2.577274    0.321647   -1.014400
     26          6           0       -0.768472    1.254007   -0.208774
     27          6           0       -2.323321    2.297491   -1.949584
     28          1           0       -1.422862    2.302527   -2.567565
     29          1           0       -3.169418    1.997638   -2.577374
     30          8           0       -0.134429    2.286550    0.004258
     31          6           0       -2.586897    3.655833   -1.281717
     32          1           0       -1.640238    4.084233   -0.947533
     33          1           0       -3.086079    4.368034   -1.943250
     34          6           0       -3.453878    3.314965   -0.058251
     35          1           0       -4.526950    3.362093   -0.281810
     36          1           0       -3.236765    3.986395    0.773190
     37          7           0       -0.296412    0.012500    0.061940
     38          1           0       -0.884226   -0.783513   -0.145653
     39          6           0        1.092510   -0.233326    0.413587
     40          1           0        1.504324    0.741291    0.698726
     41          6           0        1.927454   -0.687660   -0.794365
     42          6           0        1.278284   -1.219427    1.582238
     43          1           0        2.344988   -1.458534    1.605510
     44          1           0        0.757924   -2.160652    1.353187
     45          8           0        3.062360   -1.091692   -0.703511
     46          6           0        0.844711   -0.692180    2.960948
     47          1           0        1.393471   -1.255201    3.727296
     48          1           0        1.163541    0.354407    3.066048
     49          6           0       -0.658497   -0.795347    3.257700
     50          1           0       -0.969312   -1.849697    3.201374
     51          1           0       -1.234665   -0.259791    2.502424
     52          6           0       -0.980552   -0.230424    4.637407
     53          1           0       -0.382956   -0.740362    5.405947
     54          1           0       -0.724320    0.827540    4.673319
     55          7           0       -2.431751   -0.334535    4.972728
     56          1           0       -2.577489    0.086719    5.892057
     57          1           0       -2.673741   -1.322626    5.079871
     58          8           0        1.267160   -0.565832   -1.967888
     59          1           0        1.893109   -0.843636   -2.664389
 ---------------------------------------------------------------------

 SCF Done:  E(RB3LYP) =  -1300.62622072     A.U. after    1 cycles

 Alpha  occ. eigenvalues --  -19.28421 -19.25281 -19.22352 -19.21725 -14.55713
 Alpha  occ. eigenvalues --  -14.49696 -14.47648 -14.46500 -10.42676 -10.40600
 Alpha  occ. eigenvalues --  -10.39714 -10.39036 -10.34325 -10.34298 -10.33438
 Alpha  occ. eigenvalues --  -10.33178 -10.31975 -10.31226 -10.30031 -10.29520
 Alpha  occ. eigenvalues --  -10.29434 -10.29233 -10.29197 -10.29099 -10.29060
 Alpha  occ. eigenvalues --  -10.28096 -10.27822 -10.27774  -1.19169  -1.17811
 Alpha  occ. eigenvalues --   -1.13700  -1.10721  -1.10158  -1.06813  -1.02920
 Alpha  occ. eigenvalues --   -1.02434  -0.96671  -0.92589  -0.90328  -0.89953
 Alpha  occ. eigenvalues --   -0.87238  -0.85650  -0.84908  -0.84748  -0.79815
 Alpha  occ. eigenvalues --   -0.79310  -0.76211  -0.72996  -0.72036  -0.71840
 Alpha  occ. eigenvalues --   -0.71020  -0.70098  -0.69228  -0.69009  -0.68533
 Alpha  occ. eigenvalues --   -0.68014  -0.66167  -0.63655  -0.63059  -0.62475
 Alpha  occ. eigenvalues --   -0.61738  -0.60766  -0.60076  -0.58424  -0.58289
 Alpha  occ. eigenvalues --   -0.57436  -0.57379  -0.56959  -0.56050  -0.55727
 Alpha  occ. eigenvalues --   -0.55221  -0.55065  -0.54018  -0.52815  -0.52396
 Alpha  occ. eigenvalues --   -0.52027  -0.51954  -0.51760  -0.51649  -0.51131
 Alpha  occ. eigenvalues --   -0.50250  -0.49678  -0.48865  -0.48733  -0.48166
 Alpha  occ. eigenvalues --   -0.47352  -0.46515  -0.46208  -0.45566  -0.44957
 Alpha  occ. eigenvalues --   -0.44707  -0.44574  -0.44312  -0.43245  -0.43005
 Alpha  occ. eigenvalues --   -0.42502  -0.40281  -0.40146  -0.39512  -0.38213
 Alpha  occ. eigenvalues --   -0.37841  -0.35636  -0.35368  -0.34865  -0.33935
 Alpha virt. eigenvalues --   -0.12476  -0.11541  -0.10810  -0.08680  -0.08229
 Alpha virt. eigenvalues --   -0.07695  -0.04642  -0.03233  -0.03123  -0.01597
 Alpha virt. eigenvalues --   -0.01169  -0.00712  -0.00056   0.00432   0.00641

 Mulliken charges:
               1
     1  N   -0.774370
     2  H    0.399228
     3  H    0.378995
     4  H    0.464064
     5  C   -0.108001
     6  H    0.205836
     7  C    0.639641
     8  C   -0.384362
     9  H    0.199368
    10  H    0.166882
    11  O   -0.546090
    12  C    0.162378
    13  C   -0.207194
    14  H    0.131909
    15  C   -0.201922
    16  H    0.178615
    17  C   -0.131222
    18  H    0.157480
    19  C   -0.143540
    20  H    0.170554
    21  C   -0.132995
    22  H    0.161962
    23  N   -0.443721
    24  C   -0.066171
    25  H    0.173484
    26  C    0.642063
    27  C   -0.301929
    28  H    0.191171
    29  H    0.166565
    30  O   -0.526824
    31  C   -0.304722
    32  H    0.205260
    33  H    0.174263
    34  C   -0.152902
    35  H    0.171458
    36  H    0.180281
    37  N   -0.581398
    38  H    0.347320
    39  C   -0.070342
    40  H    0.218693
    41  C    0.598433
    42  C   -0.284453
    43  H    0.196528
    44  H    0.142188
    45  O   -0.442593
    46  C   -0.273396
    47  H    0.152167
    48  H    0.146279
    49  C   -0.284625
    50  H    0.130110
    51  H    0.183152
    52  C   -0.157681
    53  H    0.155715
    54  H    0.191236
    55  N   -0.793835
    56  H    0.340445
    57  H    0.336089
    58  O   -0.571011
    59  H    0.425489
 Sum of Mulliken charges =   1.00000

 Dipole moment (field-independent basis, Debye):
    X=            -16.9553    Y=              4.4066    Z=             13.3285  Tot=             22.0125
 Quadrupole moment (field-independent basis, Debye-Ang):
   XX=            -91.9336   YY=           -145.3377   ZZ=            -75.9092
   XY=            -20.3804   XZ=            -47.6267   YZ=              7.8911

 Normal termination of Gaussian 16 at Thu Jun  2 02:55:25 2022.
