 Gaussian 16, Revision C.01,
 Gaussian 16:  ES64L-G16RevC.01  3-Jul-2019

 ----------------------------------------------------------------------
 # B3LYP/6-31G* empiricaldispersion=gd3 guess=read geom=check nosymm in
 tegral(ultrafinegrid)
 ----------------------------------------------------------------------

 ------------------------------------------------------
 Candidate Structure: Conf:217 Charge calc in gas phase
 ------------------------------------------------------
 Structure from the checkpoint file:  "conf-217.chk"
 Charge =  1 Multiplicity = 1

                          Input orientation:
 ---------------------------------------------------------------------
 Center     Atomic      Atomic             Coordinates (Angstroms)
 Number     Number       Type             X           Y           Z
 ---------------------------------------------------------------------
      1          7           0       -4.784873    3.096851    3.430743
      2          1           0       -5.752263    2.877993    3.682053
      3          1           0       -4.532735    4.015373    3.828630
      4          1           0       -4.164050    2.320205    3.781639
      5          6           0       -4.536842    3.069398    1.939306
      6          1           0       -5.484564    3.263410    1.434995
      7          6           0       -3.965883    1.656581    1.699543
      8          6           0       -3.478625    4.145307    1.573525
      9          1           0       -2.496997    3.796559    1.909727
     10          1           0       -3.425940    4.187666    0.482751
     11          8           0       -3.524858    1.053212    2.689062
     12          6           0       -3.832151    5.492120    2.162333
     13          6           0       -4.847196    6.278249    1.597038
     14          1           0       -5.337373    5.949761    0.682705
     15          6           0       -3.199812    5.938407    3.334201
     16          1           0       -2.382282    5.358481    3.759500
     17          6           0       -5.216667    7.486859    2.185146
     18          1           0       -5.993981    8.093534    1.729977
     19          6           0       -3.574781    7.148990    3.927278
     20          1           0       -3.067473    7.489586    4.824987
     21          6           0       -4.584016    7.922217    3.354228
     22          1           0       -4.871871    8.865293    3.808754
     23          7           0       -3.905404    1.184129    0.451406
     24          6           0       -2.953092    0.104261    0.158789
     25          1           0       -3.193482   -0.773212    0.765142
     26          6           0       -1.532413    0.619790    0.476858
     27          6           0       -3.110074   -0.142436   -1.369749
     28          1           0       -2.225674    0.232511   -1.894581
     29          1           0       -3.203889   -1.206505   -1.598809
     30          8           0       -1.304357    1.818066    0.617580
     31          6           0       -4.363615    0.658843   -1.772149
     32          1           0       -4.337131    0.992425   -2.812385
     33          1           0       -5.268792    0.060082   -1.627020
     34          6           0       -4.360074    1.832861   -0.788248
     35          1           0       -5.344277    2.290502   -0.656701
     36          1           0       -3.638596    2.600474   -1.094987
     37          7           0       -0.570002   -0.328718    0.513201
     38          1           0       -0.802862   -1.279685    0.256909
     39          6           0        0.840943    0.045469    0.523677
     40          1           0        1.020742    0.702527    1.378465
     41          6           0        1.233155    0.855628   -0.712638
     42          6           0        1.712849   -1.220364    0.637327
     43          1           0        1.563835   -1.827880   -0.265221
     44          1           0        1.332189   -1.805398    1.485317
     45          8           0        2.128838    1.663273   -0.735784
     46          6           0        3.204892   -0.929552    0.853474
     47          1           0        3.602470   -0.365209    0.001709
     48          1           0        3.308847   -0.272150    1.726201
     49          6           0        4.038712   -2.199719    1.075512
     50          1           0        3.630658   -2.786774    1.908393
     51          1           0        5.051801   -1.899739    1.377404
     52          6           0        4.147256   -3.106350   -0.155256
     53          1           0        3.150604   -3.462043   -0.447651
     54          1           0        4.527179   -2.507276   -1.005699
     55          7           0        4.952343   -4.287858    0.162980
     56          1           0        5.913663   -4.007055    0.353743
     57          1           0        4.995554   -4.910806   -0.641562
     58          8           0        0.511110    0.509880   -1.812106
     59          1           0        0.873700    1.037859   -2.548856
 ---------------------------------------------------------------------

 SCF Done:  E(RB3LYP) =  -1300.59223910     A.U. after    2 cycles

 Alpha  occ. eigenvalues --  -19.28289 -19.26336 -19.22324 -19.22147 -14.59311
 Alpha  occ. eigenvalues --  -14.50040 -14.46538 -14.36298 -10.43184 -10.40605
 Alpha  occ. eigenvalues --  -10.40251 -10.39318 -10.35049 -10.35031 -10.33272
 Alpha  occ. eigenvalues --  -10.32816 -10.32127 -10.30907 -10.30703 -10.30654
 Alpha  occ. eigenvalues --  -10.30612 -10.30352 -10.30305 -10.30004 -10.27760
 Alpha  occ. eigenvalues --  -10.26342 -10.25310 -10.24010  -1.19059  -1.18864
 Alpha  occ. eigenvalues --   -1.14424  -1.13381  -1.09918  -1.07953  -1.03063
 Alpha  occ. eigenvalues --   -0.97643  -0.93674  -0.93182  -0.91257  -0.89173
 Alpha  occ. eigenvalues --   -0.87260  -0.86125  -0.85855  -0.82549  -0.79734
 Alpha  occ. eigenvalues --   -0.77404  -0.75974  -0.73754  -0.73078  -0.72483
 Alpha  occ. eigenvalues --   -0.71756  -0.71529  -0.70261  -0.69757  -0.68851
 Alpha  occ. eigenvalues --   -0.66808  -0.64072  -0.63799  -0.63585  -0.62696
 Alpha  occ. eigenvalues --   -0.62188  -0.61012  -0.58404  -0.57901  -0.57371
 Alpha  occ. eigenvalues --   -0.56948  -0.56407  -0.55913  -0.55451  -0.55001
 Alpha  occ. eigenvalues --   -0.54365  -0.53474  -0.53377  -0.52918  -0.52703
 Alpha  occ. eigenvalues --   -0.52293  -0.51778  -0.51478  -0.50510  -0.50213
 Alpha  occ. eigenvalues --   -0.49993  -0.49519  -0.48618  -0.47765  -0.47396
 Alpha  occ. eigenvalues --   -0.47160  -0.46204  -0.45705  -0.45478  -0.45230
 Alpha  occ. eigenvalues --   -0.45164  -0.44158  -0.43642  -0.41052  -0.40871
 Alpha  occ. eigenvalues --   -0.40261  -0.39351  -0.38617  -0.38297  -0.37844
 Alpha  occ. eigenvalues --   -0.36751  -0.36259  -0.35875  -0.34401  -0.28547
 Alpha virt. eigenvalues --   -0.13328  -0.12376  -0.11142  -0.09855  -0.08401
 Alpha virt. eigenvalues --   -0.07150  -0.05377  -0.02822  -0.02003  -0.01928
 Alpha virt. eigenvalues --   -0.01616  -0.01050  -0.00890  -0.00206   0.00676

 Mulliken charges:
               1
     1  N   -0.751047
     2  H    0.412292
     3  H    0.405232
     4  H    0.427468
     5  C   -0.117774
     6  H    0.202476
     7  C    0.651817
     8  C   -0.385718
     9  H    0.224715
    10  H    0.205405
    11  O   -0.542037
    12  C    0.130529
    13  C   -0.180673
    14  H    0.140018
    15  C   -0.228955
    16  H    0.156948
    17  C   -0.122531
    18  H    0.166316
    19  C   -0.119613
    20  H    0.168104
    21  C   -0.124691
    22  H    0.169163
    23  N   -0.430733
    24  C   -0.070097
    25  H    0.196169
    26  C    0.652858
    27  C   -0.328309
    28  H    0.196220
    29  H    0.178745
    30  O   -0.537234
    31  C   -0.287392
    32  H    0.181449
    33  H    0.174163
    34  C   -0.156934
    35  H    0.166991
    36  H    0.189489
    37  N   -0.616338
    38  H    0.342002
    39  C   -0.003696
    40  H    0.199464
    41  C    0.600755
    42  C   -0.318796
    43  H    0.155306
    44  H    0.162411
    45  O   -0.445415
    46  C   -0.273418
    47  H    0.163060
    48  H    0.147397
    49  C   -0.255060
    50  H    0.149869
    51  H    0.140740
    52  C   -0.133271
    53  H    0.131906
    54  H    0.115729
    55  N   -0.715856
    56  H    0.298810
    57  H    0.301732
    58  O   -0.580619
    59  H    0.420459
 Sum of Mulliken charges =   1.00000

 Dipole moment (field-independent basis, Debye):
    X=            -19.8311    Y=             11.9084    Z=              6.3842  Tot=             23.9966
 Quadrupole moment (field-independent basis, Debye-Ang):
   XX=            -46.5687   YY=            -92.3337   ZZ=           -116.7897
   XY=            -80.9376   XZ=            -45.8666   YZ=             49.4775

 Normal termination of Gaussian 16 at Thu Jun  2 02:42:32 2022.
