 Gaussian 16, Revision C.01,
 Gaussian 16:  ES64L-G16RevC.01  3-Jul-2019

 ----------------------------------------------------------------------
 # B3LYP/6-31G* empiricaldispersion=gd3 guess=read geom=check nosymm in
 tegral(ultrafinegrid)
 ----------------------------------------------------------------------

 ------------------------------------------------------
 Candidate Structure: Conf:883 Charge calc in gas phase
 ------------------------------------------------------
 Structure from the checkpoint file:  "conf-883.chk"
 Charge =  1 Multiplicity = 1

                          Input orientation:
 ---------------------------------------------------------------------
 Center     Atomic      Atomic             Coordinates (Angstroms)
 Number     Number       Type             X           Y           Z
 ---------------------------------------------------------------------
      1          7           0       -3.896933    3.713223   -2.949112
      2          1           0       -4.862116    4.034491   -3.060944
      3          1           0       -3.397305    3.838834   -3.843346
      4          1           0       -3.455299    4.255241   -2.158044
      5          6           0       -3.800687    2.283577   -2.469082
      6          1           0       -4.732053    1.777714   -2.727666
      7          6           0       -3.565027    2.434643   -0.948017
      8          6           0       -2.585923    1.585246   -3.134738
      9          1           0       -1.667013    1.960080   -2.671207
     10          1           0       -2.652601    0.521924   -2.884024
     11          8           0       -3.219726    3.552787   -0.541174
     12          6           0       -2.561032    1.792419   -4.631976
     13          6           0       -3.417240    1.068501   -5.474349
     14          1           0       -4.059951    0.296188   -5.056729
     15          6           0       -1.727744    2.776158   -5.189603
     16          1           0       -1.031206    3.318185   -4.551326
     17          6           0       -3.434700    1.317516   -6.845975
     18          1           0       -4.091714    0.741425   -7.490735
     19          6           0       -1.750036    3.029546   -6.565343
     20          1           0       -1.091768    3.783767   -6.986035
     21          6           0       -2.604503    2.301411   -7.393021
     22          1           0       -2.619109    2.491408   -8.461848
     23          7           0       -3.633729    1.347230   -0.173697
     24          6           0       -3.247554    1.449690    1.256852
     25          1           0       -3.863922    2.209399    1.743695
     26          6           0       -1.786239    1.869458    1.479771
     27          6           0       -3.532366    0.031686    1.798047
     28          1           0       -2.628084   -0.584000    1.720359
     29          1           0       -3.827499    0.059196    2.848255
     30          8           0       -1.465604    2.448011    2.504504
     31          6           0       -4.625491   -0.512280    0.865661
     32          1           0       -4.696122   -1.602714    0.874857
     33          1           0       -5.603900   -0.103363    1.140550
     34          6           0       -4.207313    0.026017   -0.508980
     35          1           0       -5.044768    0.123414   -1.205444
     36          1           0       -3.444216   -0.615349   -0.968599
     37          7           0       -0.910683    1.496131    0.504550
     38          1           0       -1.222500    0.901308   -0.248307
     39          6           0        0.524819    1.676390    0.674782
     40          1           0        0.672632    2.640874    1.169786
     41          6           0        1.253688    1.743633   -0.657625
     42          6           0        1.168188    0.574803    1.551745
     43          1           0        0.737026    0.670722    2.554504
     44          1           0        2.237804    0.799116    1.631473
     45          8           0        2.421951    2.014490   -0.771183
     46          6           0        0.957369   -0.839525    1.003297
     47          1           0       -0.119388   -1.067174    0.973053
     48          1           0        1.314329   -0.914314   -0.031055
     49          6           0        1.665104   -1.909608    1.840719
     50          1           0        1.319229   -1.861907    2.882246
     51          1           0        2.743423   -1.693091    1.866923
     52          6           0        1.449584   -3.331637    1.311588
     53          1           0        1.928793   -4.044731    2.004725
     54          1           0        0.374973   -3.560718    1.321017
     55          7           0        1.914040   -3.447643   -0.078801
     56          1           0        1.731718   -4.388755   -0.424077
     57          1           0        2.928103   -3.337488   -0.102612
     58          8           0        0.476895    1.403586   -1.734736
     59          1           0        1.083221    1.392393   -2.500514
 ---------------------------------------------------------------------

 SCF Done:  E(RB3LYP) =  -1300.58883250     A.U. after    1 cycles

 Alpha  occ. eigenvalues --  -19.30205 -19.27427 -19.23487 -19.20857 -14.60254
 Alpha  occ. eigenvalues --  -14.51365 -14.45865 -14.37829 -10.44241 -10.41767
 Alpha  occ. eigenvalues --  -10.41736 -10.38533 -10.36411 -10.34812 -10.34771
 Alpha  occ. eigenvalues --  -10.33323 -10.32942 -10.32072 -10.31775 -10.31401
 Alpha  occ. eigenvalues --  -10.31310 -10.31299 -10.31011 -10.30781 -10.27363
 Alpha  occ. eigenvalues --  -10.26628 -10.25663 -10.25086  -1.20414  -1.20086
 Alpha  occ. eigenvalues --   -1.14590  -1.13090  -1.11413  -1.08885  -1.02410
 Alpha  occ. eigenvalues --   -0.98796  -0.94757  -0.94504  -0.92142  -0.89271
 Alpha  occ. eigenvalues --   -0.87745  -0.87013  -0.86695  -0.83272  -0.80777
 Alpha  occ. eigenvalues --   -0.78160  -0.77145  -0.74745  -0.74068  -0.72775
 Alpha  occ. eigenvalues --   -0.72464  -0.72261  -0.71569  -0.70946  -0.67719
 Alpha  occ. eigenvalues --   -0.67570  -0.64949  -0.64848  -0.64513  -0.63608
 Alpha  occ. eigenvalues --   -0.63058  -0.61635  -0.59384  -0.58369  -0.58140
 Alpha  occ. eigenvalues --   -0.57922  -0.57238  -0.56671  -0.56437  -0.55393
 Alpha  occ. eigenvalues --   -0.54874  -0.54721  -0.54386  -0.53495  -0.53366
 Alpha  occ. eigenvalues --   -0.53282  -0.52720  -0.51812  -0.51688  -0.51212
 Alpha  occ. eigenvalues --   -0.50157  -0.49542  -0.49266  -0.48746  -0.48481
 Alpha  occ. eigenvalues --   -0.47813  -0.47669  -0.46825  -0.46530  -0.45919
 Alpha  occ. eigenvalues --   -0.45250  -0.44314  -0.43129  -0.41987  -0.41932
 Alpha  occ. eigenvalues --   -0.40971  -0.40133  -0.40035  -0.39525  -0.37827
 Alpha  occ. eigenvalues --   -0.37538  -0.37317  -0.34992  -0.34015  -0.30097
 Alpha virt. eigenvalues --   -0.14353  -0.13459  -0.12264  -0.10804  -0.08780
 Alpha virt. eigenvalues --   -0.07290  -0.06737  -0.05181  -0.03497  -0.02912
 Alpha virt. eigenvalues --   -0.02662  -0.01827  -0.01382  -0.01039   0.00480

 Mulliken charges:
               1
     1  N   -0.752179
     2  H    0.415495
     3  H    0.407092
     4  H    0.430882
     5  C   -0.104745
     6  H    0.205663
     7  C    0.634750
     8  C   -0.410986
     9  H    0.219107
    10  H    0.197303
    11  O   -0.525819
    12  C    0.134569
    13  C   -0.180236
    14  H    0.142842
    15  C   -0.235081
    16  H    0.152787
    17  C   -0.122320
    18  H    0.170385
    19  C   -0.119027
    20  H    0.171571
    21  C   -0.123772
    22  H    0.173287
    23  N   -0.473249
    24  C   -0.033073
    25  H    0.206907
    26  C    0.633858
    27  C   -0.323310
    28  H    0.176708
    29  H    0.202841
    30  O   -0.498838
    31  C   -0.296957
    32  H    0.185232
    33  H    0.177826
    34  C   -0.154670
    35  H    0.170786
    36  H    0.177770
    37  N   -0.620224
    38  H    0.337696
    39  C   -0.051853
    40  H    0.218734
    41  C    0.595872
    42  C   -0.275291
    43  H    0.173087
    44  H    0.176003
    45  O   -0.435248
    46  C   -0.267513
    47  H    0.108373
    48  H    0.163824
    49  C   -0.263138
    50  H    0.141369
    51  H    0.142091
    52  C   -0.138120
    53  H    0.132035
    54  H    0.129760
    55  N   -0.723205
    56  H    0.303870
    57  H    0.300232
    58  O   -0.602633
    59  H    0.420880
 Sum of Mulliken charges =   1.00000

 Dipole moment (field-independent basis, Debye):
    X=            -17.5981    Y=              5.9417    Z=            -15.0015  Tot=             23.8756
 Quadrupole moment (field-independent basis, Debye-Ang):
   XX=            -81.7868   YY=           -124.5071   ZZ=            -91.9713
   XY=            -41.6389   XZ=             51.0890   YZ=            -53.2908

 Normal termination of Gaussian 16 at Thu Jun  2 02:55:22 2022.
