 Gaussian 16, Revision C.01,
 Gaussian 16:  ES64L-G16RevC.01  3-Jul-2019

 ----------------------------------------------------------------------
 # B3LYP/6-31G* empiricaldispersion=gd3 guess=read geom=check nosymm in
 tegral(ultrafinegrid)
 ----------------------------------------------------------------------

 ------------------------------------------------------
 Candidate Structure: Conf:364 Charge calc in gas phase
 ------------------------------------------------------
 Structure from the checkpoint file:  "conf-364.chk"
 Charge =  1 Multiplicity = 1

                          Input orientation:
 ---------------------------------------------------------------------
 Center     Atomic      Atomic             Coordinates (Angstroms)
 Number     Number       Type             X           Y           Z
 ---------------------------------------------------------------------
      1          7           0       -0.817260    0.870272    3.306983
      2          1           0       -0.200302    1.231050    2.550833
      3          1           0       -0.339607    0.188083    3.910191
      4          1           0       -1.151450    1.665090    3.871855
      5          6           0       -2.023495    0.263284    2.625690
      6          1           0       -1.626981   -0.424518    1.879244
      7          6           0       -2.756104    1.499183    2.062435
      8          6           0       -2.884193   -0.495628    3.649528
      9          1           0       -3.297930    0.231766    4.355688
     10          1           0       -3.730912   -0.923720    3.101138
     11          8           0       -3.098238    2.345408    2.887679
     12          6           0       -2.093301   -1.575327    4.356493
     13          6           0       -1.507017   -1.323866    5.607148
     14          1           0       -1.689964   -0.374273    6.107675
     15          6           0       -1.888534   -2.823700    3.751682
     16          1           0       -2.345345   -3.038079    2.787929
     17          6           0       -0.735885   -2.301445    6.242605
     18          1           0       -0.300699   -2.097919    7.216422
     19          6           0       -1.130753   -3.804618    4.390800
     20          1           0       -0.994462   -4.772851    3.919692
     21          6           0       -0.549376   -3.543964    5.635688
     22          1           0        0.032475   -4.312102    6.136859
     23          7           0       -2.971006    1.598128    0.734146
     24          6           0       -2.293745    0.813191   -0.301457
     25          1           0       -2.567285   -0.246900   -0.235864
     26          6           0       -0.750477    0.913213   -0.162569
     27          6           0       -2.826954    1.438380   -1.613370
     28          1           0       -2.144120    1.297054   -2.454981
     29          1           0       -3.782384    0.969128   -1.870127
     30          8           0       -0.210783    1.559655    0.748303
     31          6           0       -3.030855    2.912636   -1.234452
     32          1           0       -2.069875    3.439214   -1.234009
     33          1           0       -3.704213    3.435126   -1.917556
     34          6           0       -3.588011    2.833699    0.189547
     35          1           0       -4.677813    2.724333    0.203894
     36          1           0       -3.321613    3.681783    0.822520
     37          7           0       -0.053345    0.211699   -1.066900
     38          1           0       -0.535299   -0.278273   -1.809993
     39          6           0        1.410680    0.113618   -1.037058
     40          1           0        1.818513    1.131342   -1.024022
     41          6           0        1.945036   -0.546114   -2.306308
     42          6           0        1.938119   -0.632375    0.208105
     43          1           0        1.718037   -0.012328    1.082740
     44          1           0        3.027427   -0.680388    0.112516
     45          8           0        3.113758   -0.777106   -2.481939
     46          6           0        1.362265   -2.039211    0.394858
     47          1           0        0.262187   -1.998360    0.394094
     48          1           0        1.647383   -2.668812   -0.459552
     49          6           0        1.849223   -2.692098    1.692522
     50          1           0        1.516436   -2.087394    2.552724
     51          1           0        2.944998   -2.699351    1.726712
     52          6           0        1.350859   -4.127558    1.871350
     53          1           0        0.243278   -4.129442    1.827656
     54          1           0        1.696258   -4.734155    1.025022
     55          7           0        1.910274   -4.704400    3.092216
     56          1           0        1.683210   -5.693873    3.163010
     57          1           0        1.513887   -4.248177    3.911526
     58          8           0        0.970327   -0.849546   -3.200116
     59          1           0        1.402109   -1.263206   -3.972567
 ---------------------------------------------------------------------

 SCF Done:  E(RB3LYP) =  -1300.60775170     A.U. after    2 cycles

 Alpha  occ. eigenvalues --  -19.31597 -19.26484 -19.25092 -19.25034 -14.58968
 Alpha  occ. eigenvalues --  -14.50127 -14.49936 -14.39365 -10.43666 -10.43221
 Alpha  occ. eigenvalues --  -10.42471 -10.39951 -10.37601 -10.36168 -10.33439
 Alpha  occ. eigenvalues --  -10.33267 -10.32322 -10.32159 -10.31134 -10.30937
 Alpha  occ. eigenvalues --  -10.30618 -10.30608 -10.30591 -10.30353 -10.29773
 Alpha  occ. eigenvalues --  -10.29424 -10.28941 -10.27529  -1.22129  -1.18562
 Alpha  occ. eigenvalues --   -1.17273  -1.13445  -1.13193  -1.07752  -1.06562
 Alpha  occ. eigenvalues --   -0.97833  -0.96328  -0.93489  -0.92470  -0.91217
 Alpha  occ. eigenvalues --   -0.88322  -0.86532  -0.86158  -0.85577  -0.80272
 Alpha  occ. eigenvalues --   -0.79763  -0.77163  -0.74782  -0.73914  -0.73491
 Alpha  occ. eigenvalues --   -0.72867  -0.72019  -0.71597  -0.70307  -0.69755
 Alpha  occ. eigenvalues --   -0.68447  -0.67900  -0.66422  -0.64032  -0.62719
 Alpha  occ. eigenvalues --   -0.62538  -0.62219  -0.60522  -0.59574  -0.58749
 Alpha  occ. eigenvalues --   -0.58315  -0.57694  -0.57320  -0.56981  -0.56435
 Alpha  occ. eigenvalues --   -0.56090  -0.55583  -0.54965  -0.54534  -0.54160
 Alpha  occ. eigenvalues --   -0.53734  -0.53273  -0.53108  -0.52649  -0.51981
 Alpha  occ. eigenvalues --   -0.51570  -0.50480  -0.50262  -0.49498  -0.49376
 Alpha  occ. eigenvalues --   -0.47863  -0.47644  -0.47415  -0.47203  -0.46392
 Alpha  occ. eigenvalues --   -0.45772  -0.45652  -0.45176  -0.44168  -0.43429
 Alpha  occ. eigenvalues --   -0.43250  -0.42451  -0.40427  -0.39482  -0.39198
 Alpha  occ. eigenvalues --   -0.38614  -0.37517  -0.36924  -0.36486  -0.31484
 Alpha virt. eigenvalues --   -0.13341  -0.13004  -0.12363  -0.11759  -0.10286
 Alpha virt. eigenvalues --   -0.08734  -0.06278  -0.04409  -0.03331  -0.02289
 Alpha virt. eigenvalues --   -0.01908  -0.00974  -0.00640  -0.00229   0.00300

 Mulliken charges:
               1
     1  N   -0.750171
     2  H    0.450760
     3  H    0.403561
     4  H    0.413394
     5  C   -0.109106
     6  H    0.191374
     7  C    0.633754
     8  C   -0.371973
     9  H    0.205545
    10  H    0.196266
    11  O   -0.520027
    12  C    0.135619
    13  C   -0.226428
    14  H    0.148313
    15  C   -0.177995
    16  H    0.140112
    17  C   -0.120114
    18  H    0.168678
    19  C   -0.124059
    20  H    0.162903
    21  C   -0.137086
    22  H    0.168404
    23  N   -0.438427
    24  C   -0.097614
    25  H    0.183508
    26  C    0.644968
    27  C   -0.306493
    28  H    0.176065
    29  H    0.183581
    30  O   -0.575544
    31  C   -0.311770
    32  H    0.177242
    33  H    0.188309
    34  C   -0.126775
    35  H    0.186683
    36  H    0.205108
    37  N   -0.609982
    38  H    0.372089
    39  C   -0.042097
    40  H    0.217127
    41  C    0.598267
    42  C   -0.277164
    43  H    0.137012
    44  H    0.196143
    45  O   -0.429294
    46  C   -0.278123
    47  H    0.110912
    48  H    0.158888
    49  C   -0.244302
    50  H    0.099057
    51  H    0.173693
    52  C   -0.131753
    53  H    0.095761
    54  H    0.154410
    55  N   -0.720256
    56  H    0.307059
    57  H    0.296485
    58  O   -0.592055
    59  H    0.437558
 Sum of Mulliken charges =   1.00000

 Dipole moment (field-independent basis, Debye):
    X=             -6.8918    Y=             -1.8253    Z=              6.2281  Tot=              9.4666
 Quadrupole moment (field-independent basis, Debye-Ang):
   XX=           -158.4573   YY=           -141.3419   ZZ=            -99.4143
   XY=              0.7364   XZ=              0.5769   YZ=            -12.9002

 Normal termination of Gaussian 16 at Thu Jun  2 02:42:33 2022.
