 Gaussian 16, Revision C.01,
 Gaussian 16:  ES64L-G16RevC.01  3-Jul-2019

 -------------------------------------------------------------------
 # B3LYP/6-31G* guess=read geom=check nosymm integral(ultrafinegrid)
 -------------------------------------------------------------------

 ------------------------------------------------------
 Candidate Structure: Conf:451 Charge calc in gas phase
 ------------------------------------------------------
 Structure from the checkpoint file:  "conf-451.chk"
 Charge =  1 Multiplicity = 1

                          Input orientation:
 ---------------------------------------------------------------------
 Center     Atomic      Atomic             Coordinates (Angstroms)
 Number     Number       Type             X           Y           Z
 ---------------------------------------------------------------------
      1          7           0       -7.831898   -5.389782   -4.649250
      2          1           0       -8.444621   -5.362274   -3.833649
      3          1           0       -8.218191   -4.726954   -5.319539
      4          1           0       -7.864683   -6.324472   -5.048779
      5          6           0       -6.465109   -4.986128   -4.263512
      6          1           0       -6.100614   -5.656846   -3.475474
      7          6           0       -6.532183   -3.567946   -3.687580
      8          6           0       -5.479889   -5.066217   -5.439389
      9          1           0       -4.524965   -4.652258   -5.105724
     10          8           0       -7.584690   -2.949763   -3.637748
     11          6           0       -5.256097   -6.477155   -5.938712
     12          1           0       -4.924640   -7.137507   -5.133846
     13          1           0       -4.494748   -6.468677   -6.721543
     14          1           0       -6.170228   -6.891378   -6.369478
     15          8           0       -5.889455   -4.217254   -6.507877
     16          1           0       -6.643226   -4.628662   -6.935302
     17          7           0       -5.363271   -3.077088   -3.211643
     18          1           0       -4.488256   -3.548287   -3.376248
     19          6           0       -5.248179   -1.741626   -2.678587
     20          1           0       -6.057111   -1.134511   -3.089405
     21          6           0       -3.880596   -1.220305   -3.108738
     22          6           0       -5.360966   -1.728530   -1.143605
     23          1           0       -4.527415   -2.307458   -0.728866
     24          1           0       -5.241136   -0.699507   -0.795392
     25          8           0       -2.976101   -1.994070   -3.405725
     26          6           0       -6.667537   -2.297906   -0.660706
     27          6           0       -7.792610   -1.489117   -0.505364
     28          1           0       -7.717546   -0.425602   -0.714211
     29          6           0       -6.785558   -3.661033   -0.376889
     30          1           0       -5.918258   -4.300684   -0.513630
     31          6           0       -9.009766   -2.027678   -0.091419
     32          1           0       -9.870548   -1.378005    0.017969
     33          6           0       -7.999464   -4.203488    0.042525
     34          1           0       -8.063788   -5.262284    0.262706
     35          6           0       -9.116896   -3.388175    0.182823
     36          1           0      -10.061390   -3.808331    0.510011
     37          7           0       -3.728863    0.120934   -3.102050
     38          1           0       -4.460722    0.691955   -2.721663
     39          6           0       -2.451921    0.771117   -3.385772
     40          1           0       -1.982497    0.183570   -4.179343
     41          6           0       -1.567951    0.707389   -2.135424
     42          6           0       -2.691746    2.198936   -3.830536
     43          1           0       -1.742428    2.697983   -4.031519
     44          1           0       -3.209645    2.758255   -3.049555
     45          1           0       -3.295761    2.202140   -4.739839
     46          8           0       -1.365989    1.681985   -1.410115
     47          7           0       -1.043657   -0.506084   -1.858894
     48          1           0       -1.332403   -1.298253   -2.423594
     49          6           0       -0.449131   -0.772603   -0.559471
     50          1           0       -0.922140   -0.081310    0.147715
     51          6           0        1.048569   -0.470760   -0.632469
     52          6           0       -0.724651   -2.213438   -0.141608
     53          1           0       -0.164648   -2.897538   -0.781997
     54          1           0       -1.792707   -2.406041   -0.294291
     55          8           0        1.902036   -1.346860   -0.633163
     56          6           0       -0.391255   -2.516177    1.320588
     57          1           0        0.676398   -2.393376    1.506654
     58          1           0       -0.964992   -1.879326    1.993124
     59          6           0       -0.798685   -3.995048    1.497176
     60          8           0       -1.947906   -4.192611    1.933291
     61          8           0        0.056563   -4.827129    1.156135
     62          7           0        1.366592    0.839623   -0.719904
     63          1           0        0.647017    1.549068   -0.802120
     64          6           0        2.750764    1.237553   -0.811903
     65          1           0        3.330224    0.553893   -0.190317
     66          6           0        2.876800    2.670517   -0.284574
     67          6           0        3.268851    1.147473   -2.247877
     68          1           0        4.313772    1.459986   -2.296343
     69          1           0        2.678419    1.796564   -2.898727
     70          1           0        3.191352    0.122080   -2.604998
     71          8           0        1.981776    3.487609   -0.426744
     72          7           0        4.065892    2.951502    0.309699
     73          1           0        4.848012    2.330353    0.169449
     74          6           0        4.463821    4.304850    0.627060
     75          1           0        3.784614    4.990501    0.115928
     76          6           0        5.889144    4.479706    0.088640
     77          6           0        4.432020    4.591771    2.128748
     78          1           0        5.096838    3.882664    2.627856
     79          1           0        4.848040    5.587722    2.299594
     80          8           0        6.597403    3.525144   -0.183730
     81          6           0        3.052653    4.524274    2.788690
     82          1           0        2.623960    3.541519    2.591242
     83          6           0        3.208053    4.675162    4.299541
     84          1           0        3.648455    5.645990    4.541122
     85          1           0        3.856171    3.895182    4.705031
     86          1           0        2.241117    4.605218    4.803092
     87          6           0        2.104560    5.587169    2.239599
     88          1           0        2.513351    6.585781    2.420611
     89          1           0        1.134646    5.524775    2.739619
     90          1           0        1.937236    5.469985    1.168849
     91          7           0        6.301960    5.766269   -0.025809
     92          1           0        5.695101    6.515864    0.261577
     93          6           0        7.673485    6.089043   -0.363643
     94          1           0        8.283357    5.203076   -0.168674
     95          6           0        8.209334    7.202920    0.513280
     96          6           0        7.860707    6.480612   -1.836741
     97          1           0        8.910347    6.758980   -1.961366
     98          1           0        7.262304    7.358752   -2.072046
     99          8           0        9.367720    7.340965    0.804995
    100          6           0        7.522566    5.339043   -2.782476
    101          1           0        6.473357    5.065776   -2.687879
    102          1           0        8.098227    4.453317   -2.496733
    103          6           0        7.819936    5.686456   -4.227029
    104          1           0        7.674562    4.812883   -4.873739
    105          1           0        8.863243    5.996319   -4.317851
    106          7           0        6.945938    6.803340   -4.649987
    107          1           0        5.998224    6.735009   -4.305057
    108          7           0        8.040135    7.032487   -6.706827
    109          1           0        8.248902    7.651905   -7.473539
    110          1           0        8.822426    6.527227   -6.325227
    111          7           0        6.035406    8.174202   -6.277712
    112          1           0        5.505782    8.638608   -5.552481
    113          1           0        6.211787    8.740570   -7.093291
    114          6           0        7.027524    7.343480   -5.876342
    115          8           0        7.243938    8.073742    0.895284
    116          1           0        7.679277    8.755580    1.422749
 ---------------------------------------------------------------------

 SCF Done:  E(RB3LYP) =  -2782.12532079     A.U. after    3 cycles

 Alpha  occ. eigenvalues --  -19.28550 -19.28350 -19.23682 -19.22277 -19.20512
 Alpha  occ. eigenvalues --  -19.19553 -19.15953 -19.15583 -19.11832 -19.01012
 Alpha  occ. eigenvalues --  -19.00939 -14.62968 -14.52159 -14.51667 -14.51612
 Alpha  occ. eigenvalues --  -14.46577 -14.44441 -14.44358 -14.40228 -14.38826
 Alpha  occ. eigenvalues --  -14.36381 -10.46615 -10.41338 -10.40467 -10.40067
 Alpha  occ. eigenvalues --  -10.38725 -10.37275 -10.36232 -10.35746 -10.32722
 Alpha  occ. eigenvalues --  -10.32526 -10.32413 -10.32177 -10.31104 -10.29767
 Alpha  occ. eigenvalues --  -10.29574 -10.29139 -10.28850 -10.28789 -10.26350
 Alpha  occ. eigenvalues --  -10.25844 -10.25505 -10.24776 -10.24640 -10.24610
 Alpha  occ. eigenvalues --  -10.24599 -10.24553 -10.24136 -10.23591 -10.23370
 Alpha  occ. eigenvalues --  -10.22513 -10.21575 -10.20721 -10.20445 -10.18882
 Alpha  occ. eigenvalues --  -10.16982 -10.12664  -1.19463  -1.19438  -1.16540
 Alpha  occ. eigenvalues --   -1.16133  -1.15210  -1.12874  -1.12147  -1.10330
 Alpha  occ. eigenvalues --   -1.08283  -1.07641  -1.06039  -1.05267  -1.04265
 Alpha  occ. eigenvalues --   -1.03613  -1.01542  -1.01007  -0.97611  -0.95573
 Alpha  occ. eigenvalues --   -0.94791  -0.93777  -0.93616  -0.91768  -0.91679
 Alpha  occ. eigenvalues --   -0.87808  -0.86963  -0.85903  -0.85777  -0.85457
 Alpha  occ. eigenvalues --   -0.83833  -0.81439  -0.80465  -0.80204  -0.80153
 Alpha  occ. eigenvalues --   -0.78926  -0.78060  -0.77537  -0.76880  -0.76672
 Alpha  occ. eigenvalues --   -0.75412  -0.74149  -0.73914  -0.72360  -0.72224
 Alpha  occ. eigenvalues --   -0.71966  -0.71229  -0.70568  -0.69995  -0.69505
 Alpha  occ. eigenvalues --   -0.68983  -0.68264  -0.67667  -0.66628  -0.66446
 Alpha  occ. eigenvalues --   -0.65870  -0.65134  -0.65073  -0.64460  -0.63861
 Alpha  occ. eigenvalues --   -0.63413  -0.62672  -0.61752  -0.60924  -0.60781
 Alpha  occ. eigenvalues --   -0.60312  -0.60238  -0.59677  -0.59388  -0.58672
 Alpha  occ. eigenvalues --   -0.58044  -0.57946  -0.57300  -0.57176  -0.56860
 Alpha  occ. eigenvalues --   -0.56475  -0.56287  -0.55792  -0.55285  -0.54694
 Alpha  occ. eigenvalues --   -0.53825  -0.53667  -0.53472  -0.53208  -0.53055
 Alpha  occ. eigenvalues --   -0.51849  -0.51800  -0.51786  -0.51273  -0.51009
 Alpha  occ. eigenvalues --   -0.50927  -0.50510  -0.50276  -0.49864  -0.49293
 Alpha  occ. eigenvalues --   -0.49245  -0.48828  -0.48663  -0.48494  -0.48214
 Alpha  occ. eigenvalues --   -0.47725  -0.47688  -0.46971  -0.46730  -0.46441
 Alpha  occ. eigenvalues --   -0.46378  -0.46020  -0.45947  -0.45640  -0.45287
 Alpha  occ. eigenvalues --   -0.44977  -0.44938  -0.44172  -0.43833  -0.43817
 Alpha  occ. eigenvalues --   -0.43632  -0.43412  -0.43229  -0.42833  -0.42554
 Alpha  occ. eigenvalues --   -0.42128  -0.42028  -0.41810  -0.41607  -0.41591
 Alpha  occ. eigenvalues --   -0.41116  -0.40979  -0.40328  -0.40195  -0.40163
 Alpha  occ. eigenvalues --   -0.39832  -0.39778  -0.38841  -0.38146  -0.37796
 Alpha  occ. eigenvalues --   -0.37382  -0.37030  -0.36959  -0.36514  -0.36425
 Alpha  occ. eigenvalues --   -0.36378  -0.35072  -0.34853  -0.34175  -0.33528
 Alpha  occ. eigenvalues --   -0.33331  -0.33127  -0.33053  -0.30761  -0.30426
 Alpha  occ. eigenvalues --   -0.30359  -0.30228  -0.30071  -0.29575  -0.29196
 Alpha  occ. eigenvalues --   -0.28273  -0.26261  -0.25023  -0.16739  -0.15257
 Alpha  occ. eigenvalues --   -0.14381
 Alpha virt. eigenvalues --   -0.13717  -0.13081  -0.09862  -0.08638  -0.07653
 Alpha virt. eigenvalues --   -0.07517  -0.07147  -0.06255  -0.05903  -0.05068
 Alpha virt. eigenvalues --   -0.05049  -0.04778  -0.03816  -0.03315  -0.03225

 Mulliken charges:
               1
     1  N   -0.724192
     2  H    0.443561
     3  H    0.417284
     4  H    0.419885
     5  C   -0.157129
     6  H    0.237373
     7  C    0.666035
     8  C    0.086348
     9  H    0.215223
    10  O   -0.517845
    11  C   -0.481206
    12  H    0.189259
    13  H    0.223222
    14  H    0.123497
    15  O   -0.584328
    16  H    0.388196
    17  N   -0.608912
    18  H    0.365225
    19  C   -0.065539
    20  H    0.190802
    21  C    0.643438
    22  C   -0.384314
    23  H    0.216989
    24  H    0.165707
    25  O   -0.546441
    26  C    0.194653
    27  C   -0.167573
    28  H    0.122634
    29  C   -0.194830
    30  H    0.139205
    31  C   -0.125602
    32  H    0.140432
    33  C   -0.146234
    34  H    0.133493
    35  C   -0.130744
    36  H    0.138176
    37  N   -0.594751
    38  H    0.340643
    39  C   -0.063563
    40  H    0.182583
    41  C    0.612895
    42  C   -0.458939
    43  H    0.177490
    44  H    0.170931
    45  H    0.148654
    46  O   -0.538256
    47  N   -0.612376
    48  H    0.370299
    49  C   -0.059283
    50  H    0.168061
    51  C    0.633874
    52  C   -0.290059
    53  H    0.167316
    54  H    0.112699
    55  O   -0.524243
    56  C   -0.317810
    57  H    0.141448
    58  H    0.101818
    59  C    0.527445
    60  O   -0.591684
    61  O   -0.565453
    62  N   -0.628408
    63  H    0.375138
    64  C   -0.030031
    65  H    0.181601
    66  C    0.598507
    67  C   -0.448375
    68  H    0.127130
    69  H    0.141501
    70  H    0.191770
    71  O   -0.525240
    72  N   -0.599236
    73  H    0.354687
    74  C   -0.078232
    75  H    0.168851
    76  C    0.619345
    77  C   -0.247978
    78  H    0.151225
    79  H    0.118794
    80  O   -0.529374
    81  C   -0.072429
    82  H    0.156384
    83  C   -0.443588
    84  H    0.133129
    85  H    0.148245
    86  H    0.154256
    87  C   -0.464406
    88  H    0.116743
    89  H    0.153569
    90  H    0.175915
    91  N   -0.620785
    92  H    0.354126
    93  C   -0.046349
    94  H    0.218660
    95  C    0.583618
    96  C   -0.268716
    97  H    0.169495
    98  H    0.143880
    99  O   -0.438845
   100  C   -0.308938
   101  H    0.169347
   102  H    0.201587
   103  C   -0.168217
   104  H    0.193591
   105  H    0.174750
   106  N   -0.586284
   107  H    0.359956
   108  N   -0.732120
   109  H    0.371019
   110  H    0.384336
   111  N   -0.734947
   112  H    0.372278
   113  H    0.366765
   114  C    0.729001
   115  O   -0.580096
   116  H    0.427909
 Sum of Mulliken charges =   1.00000

 Dipole moment (field-independent basis, Debye):
    X=             -2.4215    Y=             23.3444    Z=            -45.7464  Tot=             51.4155
 Quadrupole moment (field-independent basis, Debye-Ang):
   XX=             97.0885   YY=            -20.1834   ZZ=           -108.9644
   XY=            382.4827   XZ=             -3.4662   YZ=            -18.9110

 Normal termination of Gaussian 16 at Thu Jun 30 14:46:49 2022.
