 Gaussian 16, Revision C.01,
 Gaussian 16:  ES64L-G16RevC.01  3-Jul-2019

 -------------------------------------------------------------------
 # B3LYP/6-31G* guess=read geom=check nosymm integral(ultrafinegrid)
 -------------------------------------------------------------------

 ------------------------------------------------------
 Candidate Structure: Conf:883 Charge calc in gas phase
 ------------------------------------------------------
 Structure from the checkpoint file:  "conf-883.chk"
 Charge =  1 Multiplicity = 1

                          Input orientation:
 ---------------------------------------------------------------------
 Center     Atomic      Atomic             Coordinates (Angstroms)
 Number     Number       Type             X           Y           Z
 ---------------------------------------------------------------------
      1          7           0       -8.231548   -0.121152   -7.533651
      2          1           0       -8.369871    0.470690   -6.665722
      3          1           0       -7.969161    0.506370   -8.315004
      4          1           0       -9.061210   -0.669409   -7.766710
      5          6           0       -7.005544   -0.924992   -7.195481
      6          1           0       -7.308713   -1.945688   -6.947199
      7          6           0       -6.468084   -0.216083   -5.915668
      8          6           0       -6.056997   -0.900274   -8.428460
      9          1           0       -5.042878   -1.140010   -8.090849
     10          8           0       -7.172782    0.674636   -5.415265
     11          6           0       -6.478369   -1.881521   -9.516314
     12          1           0       -6.469677   -2.909798   -9.140481
     13          1           0       -5.784903   -1.812036  -10.357753
     14          1           0       -7.481942   -1.655336   -9.895608
     15          8           0       -6.105180    0.417370   -8.982897
     16          1           0       -5.409493    0.971374   -8.593072
     17          7           0       -5.294607   -0.632903   -5.465506
     18          1           0       -4.737402   -1.365249   -5.918159
     19          6           0       -4.597233   -0.122840   -4.282215
     20          1           0       -4.665166    0.969056   -4.273869
     21          6           0       -3.132695   -0.574593   -4.515391
     22          6           0       -5.231823   -0.691421   -2.979590
     23          1           0       -6.289701   -0.402103   -3.000418
     24          1           0       -5.191212   -1.785352   -3.034167
     25          8           0       -2.908635   -1.490996   -5.321128
     26          6           0       -4.577376   -0.210997   -1.700243
     27          6           0       -3.893175   -1.109683   -0.872754
     28          1           0       -3.852075   -2.162722   -1.143356
     29          6           0       -4.634289    1.138950   -1.320817
     30          1           0       -5.187460    1.850845   -1.931725
     31          6           0       -3.264893   -0.669334    0.293454
     32          1           0       -2.742588   -1.382918    0.924663
     33          6           0       -3.987595    1.581939   -0.166094
     34          1           0       -4.023387    2.634454    0.100144
     35          6           0       -3.290681    0.681762    0.643322
     36          1           0       -2.750256    1.028416    1.520549
     37          7           0       -2.202315    0.085479   -3.824926
     38          1           0       -2.451390    0.767653   -3.105114
     39          6           0       -0.787858   -0.279242   -3.774737
     40          1           0       -0.707494   -1.371684   -3.747412
     41          6           0       -0.290831    0.323075   -2.440169
     42          6           0       -0.004204    0.258700   -4.982071
     43          1           0        1.051093   -0.025527   -4.914866
     44          1           0       -0.065745    1.350971   -5.022454
     45          1           0       -0.415242   -0.158075   -5.905924
     46          8           0       -0.957369    1.200790   -1.884913
     47          7           0        0.857106   -0.166394   -1.944128
     48          1           0        1.430178   -0.845602   -2.435167
     49          6           0        1.360887    0.235165   -0.634067
     50          1           0        1.132966    1.291853   -0.484604
     51          6           0        2.882397    0.025402   -0.664152
     52          6           0        0.646188   -0.593548    0.465725
     53          1           0        0.883311   -1.653701    0.305265
     54          1           0       -0.426377   -0.469291    0.285811
     55          8           0        3.398997   -0.756829   -1.470058
     56          6           0        0.949147   -0.214950    1.927815
     57          1           0        0.299238   -0.808116    2.578399
     58          1           0        1.988179   -0.464286    2.171845
     59          6           0        0.714602    1.272566    2.233377
     60          8           0        1.650730    2.065295    1.799945
     61          8           0       -0.298211    1.645418    2.837799
     62          7           0        3.564790    0.747827    0.248212
     63          1           0        3.025917    1.349472    0.896192
     64          6           0        5.008922    0.649515    0.376309
     65          1           0        5.295853   -0.378474    0.128497
     66          6           0        5.379801    0.973211    1.825591
     67          6           0        5.744244    1.610302   -0.578626
     68          1           0        6.830706    1.530122   -0.460152
     69          1           0        5.448045    2.644155   -0.375737
     70          1           0        5.481986    1.360126   -1.610067
     71          8           0        4.853545    1.902670    2.446756
     72          7           0        6.338573    0.196310    2.383727
     73          1           0        6.809710   -0.488877    1.809549
     74          6           0        6.865715    0.462867    3.717905
     75          1           0        6.033763    0.382898    4.427179
     76          6           0        7.448833    1.891099    3.774203
     77          6           0        7.968405   -0.547779    4.077568
     78          1           0        8.792809   -0.406813    3.366239
     79          1           0        8.363204   -0.265986    5.062881
     80          8           0        8.255648    2.288917    2.943874
     81          6           0        7.547945   -2.032257    4.115809
     82          1           0        7.153451   -2.312864    3.127073
     83          6           0        8.781889   -2.907785    4.383520
     84          1           0        9.214943   -2.684064    5.366692
     85          1           0        9.561933   -2.744561    3.630830
     86          1           0        8.518531   -3.971175    4.370430
     87          6           0        6.447575   -2.306352    5.151377
     88          1           0        6.776073   -2.016006    6.157873
     89          1           0        6.200648   -3.373388    5.179477
     90          1           0        5.522089   -1.763890    4.927800
     91          7           0        7.024306    2.634640    4.836220
     92          1           0        6.263617    2.275618    5.396639
     93          6           0        7.385797    4.029331    5.009388
     94          1           0        8.273112    4.184510    4.382568
     95          6           0        7.806454    4.359396    6.442538
     96          6           0        6.262573    4.983756    4.545047
     97          1           0        6.495402    5.990541    4.907175
     98          1           0        5.329332    4.670243    5.034481
     99          8           0        7.909154    5.488251    6.867585
    100          6           0        6.077966    4.981651    3.021796
    101          1           0        6.178893    3.967932    2.626840
    102          1           0        6.869655    5.578537    2.552231
    103          6           0        4.728775    5.540296    2.561374
    104          1           0        4.734016    5.658459    1.469496
    105          1           0        4.551010    6.533836    2.981333
    106          7           0        3.615239    4.655206    2.935144
    107          1           0        3.696312    3.685471    2.622323
    108          7           0        2.237042    6.287241    3.885875
    109          1           0        1.311090    6.551429    4.190113
    110          1           0        2.994427    6.657818    4.441953
    111          7           0        1.346200    4.277022    3.099891
    112          1           0        1.424304    3.366108    2.502373
    113          1           0        0.474519    4.425735    3.590432
    114          6           0        2.386372    5.055325    3.313272
    115          8           0        8.068497    3.264706    7.190130
    116          1           0        8.353804    3.599047    8.062432
 ---------------------------------------------------------------------

 SCF Done:  E(RB3LYP) =  -2782.30776641     A.U. after    1 cycles

 Alpha  occ. eigenvalues --  -19.30216 -19.26146 -19.25585 -19.20617 -19.19619
 Alpha  occ. eigenvalues --  -19.18348 -19.17345 -19.16857 -19.15723 -19.13416
 Alpha  occ. eigenvalues --  -19.11627 -14.58596 -14.48692 -14.44784 -14.43542
 Alpha  occ. eigenvalues --  -14.43460 -14.42718 -14.41975 -14.41216 -14.40975
 Alpha  occ. eigenvalues --  -14.39014 -10.43017 -10.40059 -10.39759 -10.39604
 Alpha  occ. eigenvalues --  -10.37891 -10.37546 -10.35081 -10.34533 -10.34197
 Alpha  occ. eigenvalues --  -10.33613 -10.32638 -10.30737 -10.30364 -10.30172
 Alpha  occ. eigenvalues --  -10.29880 -10.29579 -10.29434 -10.28538 -10.27892
 Alpha  occ. eigenvalues --  -10.27070 -10.25950 -10.25072 -10.24858 -10.24756
 Alpha  occ. eigenvalues --  -10.24737 -10.24623 -10.24610 -10.24446 -10.24227
 Alpha  occ. eigenvalues --  -10.24132 -10.23638 -10.23027 -10.22975 -10.22509
 Alpha  occ. eigenvalues --  -10.22236 -10.21279  -1.18995  -1.17196  -1.16437
 Alpha  occ. eigenvalues --   -1.12729  -1.12210  -1.10247  -1.09454  -1.08735
 Alpha  occ. eigenvalues --   -1.08223  -1.07309  -1.07300  -1.05510  -1.05265
 Alpha  occ. eigenvalues --   -1.00282  -0.98902  -0.98625  -0.98014  -0.97625
 Alpha  occ. eigenvalues --   -0.96976  -0.96117  -0.95427  -0.92787  -0.91397
 Alpha  occ. eigenvalues --   -0.87904  -0.86991  -0.85870  -0.85126  -0.84393
 Alpha  occ. eigenvalues --   -0.83047  -0.82105  -0.81032  -0.80370  -0.79812
 Alpha  occ. eigenvalues --   -0.79177  -0.75524  -0.75485  -0.74836  -0.74649
 Alpha  occ. eigenvalues --   -0.73715  -0.73344  -0.73058  -0.71967  -0.71586
 Alpha  occ. eigenvalues --   -0.70582  -0.70034  -0.69486  -0.67657  -0.67640
 Alpha  occ. eigenvalues --   -0.67012  -0.66679  -0.65999  -0.65579  -0.65071
 Alpha  occ. eigenvalues --   -0.64875  -0.64406  -0.64053  -0.63956  -0.63176
 Alpha  occ. eigenvalues --   -0.62106  -0.61937  -0.61876  -0.61526  -0.60426
 Alpha  occ. eigenvalues --   -0.59449  -0.58878  -0.58045  -0.57722  -0.57357
 Alpha  occ. eigenvalues --   -0.56732  -0.56275  -0.56043  -0.55301  -0.55004
 Alpha  occ. eigenvalues --   -0.54593  -0.54147  -0.53718  -0.53509  -0.53304
 Alpha  occ. eigenvalues --   -0.53158  -0.52689  -0.52558  -0.52327  -0.52297
 Alpha  occ. eigenvalues --   -0.52084  -0.51690  -0.51578  -0.51439  -0.51055
 Alpha  occ. eigenvalues --   -0.50785  -0.50159  -0.50030  -0.49832  -0.49421
 Alpha  occ. eigenvalues --   -0.49400  -0.49135  -0.48486  -0.48449  -0.48276
 Alpha  occ. eigenvalues --   -0.47922  -0.47685  -0.47350  -0.47285  -0.46899
 Alpha  occ. eigenvalues --   -0.46803  -0.46686  -0.46506  -0.46098  -0.45547
 Alpha  occ. eigenvalues --   -0.45516  -0.45274  -0.45161  -0.44621  -0.44357
 Alpha  occ. eigenvalues --   -0.44318  -0.43656  -0.43590  -0.43447  -0.43312
 Alpha  occ. eigenvalues --   -0.43028  -0.42722  -0.42489  -0.42321  -0.42193
 Alpha  occ. eigenvalues --   -0.41720  -0.41641  -0.41423  -0.41189  -0.40783
 Alpha  occ. eigenvalues --   -0.40705  -0.40580  -0.40023  -0.39800  -0.39457
 Alpha  occ. eigenvalues --   -0.39270  -0.38218  -0.38159  -0.38112  -0.38000
 Alpha  occ. eigenvalues --   -0.37784  -0.37468  -0.37409  -0.35229  -0.34933
 Alpha  occ. eigenvalues --   -0.34207  -0.33784  -0.33091  -0.32535  -0.32368
 Alpha  occ. eigenvalues --   -0.31685  -0.30800  -0.30730  -0.30430  -0.29898
 Alpha  occ. eigenvalues --   -0.29752  -0.29518  -0.29220  -0.28394  -0.27911
 Alpha  occ. eigenvalues --   -0.25538
 Alpha virt. eigenvalues --   -0.12256  -0.09387  -0.06628  -0.06143  -0.05951
 Alpha virt. eigenvalues --   -0.05589  -0.05007  -0.04864  -0.04524  -0.04122
 Alpha virt. eigenvalues --   -0.03173  -0.03088  -0.01829  -0.01382  -0.01221

 Mulliken charges:
               1
     1  N   -0.757884
     2  H    0.432032
     3  H    0.423624
     4  H    0.411167
     5  C   -0.117440
     6  H    0.224119
     7  C    0.636947
     8  C    0.074964
     9  H    0.192801
    10  O   -0.541186
    11  C   -0.450365
    12  H    0.176834
    13  H    0.207359
    14  H    0.153826
    15  O   -0.621194
    16  H    0.433019
    17  N   -0.615878
    18  H    0.374007
    19  C   -0.063894
    20  H    0.189682
    21  C    0.627573
    22  C   -0.350374
    23  H    0.178698
    24  H    0.157370
    25  O   -0.564470
    26  C    0.153826
    27  C   -0.185597
    28  H    0.126333
    29  C   -0.201568
    30  H    0.123664
    31  C   -0.132941
    32  H    0.145385
    33  C   -0.111424
    34  H    0.141802
    35  C   -0.124304
    36  H    0.186024
    37  N   -0.617530
    38  H    0.384783
    39  C   -0.042665
    40  H    0.178038
    41  C    0.627855
    42  C   -0.448294
    43  H    0.167322
    44  H    0.164407
    45  H    0.172052
    46  O   -0.540196
    47  N   -0.619227
    48  H    0.349302
    49  C   -0.058711
    50  H    0.203747
    51  C    0.601108
    52  C   -0.280441
    53  H    0.136654
    54  H    0.174246
    55  O   -0.565173
    56  C   -0.337717
    57  H    0.148359
    58  H    0.138814
    59  C    0.603843
    60  O   -0.661584
    61  O   -0.562957
    62  N   -0.652092
    63  H    0.418290
    64  C   -0.033498
    65  H    0.165096
    66  C    0.637962
    67  C   -0.444462
    68  H    0.159718
    69  H    0.154861
    70  H    0.180357
    71  O   -0.557555
    72  N   -0.603169
    73  H    0.344918
    74  C   -0.033019
    75  H    0.153702
    76  C    0.647223
    77  C   -0.303344
    78  H    0.165137
    79  H    0.157817
    80  O   -0.536435
    81  C   -0.078301
    82  H    0.120231
    83  C   -0.443313
    84  H    0.148582
    85  H    0.148050
    86  H    0.152050
    87  C   -0.451606
    88  H    0.145305
    89  H    0.155134
    90  H    0.149042
    91  N   -0.591950
    92  H    0.335191
    93  C   -0.069871
    94  H    0.221508
    95  C    0.585668
    96  C   -0.269035
    97  H    0.174158
    98  H    0.134107
    99  O   -0.457894
   100  C   -0.291877
   101  H    0.198195
   102  H    0.157102
   103  C   -0.152883
   104  H    0.174239
   105  H    0.153255
   106  N   -0.622083
   107  H    0.407633
   108  N   -0.751223
   109  H    0.356310
   110  H    0.358477
   111  N   -0.778090
   112  H    0.459129
   113  H    0.344201
   114  C    0.752925
   115  O   -0.561136
   116  H    0.418689
 Sum of Mulliken charges =   1.00000

 Dipole moment (field-independent basis, Debye):
    X=            -17.8683    Y=              3.7381    Z=            -18.9819  Tot=             26.3355
 Quadrupole moment (field-independent basis, Debye-Ang):
   XX=            -90.7833   YY=           -271.5322   ZZ=            -66.1565
   XY=             27.6888   XZ=            253.2089   YZ=             47.6426

 Normal termination of Gaussian 16 at Thu Jun 30 14:46:05 2022.
