 Gaussian 16, Revision C.01,
 Gaussian 16:  ES64L-G16RevC.01  3-Jul-2019

 -------------------------------------------------------------------
 # B3LYP/6-31G* guess=read geom=check nosymm integral(ultrafinegrid)
 -------------------------------------------------------------------

 ------------------------------------------------------
 Candidate Structure: Conf:607 Charge calc in gas phase
 ------------------------------------------------------
 Structure from the checkpoint file:  "conf-607.chk"
 Charge =  1 Multiplicity = 1

                          Input orientation:
 ---------------------------------------------------------------------
 Center     Atomic      Atomic             Coordinates (Angstroms)
 Number     Number       Type             X           Y           Z
 ---------------------------------------------------------------------
      1          7           0       -6.206639   -2.369254   -1.670233
      2          1           0       -5.953765   -1.459634   -1.252925
      3          1           0       -6.623435   -2.177778   -2.602336
      4          1           0       -6.830471   -2.910874   -1.055307
      5          6           0       -4.982216   -3.200459   -1.952832
      6          1           0       -4.251091   -3.055106   -1.150679
      7          6           0       -4.459286   -2.618019   -3.277866
      8          6           0       -5.437204   -4.672106   -2.016605
      9          1           0       -6.125073   -4.793086   -2.862482
     10          8           0       -5.286725   -2.197254   -4.099660
     11          6           0       -4.259278   -5.629148   -2.149271
     12          1           0       -3.770249   -5.505225   -3.120700
     13          1           0       -4.617433   -6.660067   -2.070820
     14          1           0       -3.500197   -5.425703   -1.385388
     15          8           0       -6.244464   -4.925724   -0.855170
     16          1           0       -5.645051   -5.149804   -0.122810
     17          7           0       -3.130830   -2.580961   -3.354980
     18          1           0       -2.621532   -2.928525   -2.513752
     19          6           0       -2.417324   -1.719066   -4.273276
     20          1           0       -3.039056   -1.582611   -5.164193
     21          6           0       -1.098532   -2.429183   -4.650462
     22          6           0       -2.139602   -0.325710   -3.598841
     23          1           0       -1.300963   -0.442875   -2.904700
     24          1           0       -1.839697    0.387292   -4.377894
     25          8           0       -0.881584   -3.594105   -4.338653
     26          6           0       -3.326169    0.231677   -2.836178
     27          6           0       -4.359648    0.916508   -3.490500
     28          1           0       -4.302768    1.076259   -4.564868
     29          6           0       -3.414825    0.034203   -1.448772
     30          1           0       -2.609302   -0.491216   -0.934225
     31          6           0       -5.468743    1.385987   -2.786150
     32          1           0       -6.257037    1.918477   -3.311389
     33          6           0       -4.528485    0.504323   -0.740281
     34          1           0       -4.568436    0.375191    0.339489
     35          6           0       -5.560246    1.178817   -1.405928
     36          1           0       -6.411822    1.565597   -0.850953
     37          7           0       -0.178874   -1.671855   -5.327982
     38          1           0       -0.319329   -0.669163   -5.350466
     39          6           0        1.231156   -2.090993   -5.353280
     40          1           0        1.226574   -3.179020   -5.440412
     41          6           0        1.824793   -1.646273   -4.000373
     42          6           0        1.966307   -1.457114   -6.529641
     43          1           0        2.997602   -1.822426   -6.573465
     44          1           0        2.002184   -0.369096   -6.418054
     45          1           0        1.466609   -1.710141   -7.469228
     46          8           0        2.079344   -0.448931   -3.812114
     47          7           0        1.959934   -2.601880   -3.052121
     48          1           0        1.606971   -3.521382   -3.288188
     49          6           0        2.064074   -2.306305   -1.606810
     50          1           0        1.393613   -1.463210   -1.401374
     51          6           0        3.479425   -1.879070   -1.160643
     52          6           0        1.576298   -3.491814   -0.761513
     53          1           0        1.687919   -3.187127    0.282056
     54          1           0        2.262590   -4.337996   -0.898026
     55          8           0        4.034559   -2.395026   -0.181602
     56          6           0        0.133757   -3.951717   -1.005672
     57          1           0       -0.001020   -4.362410   -2.015426
     58          1           0       -0.083748   -4.790117   -0.332798
     59          6           0       -0.986801   -2.906405   -0.823729
     60          8           0       -2.170107   -3.383651   -0.926676
     61          8           0       -0.694702   -1.699291   -0.657864
     62          7           0        4.025688   -0.841548   -1.840253
     63          1           0        3.449423   -0.394209   -2.558520
     64          6           0        5.286200   -0.220952   -1.428010
     65          1           0        5.916433   -1.024928   -1.032201
     66          6           0        5.000000    0.775526   -0.278627
     67          6           0        5.966499    0.457417   -2.611919
     68          1           0        6.922171    0.891565   -2.303702
     69          1           0        5.347069    1.268457   -3.005839
     70          1           0        6.150832   -0.271888   -3.406260
     71          8           0        5.072619    2.002485   -0.437320
     72          7           0        4.621374    0.189716    0.882411
     73          1           0        4.537516   -0.828607    0.858481
     74          6           0        3.853150    0.895437    1.922650
     75          1           0        3.242146    1.648553    1.408686
     76          6           0        4.789752    1.668297    2.879909
     77          6           0        2.961221   -0.097459    2.681344
     78          1           0        2.622609   -0.868916    1.977888
     79          1           0        3.574804   -0.592754    3.441601
     80          8           0        4.878412    1.451320    4.084077
     81          6           0        1.723750    0.536055    3.350643
     82          1           0        2.058123    1.419501    3.912252
     83          6           0        0.672093    0.973771    2.317442
     84          1           0        0.312794    0.120098    1.727619
     85          1           0        1.062564    1.719401    1.614224
     86          1           0       -0.194216    1.425048    2.815553
     87          6           0        1.112930   -0.451780    4.355436
     88          1           0        0.787404   -1.371842    3.852738
     89          1           0        0.236646   -0.017435    4.850677
     90          1           0        1.836464   -0.728450    5.130851
     91          7           0        5.512292    2.649484    2.270490
     92          1           0        5.423184    2.752594    1.256214
     93          6           0        6.460560    3.421031    3.035125
     94          1           0        7.199401    2.760895    3.506768
     95          6           0        5.748000    4.187311    4.160759
     96          6           0        7.162219    4.418784    2.093981
     97          1           0        6.408907    5.124437    1.720839
     98          1           0        7.539715    3.858578    1.229110
     99          8           0        4.698272    4.772053    4.049647
    100          6           0        8.316299    5.177274    2.761951
    101          1           0        9.074561    4.460076    3.105688
    102          1           0        7.958969    5.716422    3.646565
    103          6           0        8.959928    6.170650    1.793679
    104          1           0        8.223543    6.916382    1.472999
    105          1           0        9.337855    5.646862    0.905654
    106          7           0       10.073176    6.879032    2.457827
    107          1           0       10.455478    6.445870    3.289872
    108          7           0       10.382685    8.464558    0.792770
    109          1           0       10.642914    9.402921    0.523819
    110          1           0        9.853236    7.920725    0.126772
    111          7           0       11.539528    8.647755    2.788971
    112          1           0       11.639259    8.432145    3.770882
    113          1           0       12.164203    9.341618    2.403113
    114          6           0       10.662762    7.986904    2.013298
    115          8           0        6.499951    4.214464    5.290549
    116          1           0        5.970946    4.694571    5.956429
 ---------------------------------------------------------------------

 SCF Done:  E(RB3LYP) =  -2782.27894705     A.U. after    2 cycles

 Alpha  occ. eigenvalues --  -19.26159 -19.22823 -19.20093 -19.17950 -19.17308
 Alpha  occ. eigenvalues --  -19.17171 -19.17131 -19.16323 -19.15940 -19.10798
 Alpha  occ. eigenvalues --  -19.10569 -14.54809 -14.54644 -14.54611 -14.51761
 Alpha  occ. eigenvalues --  -14.41475 -14.41207 -14.40209 -14.40180 -14.40097
 Alpha  occ. eigenvalues --  -14.39513 -10.51082 -10.38204 -10.37689 -10.34763
 Alpha  occ. eigenvalues --  -10.34256 -10.33839 -10.33587 -10.32932 -10.32712
 Alpha  occ. eigenvalues --  -10.31607 -10.31487 -10.30968 -10.30718 -10.29367
 Alpha  occ. eigenvalues --  -10.28980 -10.28796 -10.28602 -10.28044 -10.27419
 Alpha  occ. eigenvalues --  -10.26434 -10.24537 -10.24482 -10.24466 -10.24162
 Alpha  occ. eigenvalues --  -10.24109 -10.23938 -10.23107 -10.22877 -10.22875
 Alpha  occ. eigenvalues --  -10.22819 -10.21696 -10.21561 -10.21236 -10.19931
 Alpha  occ. eigenvalues --  -10.19788 -10.19684  -1.19482  -1.16801  -1.10926
 Alpha  occ. eigenvalues --   -1.09609  -1.09261  -1.08884  -1.08621  -1.08480
 Alpha  occ. eigenvalues --   -1.08139  -1.07661  -1.07631  -1.07297  -1.05475
 Alpha  occ. eigenvalues --   -1.03594  -0.98166  -0.97892  -0.97848  -0.97182
 Alpha  occ. eigenvalues --   -0.96971  -0.95803  -0.94661  -0.92587  -0.90398
 Alpha  occ. eigenvalues --   -0.86130  -0.85520  -0.84199  -0.83717  -0.82728
 Alpha  occ. eigenvalues --   -0.81886  -0.81445  -0.80662  -0.79174  -0.79151
 Alpha  occ. eigenvalues --   -0.78779  -0.77593  -0.76610  -0.76101  -0.74489
 Alpha  occ. eigenvalues --   -0.73474  -0.72314  -0.71512  -0.70618  -0.70307
 Alpha  occ. eigenvalues --   -0.69933  -0.69111  -0.68792  -0.68193  -0.67383
 Alpha  occ. eigenvalues --   -0.66118  -0.65745  -0.65333  -0.64878  -0.64772
 Alpha  occ. eigenvalues --   -0.64070  -0.63619  -0.63315  -0.63065  -0.62662
 Alpha  occ. eigenvalues --   -0.62243  -0.62019  -0.61571  -0.61321  -0.59342
 Alpha  occ. eigenvalues --   -0.59119  -0.58686  -0.57579  -0.57243  -0.57129
 Alpha  occ. eigenvalues --   -0.56707  -0.56134  -0.55663  -0.54961  -0.54795
 Alpha  occ. eigenvalues --   -0.54226  -0.53666  -0.53227  -0.53065  -0.52738
 Alpha  occ. eigenvalues --   -0.52503  -0.52008  -0.51750  -0.51487  -0.50861
 Alpha  occ. eigenvalues --   -0.50744  -0.50482  -0.50174  -0.49997  -0.49961
 Alpha  occ. eigenvalues --   -0.48975  -0.48523  -0.48280  -0.47649  -0.47425
 Alpha  occ. eigenvalues --   -0.47164  -0.47102  -0.46996  -0.46716  -0.46491
 Alpha  occ. eigenvalues --   -0.46218  -0.46021  -0.45807  -0.45739  -0.45518
 Alpha  occ. eigenvalues --   -0.45457  -0.45234  -0.45017  -0.44689  -0.44501
 Alpha  occ. eigenvalues --   -0.44058  -0.43981  -0.43831  -0.43474  -0.43251
 Alpha  occ. eigenvalues --   -0.43104  -0.43006  -0.42700  -0.42556  -0.42228
 Alpha  occ. eigenvalues --   -0.42030  -0.41618  -0.41355  -0.41261  -0.41193
 Alpha  occ. eigenvalues --   -0.40943  -0.40685  -0.40629  -0.40520  -0.40359
 Alpha  occ. eigenvalues --   -0.39723  -0.39485  -0.38912  -0.38655  -0.38451
 Alpha  occ. eigenvalues --   -0.38001  -0.37980  -0.37297  -0.35900  -0.35800
 Alpha  occ. eigenvalues --   -0.35378  -0.35138  -0.34938  -0.33945  -0.33195
 Alpha  occ. eigenvalues --   -0.32783  -0.32383  -0.32152  -0.31919  -0.31451
 Alpha  occ. eigenvalues --   -0.30929  -0.30466  -0.29842  -0.29586  -0.29235
 Alpha  occ. eigenvalues --   -0.28941  -0.28611  -0.28131  -0.26711  -0.25168
 Alpha  occ. eigenvalues --   -0.24339
 Alpha virt. eigenvalues --   -0.14744  -0.10666  -0.06891  -0.06211  -0.06130
 Alpha virt. eigenvalues --   -0.05700  -0.05373  -0.05316  -0.04509  -0.04104
 Alpha virt. eigenvalues --   -0.04041  -0.02512  -0.02339  -0.02161  -0.01377

 Mulliken charges:
               1
     1  N   -0.753284
     2  H    0.408519
     3  H    0.406203
     4  H    0.402796
     5  C   -0.156017
     6  H    0.244206
     7  C    0.630093
     8  C    0.122865
     9  H    0.164827
    10  O   -0.565789
    11  C   -0.501886
    12  H    0.187518
    13  H    0.167747
    14  H    0.200975
    15  O   -0.637128
    16  H    0.412618
    17  N   -0.610794
    18  H    0.434426
    19  C   -0.073931
    20  H    0.197162
    21  C    0.623580
    22  C   -0.393295
    23  H    0.207265
    24  H    0.143132
    25  O   -0.516282
    26  C    0.137443
    27  C   -0.149940
    28  H    0.133147
    29  C   -0.195264
    30  H    0.219643
    31  C   -0.134594
    32  H    0.140590
    33  C   -0.203183
    34  H    0.144286
    35  C   -0.158045
    36  H    0.137537
    37  N   -0.595324
    38  H    0.341383
    39  C   -0.052367
    40  H    0.177806
    41  C    0.629430
    42  C   -0.461603
    43  H    0.162160
    44  H    0.170742
    45  H    0.165507
    46  O   -0.565529
    47  N   -0.600159
    48  H    0.355959
    49  C   -0.077364
    50  H    0.226992
    51  C    0.626761
    52  C   -0.282361
    53  H    0.170521
    54  H    0.140762
    55  O   -0.556011
    56  C   -0.384679
    57  H    0.162334
    58  H    0.153206
    59  C    0.580998
    60  O   -0.624815
    61  O   -0.557747
    62  N   -0.620695
    63  H    0.388594
    64  C   -0.053891
    65  H    0.178725
    66  C    0.619120
    67  C   -0.452116
    68  H    0.147843
    69  H    0.171998
    70  H    0.157446
    71  O   -0.564388
    72  N   -0.626041
    73  H    0.389254
    74  C   -0.066959
    75  H    0.178150
    76  C    0.644417
    77  C   -0.295140
    78  H    0.151363
    79  H    0.164029
    80  O   -0.529497
    81  C   -0.076762
    82  H    0.139839
    83  C   -0.461533
    84  H    0.172522
    85  H    0.136587
    86  H    0.139046
    87  C   -0.446649
    88  H    0.144292
    89  H    0.139055
    90  H    0.147863
    91  N   -0.653257
    92  H    0.382917
    93  C    0.027926
    94  H    0.174333
    95  C    0.593136
    96  C   -0.323674
    97  H    0.178402
    98  H    0.171361
    99  O   -0.454073
   100  C   -0.316693
   101  H    0.167830
   102  H    0.182480
   103  C   -0.145513
   104  H    0.192320
   105  H    0.189700
   106  N   -0.609365
   107  H    0.371393
   108  N   -0.755610
   109  H    0.390086
   110  H    0.398654
   111  N   -0.762567
   112  H    0.389619
   113  H    0.389219
   114  C    0.841747
   115  O   -0.575682
   116  H    0.415089
 Sum of Mulliken charges =   1.00000

 Dipole moment (field-independent basis, Debye):
    X=             35.5581    Y=             31.4238    Z=              2.8462  Tot=             47.5388
 Quadrupole moment (field-independent basis, Debye-Ang):
   XX=            238.4136   YY=            -42.4557   ZZ=           -292.8404
   XY=            396.7752   XZ=             89.1704   YZ=             71.0599

 Normal termination of Gaussian 16 at Thu Jun 30 14:46:35 2022.
