 Gaussian 16, Revision C.01,
 Gaussian 16:  ES64L-G16RevC.01  3-Jul-2019

 -------------------------------------------------------------------
 # B3LYP/6-31G* guess=read geom=check nosymm integral(ultrafinegrid)
 -------------------------------------------------------------------

 ------------------------------------------------------
 Candidate Structure: Conf:705 Charge calc in gas phase
 ------------------------------------------------------
 Structure from the checkpoint file:  "conf-705.chk"
 Charge =  1 Multiplicity = 1

                          Input orientation:
 ---------------------------------------------------------------------
 Center     Atomic      Atomic             Coordinates (Angstroms)
 Number     Number       Type             X           Y           Z
 ---------------------------------------------------------------------
      1          7           0       -3.695219    0.659378   -1.809006
      2          1           0       -3.657689   -0.189588   -0.092157
      3          1           0       -2.713652    0.933084   -1.757995
      4          1           0       -4.252902    1.500464   -1.937294
      5          6           0       -3.881451   -0.263575   -2.931192
      6          1           0       -4.918169   -0.624723   -2.905263
      7          6           0       -2.935800   -1.455203   -2.693563
      8          6           0       -3.634844    0.320546   -4.347552
      9          1           0       -3.883883   -0.472963   -5.073317
     10          8           0       -1.975660   -1.364851   -1.941740
     11          6           0       -4.497517    1.543588   -4.656332
     12          1           0       -5.565401    1.312619   -4.569783
     13          1           0       -4.319237    1.886194   -5.682885
     14          1           0       -4.258623    2.373871   -3.983518
     15          8           0       -2.243104    0.620560   -4.412066
     16          1           0       -2.071004    1.090800   -5.242508
     17          7           0       -3.196789   -2.604318   -3.395785
     18          1           0       -4.090103   -2.673028   -3.872887
     19          6           0       -2.664742   -3.890799   -2.932795
     20          1           0       -3.126605   -4.156921   -1.974640
     21          6           0       -1.159007   -3.871500   -2.636307
     22          6           0       -2.985321   -4.999716   -3.965753
     23          1           0       -2.456772   -4.776537   -4.899338
     24          1           0       -2.568031   -5.932399   -3.570150
     25          8           0       -0.722847   -4.529756   -1.690187
     26          6           0       -4.470007   -5.153364   -4.227350
     27          6           0       -5.301277   -5.778041   -3.285190
     28          1           0       -4.868612   -6.183621   -2.373179
     29          6           0       -5.048747   -4.650392   -5.401306
     30          1           0       -4.414854   -4.183976   -6.153150
     31          6           0       -6.671828   -5.895882   -3.510873
     32          1           0       -7.299045   -6.389578   -2.773815
     33          6           0       -6.422775   -4.766878   -5.629873
     34          1           0       -6.851595   -4.380631   -6.550595
     35          6           0       -7.237299   -5.388764   -4.684086
     36          1           0       -8.304641   -5.485679   -4.861254
     37          7           0       -0.353860   -3.210773   -3.511101
     38          1           0       -0.784082   -2.488808   -4.078153
     39          6           0        1.078798   -3.067161   -3.233313
     40          1           0        1.398001   -4.026184   -2.815351
     41          6           0        1.324976   -1.966171   -2.170884
     42          6           0        1.839840   -2.772091   -4.521904
     43          1           0        2.915791   -2.735262   -4.328502
     44          1           0        1.548293   -1.800892   -4.932716
     45          1           0        1.642714   -3.554668   -5.260451
     46          8           0        1.736989   -0.846507   -2.500931
     47          7           0        1.084462   -2.327052   -0.886755
     48          1           0        0.641996   -3.234528   -0.752304
     49          6           0        1.000651   -1.349793    0.215003
     50          1           0        0.530888   -0.443208   -0.181897
     51          6           0        2.400714   -0.934283    0.729381
     52          6           0        0.154575   -1.874153    1.386292
     53          1           0        0.300754   -1.179729    2.216317
     54          1           0        0.563330   -2.834099    1.724604
     55          8           0        2.733515   -1.046304    1.916839
     56          6           0       -1.344645   -2.027239    1.113907
     57          1           0       -1.543029   -2.737076    0.304080
     58          1           0       -1.835365   -2.447505    2.001237
     59          6           0       -2.051050   -0.733110    0.751098
     60          8           0       -3.353331   -0.930676    0.502175
     61          8           0       -1.508955    0.356672    0.666041
     62          7           0        3.213502   -0.372688   -0.197266
     63          1           0        2.845033   -0.281080   -1.149823
     64          6           0        4.582754    0.035717    0.110423
     65          1           0        4.964246   -0.665444    0.862315
     66          6           0        4.592858    1.441209    0.760413
     67          6           0        5.444752   -0.028338   -1.146261
     68          1           0        6.481873    0.231447   -0.914694
     69          1           0        5.074586    0.663346   -1.910814
     70          1           0        5.426034   -1.041579   -1.557167
     71          8           0        5.113169    2.441312    0.228608
     72          7           0        3.959756    1.509821    1.939273
     73          1           0        3.560881    0.641150    2.302707
     74          6           0        3.765105    2.761167    2.649272
     75          1           0        3.327103    3.485703    1.952118
     76          6           0        5.118157    3.325310    3.120225
     77          6           0        2.824655    2.567836    3.858425
     78          1           0        3.324475    1.906254    4.578750
     79          1           0        2.718246    3.542119    4.354791
     80          8           0        6.092177    2.623567    3.364879
     81          6           0        1.420640    2.008666    3.536625
     82          1           0        1.541907    0.997548    3.126534
     83          6           0        0.615451    1.880011    4.838862
     84          1           0        0.449923    2.862624    5.299272
     85          1           0        1.132386    1.248631    5.571077
     86          1           0       -0.366208    1.434418    4.644886
     87          6           0        0.658245    2.848154    2.501652
     88          1           0        0.477634    3.866202    2.872419
     89          1           0       -0.309727    2.388959    2.276223
     90          1           0        1.198629    2.924096    1.550830
     91          7           0        5.143281    4.691146    3.225867
     92          1           0        4.260501    5.191008    3.193326
     93          6           0        6.200163    5.389263    3.938615
     94          1           0        6.810728    4.639189    4.452602
     95          6           0        5.536870    6.284237    4.987096
     96          6           0        7.104537    6.248008    3.017746
     97          1           0        7.665907    6.944335    3.649444
     98          1           0        6.460384    6.856035    2.369343
     99          8           0        4.352111    6.535452    5.018398
    100          6           0        8.128483    5.479547    2.165708
    101          1           0        8.797034    4.913299    2.829051
    102          1           0        8.746151    6.227388    1.650014
    103          6           0        7.537610    4.527479    1.120530
    104          1           0        6.764076    5.022008    0.524908
    105          1           0        7.099799    3.648228    1.595343
    106          7           0        8.611975    4.104862    0.196615
    107          1           0        9.562180    4.151894    0.541947
    108          7           0        7.230709    3.100873   -1.382879
    109          1           0        7.091184    2.853248   -2.352463
    110          1           0        6.453625    2.867972   -0.730504
    111          7           0        9.492364    3.396001   -1.819963
    112          1           0       10.318943    3.963002   -1.702827
    113          1           0        9.453331    2.790450   -2.625971
    114          6           0        8.429265    3.526090   -0.992506
    115          8           0        6.432964    6.783554    5.857667
    116          1           0        5.943566    7.355349    6.480384
 ---------------------------------------------------------------------

 SCF Done:  E(RB3LYP) =  -2782.33718664     A.U. after    1 cycles

 Alpha  occ. eigenvalues --  -19.28281 -19.22797 -19.22033 -19.20982 -19.20570
 Alpha  occ. eigenvalues --  -19.19417 -19.19031 -19.18527 -19.18431 -19.18344
 Alpha  occ. eigenvalues --  -19.16805 -14.50557 -14.50212 -14.48654 -14.43964
 Alpha  occ. eigenvalues --  -14.43317 -14.43149 -14.42518 -14.42042 -14.41905
 Alpha  occ. eigenvalues --  -14.39672 -10.46285 -10.40727 -10.37033 -10.36444
 Alpha  occ. eigenvalues --  -10.35999 -10.35528 -10.35138 -10.35012 -10.34991
 Alpha  occ. eigenvalues --  -10.32695 -10.32491 -10.31756 -10.31161 -10.30680
 Alpha  occ. eigenvalues --  -10.30400 -10.30054 -10.29752 -10.29429 -10.28725
 Alpha  occ. eigenvalues --  -10.28719 -10.26519 -10.26358 -10.26072 -10.25591
 Alpha  occ. eigenvalues --  -10.25495 -10.25184 -10.25009 -10.24898 -10.24841
 Alpha  occ. eigenvalues --  -10.24740 -10.24537 -10.24283 -10.23906 -10.23630
 Alpha  occ. eigenvalues --  -10.22269 -10.22191  -1.19286  -1.14712  -1.12388
 Alpha  occ. eigenvalues --   -1.12271  -1.11451  -1.11192  -1.10441  -1.10340
 Alpha  occ. eigenvalues --   -1.10013  -1.09444  -1.09339  -1.04126  -1.03599
 Alpha  occ. eigenvalues --   -1.02526  -1.00717  -1.00295  -0.99982  -0.98902
 Alpha  occ. eigenvalues --   -0.98768  -0.97774  -0.96213  -0.91620  -0.90076
 Alpha  occ. eigenvalues --   -0.87502  -0.86082  -0.85333  -0.85122  -0.84121
 Alpha  occ. eigenvalues --   -0.83327  -0.82890  -0.81358  -0.80364  -0.79843
 Alpha  occ. eigenvalues --   -0.79072  -0.77931  -0.76798  -0.76019  -0.73766
 Alpha  occ. eigenvalues --   -0.73140  -0.72658  -0.72429  -0.72169  -0.70682
 Alpha  occ. eigenvalues --   -0.70366  -0.69654  -0.68558  -0.68240  -0.67553
 Alpha  occ. eigenvalues --   -0.66586  -0.66504  -0.66205  -0.65768  -0.64708
 Alpha  occ. eigenvalues --   -0.64547  -0.64152  -0.63600  -0.63463  -0.62738
 Alpha  occ. eigenvalues --   -0.62066  -0.61482  -0.60549  -0.60497  -0.59622
 Alpha  occ. eigenvalues --   -0.58936  -0.58871  -0.58591  -0.58187  -0.57431
 Alpha  occ. eigenvalues --   -0.57307  -0.56830  -0.56695  -0.56173  -0.55904
 Alpha  occ. eigenvalues --   -0.55589  -0.54862  -0.54708  -0.54392  -0.53668
 Alpha  occ. eigenvalues --   -0.53241  -0.53017  -0.52723  -0.52563  -0.52185
 Alpha  occ. eigenvalues --   -0.51886  -0.51796  -0.51514  -0.51145  -0.50930
 Alpha  occ. eigenvalues --   -0.50459  -0.50226  -0.49835  -0.49583  -0.49213
 Alpha  occ. eigenvalues --   -0.49108  -0.48918  -0.48719  -0.48432  -0.48131
 Alpha  occ. eigenvalues --   -0.47938  -0.47836  -0.47734  -0.47501  -0.47236
 Alpha  occ. eigenvalues --   -0.47150  -0.46624  -0.46321  -0.46169  -0.46139
 Alpha  occ. eigenvalues --   -0.45790  -0.45683  -0.45385  -0.45075  -0.44919
 Alpha  occ. eigenvalues --   -0.44751  -0.44510  -0.44249  -0.44141  -0.44070
 Alpha  occ. eigenvalues --   -0.43904  -0.43750  -0.43352  -0.43165  -0.42927
 Alpha  occ. eigenvalues --   -0.42441  -0.42173  -0.41744  -0.41631  -0.41312
 Alpha  occ. eigenvalues --   -0.41247  -0.41113  -0.40924  -0.40380  -0.40008
 Alpha  occ. eigenvalues --   -0.39914  -0.39834  -0.38884  -0.38603  -0.38236
 Alpha  occ. eigenvalues --   -0.38014  -0.37814  -0.36482  -0.35879  -0.34856
 Alpha  occ. eigenvalues --   -0.34708  -0.34422  -0.34334  -0.34028  -0.33928
 Alpha  occ. eigenvalues --   -0.33481  -0.32860  -0.32366  -0.32300  -0.31655
 Alpha  occ. eigenvalues --   -0.31573  -0.31047  -0.30886  -0.30468  -0.30236
 Alpha  occ. eigenvalues --   -0.29813
 Alpha virt. eigenvalues --   -0.10549  -0.07786  -0.07118  -0.06963  -0.06676
 Alpha virt. eigenvalues --   -0.06286  -0.05770  -0.05559  -0.05138  -0.04258
 Alpha virt. eigenvalues --   -0.03404  -0.02720  -0.02270  -0.02173  -0.00993

 Mulliken charges:
               1
     1  N   -0.756984
     2  H    0.442014
     3  H    0.358340
     4  H    0.321982
     5  C   -0.087990
     6  H    0.158712
     7  C    0.653728
     8  C    0.145947
     9  H    0.118196
    10  O   -0.517503
    11  C   -0.481455
    12  H    0.161091
    13  H    0.156407
    14  H    0.158765
    15  O   -0.625009
    16  H    0.400894
    17  N   -0.649122
    18  H    0.340402
    19  C   -0.021293
    20  H    0.186168
    21  C    0.643960
    22  C   -0.380036
    23  H    0.160349
    24  H    0.186235
    25  O   -0.556572
    26  C    0.147242
    27  C   -0.178464
    28  H    0.142491
    29  C   -0.204887
    30  H    0.130074
    31  C   -0.126523
    32  H    0.147559
    33  C   -0.126854
    34  H    0.141766
    35  C   -0.128581
    36  H    0.145840
    37  N   -0.577614
    38  H    0.347453
    39  C   -0.065604
    40  H    0.184446
    41  C    0.644162
    42  C   -0.454404
    43  H    0.158009
    44  H    0.167878
    45  H    0.159297
    46  O   -0.560362
    47  N   -0.617709
    48  H    0.378907
    49  C   -0.067207
    50  H    0.222623
    51  C    0.631542
    52  C   -0.296043
    53  H    0.181042
    54  H    0.154710
    55  O   -0.555696
    56  C   -0.374163
    57  H    0.193964
    58  H    0.175906
    59  C    0.627374
    60  O   -0.611673
    61  O   -0.505114
    62  N   -0.622783
    63  H    0.391345
    64  C   -0.056570
    65  H    0.194153
    66  C    0.652102
    67  C   -0.472265
    68  H    0.146302
    69  H    0.155252
    70  H    0.174688
    71  O   -0.595673
    72  N   -0.607222
    73  H    0.400737
    74  C   -0.045612
    75  H    0.165229
    76  C    0.630773
    77  C   -0.301272
    78  H    0.162193
    79  H    0.150221
    80  O   -0.531541
    81  C   -0.094414
    82  H    0.154431
    83  C   -0.445946
    84  H    0.143571
    85  H    0.147130
    86  H    0.156626
    87  C   -0.462208
    88  H    0.134918
    89  H    0.184712
    90  H    0.139085
    91  N   -0.601341
    92  H    0.351414
    93  C   -0.050103
    94  H    0.207666
    95  C    0.581936
    96  C   -0.275067
    97  H    0.182019
    98  H    0.157809
    99  O   -0.456628
   100  C   -0.313300
   101  H    0.166260
   102  H    0.154415
   103  C   -0.142790
   104  H    0.182293
   105  H    0.235064
   106  N   -0.617460
   107  H    0.355674
   108  N   -0.793840
   109  H    0.360779
   110  H    0.460573
   111  N   -0.769861
   112  H    0.374790
   113  H    0.374581
   114  C    0.807697
   115  O   -0.557591
   116  H    0.428438
 Sum of Mulliken charges =   1.00000

 Dipole moment (field-independent basis, Debye):
    X=             22.0264    Y=             12.8316    Z=            -10.4897  Tot=             27.5653
 Quadrupole moment (field-independent basis, Debye-Ang):
   XX=            -19.4116   YY=           -239.9792   ZZ=           -251.0248
   XY=            141.5882   XZ=             18.4144   YZ=             30.6644

 Normal termination of Gaussian 16 at Thu Jun 30 14:46:18 2022.
