 Gaussian 16, Revision C.01,
 Gaussian 16:  ES64L-G16RevC.01  3-Jul-2019

 -------------------------------------------------------------------
 # B3LYP/6-31G* guess=read geom=check nosymm integral(ultrafinegrid)
 -------------------------------------------------------------------

 ------------------------------------------------------
 Candidate Structure: Conf:102 Charge calc in gas phase
 ------------------------------------------------------
 Structure from the checkpoint file:  "conf-102.chk"
 Charge =  1 Multiplicity = 1

                          Input orientation:
 ---------------------------------------------------------------------
 Center     Atomic      Atomic             Coordinates (Angstroms)
 Number     Number       Type             X           Y           Z
 ---------------------------------------------------------------------
      1          7           0       -5.984876   -2.684405   -9.055479
      2          1           0       -6.621754   -3.409591   -8.715290
      3          1           0       -6.354532   -1.744702   -8.759242
      4          1           0       -5.860729   -2.779340  -10.076711
      5          6           0       -4.624891   -2.741120   -8.409183
      6          1           0       -4.449416   -3.759419   -8.055184
      7          6           0       -4.720816   -1.697291   -7.264993
      8          6           0       -3.576041   -2.355593   -9.484122
      9          1           0       -3.624579   -1.266247   -9.633790
     10          8           0       -5.625180   -0.853589   -7.350261
     11          6           0       -2.160551   -2.774135   -9.100771
     12          1           0       -1.820679   -2.280965   -8.184808
     13          1           0       -1.464409   -2.491818   -9.897747
     14          1           0       -2.103566   -3.859475   -8.967465
     15          8           0       -4.034560   -3.025953  -10.665105
     16          1           0       -3.478666   -2.770335  -11.418680
     17          7           0       -3.804142   -1.780325   -6.312088
     18          1           0       -3.060653   -2.483252   -6.312232
     19          6           0       -3.633196   -0.829195   -5.210977
     20          1           0       -3.875923    0.174351   -5.571418
     21          6           0       -2.129551   -0.947271   -4.867322
     22          6           0       -4.570424   -1.195920   -4.025270
     23          1           0       -5.582410   -1.260792   -4.443615
     24          1           0       -4.297452   -2.197649   -3.673617
     25          8           0       -1.518711   -1.973918   -5.204082
     26          6           0       -4.539896   -0.207120   -2.880222
     27          6           0       -3.945214   -0.545660   -1.657043
     28          1           0       -3.509211   -1.534975   -1.530492
     29          6           0       -5.109867    1.066176   -3.025958
     30          1           0       -5.597014    1.336953   -3.961713
     31          6           0       -3.911168    0.367848   -0.603053
     32          1           0       -3.438525    0.132395    0.345577
     33          6           0       -5.073694    1.983928   -1.974177
     34          1           0       -5.519136    2.966926   -2.102294
     35          6           0       -4.470373    1.637147   -0.764243
     36          1           0       -4.415459    2.337604    0.062950
     37          7           0       -1.576276    0.085920   -4.226495
     38          1           0       -2.118949    0.901404   -3.944855
     39          6           0       -0.190775    0.102578   -3.763123
     40          1           0        0.010622   -0.830134   -3.223958
     41          6           0       -0.090100    1.308281   -2.807521
     42          6           0        0.808641    0.245148   -4.924991
     43          1           0        1.836853    0.250478   -4.548455
     44          1           0        0.631956    1.181792   -5.463565
     45          1           0        0.695846   -0.595458   -5.613788
     46          8           0       -0.893126    2.236130   -2.895109
     47          7           0        0.927476    1.258405   -1.922072
     48          1           0        1.634167    0.531208   -1.979035
     49          6           0        1.279789    2.362662   -1.041630
     50          1           0        0.968815    3.295597   -1.525755
     51          6           0        2.807338    2.313242   -0.871808
     52          6           0        0.629960    2.269078    0.361592
     53          1           0        0.946247    3.146081    0.935428
     54          1           0        1.048719    1.395552    0.879003
     55          8           0        3.464411    1.331641   -1.215728
     56          6           0       -0.896170    2.209128    0.385654
     57          1           0       -1.313043    3.071929   -0.150632
     58          1           0       -1.262756    1.321782   -0.134559
     59          6           0       -1.479754    2.203828    1.820516
     60          8           0       -2.551018    1.620050    2.025063
     61          8           0       -0.794272    2.856811    2.694640
     62          7           0        3.373792    3.395391   -0.266908
     63          1           0        2.757955    4.082368    0.147900
     64          6           0        4.731289    3.328545    0.261858
     65          1           0        5.366782    2.931248   -0.535175
     66          6           0        4.782316    2.388383    1.484489
     67          6           0        5.209198    4.724658    0.672714
     68          1           0        6.229523    4.677030    1.064502
     69          1           0        4.567981    5.129155    1.463678
     70          1           0        5.190741    5.403976   -0.184798
     71          8           0        3.973916    2.493001    2.412093
     72          7           0        5.779111    1.480100    1.483173
     73          1           0        6.393888    1.430649    0.682805
     74          6           0        6.032899    0.574148    2.596803
     75          1           0        5.139699   -0.044113    2.743352
     76          6           0        6.300605    1.397436    3.875416
     77          6           0        7.251387   -0.305662    2.249255
     78          1           0        7.089874   -0.726353    1.245705
     79          1           0        8.125196    0.356460    2.186773
     80          8           0        6.965848    2.424639    3.856252
     81          6           0        7.552850   -1.463318    3.223145
     82          1           0        7.622668   -1.054633    4.240514
     83          6           0        6.453784   -2.537710    3.216527
     84          1           0        6.345147   -2.980107    2.217790
     85          1           0        5.473475   -2.145084    3.511696
     86          1           0        6.699990   -3.344882    3.914579
     87          6           0        8.914092   -2.086039    2.877012
     88          1           0        8.908508   -2.507803    1.863563
     89          1           0        9.160769   -2.896222    3.571839
     90          1           0        9.718819   -1.343562    2.926913
     91          7           0        5.750286    0.877592    5.009033
     92          1           0        5.305480   -0.031418    4.989828
     93          6           0        5.955809    1.466409    6.317875
     94          1           0        6.836297    2.113758    6.254271
     95          6           0        6.230261    0.341874    7.308502
     96          6           0        4.738348    2.308532    6.781943
     97          1           0        4.948139    2.699398    7.785183
     98          1           0        3.870023    1.640787    6.866327
     99          8           0        6.056272   -0.835774    7.079443
    100          6           0        4.420805    3.449565    5.810498
    101          1           0        4.343216    3.052371    4.794714
    102          1           0        5.251299    4.166666    5.794710
    103          6           0        3.142325    4.224675    6.154979
    104          1           0        3.009148    5.047535    5.444444
    105          1           0        3.222297    4.669908    7.152743
    106          7           0        1.909401    3.425183    6.153159
    107          1           0        1.531319    3.143758    7.045969
    108          7           0        1.541182    3.474340    3.838499
    109          1           0        0.818091    3.298044    3.111916
    110          1           0        2.507985    3.296463    3.579774
    111          7           0       -0.168476    2.861677    5.249955
    112          1           0       -0.632795    3.021358    6.132461
    113          1           0       -0.732489    2.743800    4.365905
    114          6           0        1.099286    3.252174    5.080688
    115          8           0        6.657881    0.815018    8.495342
    116          1           0        6.786420    0.043036    9.079501
 ---------------------------------------------------------------------

 SCF Done:  E(RB3LYP) =  -2782.30851539     A.U. after    1 cycles

 Alpha  occ. eigenvalues --  -19.29852 -19.26558 -19.25468 -19.21012 -19.20434
 Alpha  occ. eigenvalues --  -19.18857 -19.18725 -19.17932 -19.17241 -19.11533
 Alpha  occ. eigenvalues --  -19.09704 -14.58587 -14.48289 -14.44477 -14.43820
 Alpha  occ. eigenvalues --  -14.43215 -14.42826 -14.42209 -14.41997 -14.41155
 Alpha  occ. eigenvalues --  -14.40518 -10.42577 -10.39875 -10.39314 -10.38940
 Alpha  occ. eigenvalues --  -10.38831 -10.37431 -10.35599 -10.35454 -10.35136
 Alpha  occ. eigenvalues --  -10.34637 -10.33106 -10.30595 -10.30433 -10.30402
 Alpha  occ. eigenvalues --  -10.30308 -10.29977 -10.29879 -10.29165 -10.28662
 Alpha  occ. eigenvalues --  -10.27225 -10.25942 -10.25264 -10.25121 -10.24955
 Alpha  occ. eigenvalues --  -10.24882 -10.24842 -10.24791 -10.23744 -10.23386
 Alpha  occ. eigenvalues --  -10.23299 -10.23214 -10.22822 -10.22429 -10.22304
 Alpha  occ. eigenvalues --  -10.22098 -10.20218  -1.18488  -1.17521  -1.16864
 Alpha  occ. eigenvalues --   -1.12563  -1.12068  -1.11062  -1.10365  -1.09693
 Alpha  occ. eigenvalues --   -1.09188  -1.08499  -1.07510  -1.04867  -1.03519
 Alpha  occ. eigenvalues --   -1.00308  -0.99515  -0.99330  -0.98911  -0.98569
 Alpha  occ. eigenvalues --   -0.97728  -0.94749  -0.94203  -0.92758  -0.90426
 Alpha  occ. eigenvalues --   -0.87628  -0.87171  -0.86332  -0.85590  -0.84267
 Alpha  occ. eigenvalues --   -0.83649  -0.82397  -0.81788  -0.80004  -0.79894
 Alpha  occ. eigenvalues --   -0.78551  -0.76619  -0.76063  -0.75182  -0.73805
 Alpha  occ. eigenvalues --   -0.73593  -0.73289  -0.73063  -0.72389  -0.71135
 Alpha  occ. eigenvalues --   -0.70987  -0.70186  -0.69682  -0.68112  -0.67233
 Alpha  occ. eigenvalues --   -0.66928  -0.66081  -0.65913  -0.65253  -0.65011
 Alpha  occ. eigenvalues --   -0.64794  -0.64762  -0.64700  -0.64222  -0.63629
 Alpha  occ. eigenvalues --   -0.63029  -0.62240  -0.61656  -0.60719  -0.60137
 Alpha  occ. eigenvalues --   -0.59357  -0.58303  -0.57991  -0.57551  -0.56610
 Alpha  occ. eigenvalues --   -0.56408  -0.56308  -0.56078  -0.55842  -0.55540
 Alpha  occ. eigenvalues --   -0.55185  -0.54921  -0.54758  -0.54278  -0.53892
 Alpha  occ. eigenvalues --   -0.53655  -0.53586  -0.53180  -0.52869  -0.52560
 Alpha  occ. eigenvalues --   -0.51969  -0.51620  -0.51283  -0.51247  -0.51070
 Alpha  occ. eigenvalues --   -0.50725  -0.50251  -0.50133  -0.49821  -0.49649
 Alpha  occ. eigenvalues --   -0.49555  -0.49169  -0.48997  -0.48538  -0.48344
 Alpha  occ. eigenvalues --   -0.48287  -0.47974  -0.47746  -0.47549  -0.47354
 Alpha  occ. eigenvalues --   -0.47024  -0.46584  -0.46488  -0.46139  -0.45853
 Alpha  occ. eigenvalues --   -0.45598  -0.45365  -0.45042  -0.44967  -0.44881
 Alpha  occ. eigenvalues --   -0.44723  -0.44093  -0.43786  -0.43630  -0.43421
 Alpha  occ. eigenvalues --   -0.43313  -0.43126  -0.42908  -0.42590  -0.42189
 Alpha  occ. eigenvalues --   -0.42142  -0.42022  -0.41305  -0.41097  -0.40754
 Alpha  occ. eigenvalues --   -0.40481  -0.40379  -0.40269  -0.39865  -0.38954
 Alpha  occ. eigenvalues --   -0.38739  -0.38614  -0.38409  -0.38150  -0.38068
 Alpha  occ. eigenvalues --   -0.37825  -0.37375  -0.36243  -0.34728  -0.34643
 Alpha  occ. eigenvalues --   -0.34201  -0.33791  -0.33431  -0.33170  -0.32850
 Alpha  occ. eigenvalues --   -0.32724  -0.31766  -0.31542  -0.31461  -0.31145
 Alpha  occ. eigenvalues --   -0.30798  -0.29247  -0.28754  -0.26698  -0.26410
 Alpha  occ. eigenvalues --   -0.23709
 Alpha virt. eigenvalues --   -0.11488  -0.09364  -0.06475  -0.05884  -0.05574
 Alpha virt. eigenvalues --   -0.05287  -0.04858  -0.04503  -0.04205  -0.03919
 Alpha virt. eigenvalues --   -0.03706  -0.03509  -0.03357  -0.01598  -0.00768

 Mulliken charges:
               1
     1  N   -0.749547
     2  H    0.415145
     3  H    0.425423
     4  H    0.428662
     5  C   -0.122864
     6  H    0.213820
     7  C    0.645483
     8  C    0.126769
     9  H    0.172083
    10  O   -0.539873
    11  C   -0.486213
    12  H    0.194051
    13  H    0.181230
    14  H    0.182877
    15  O   -0.648243
    16  H    0.433119
    17  N   -0.604214
    18  H    0.374131
    19  C   -0.070005
    20  H    0.192965
    21  C    0.638399
    22  C   -0.348926
    23  H    0.170151
    24  H    0.158933
    25  O   -0.566714
    26  C    0.153972
    27  C   -0.192488
    28  H    0.121799
    29  C   -0.200346
    30  H    0.121030
    31  C   -0.134646
    32  H    0.187137
    33  C   -0.122288
    34  H    0.135895
    35  C   -0.131024
    36  H    0.167337
    37  N   -0.615530
    38  H    0.376843
    39  C   -0.029573
    40  H    0.177396
    41  C    0.622303
    42  C   -0.455675
    43  H    0.164524
    44  H    0.164415
    45  H    0.179025
    46  O   -0.533665
    47  N   -0.611177
    48  H    0.351719
    49  C   -0.066500
    50  H    0.180330
    51  C    0.624657
    52  C   -0.259748
    53  H    0.133948
    54  H    0.147709
    55  O   -0.542444
    56  C   -0.352828
    57  H    0.160312
    58  H    0.149220
    59  C    0.587557
    60  O   -0.547043
    61  O   -0.639847
    62  N   -0.591552
    63  H    0.341540
    64  C   -0.057073
    65  H    0.168448
    66  C    0.669403
    67  C   -0.474390
    68  H    0.185231
    69  H    0.164235
    70  H    0.173765
    71  O   -0.564355
    72  N   -0.604643
    73  H    0.344763
    74  C   -0.016337
    75  H    0.163661
    76  C    0.641369
    77  C   -0.308125
    78  H    0.145867
    79  H    0.163628
    80  O   -0.534455
    81  C   -0.089087
    82  H    0.143584
    83  C   -0.447612
    84  H    0.145932
    85  H    0.134601
    86  H    0.161307
    87  C   -0.445941
    88  H    0.143635
    89  H    0.154209
    90  H    0.149903
    91  N   -0.604246
    92  H    0.349046
    93  C   -0.050273
    94  H    0.207966
    95  C    0.585784
    96  C   -0.268376
    97  H    0.161921
    98  H    0.142654
    99  O   -0.465022
   100  C   -0.286308
   101  H    0.193642
   102  H    0.163473
   103  C   -0.162897
   104  H    0.181737
   105  H    0.163173
   106  N   -0.601747
   107  H    0.341361
   108  N   -0.827138
   109  H    0.428821
   110  H    0.398143
   111  N   -0.775095
   112  H    0.336223
   113  H    0.419664
   114  C    0.754202
   115  O   -0.560220
   116  H    0.423054
 Sum of Mulliken charges =   1.00000

 Dipole moment (field-independent basis, Debye):
    X=             -4.3208    Y=             -5.6140    Z=            -22.6818  Tot=             23.7624
 Quadrupole moment (field-independent basis, Debye-Ang):
   XX=           -201.9737   YY=           -281.4553   ZZ=             82.0981
   XY=             70.3694   XZ=            204.1107   YZ=            119.0851

 Normal termination of Gaussian 16 at Thu Jun 30 14:46:17 2022.
