 Gaussian 16, Revision C.01,
 Gaussian 16:  ES64L-G16RevC.01  3-Jul-2019

 -------------------------------------------------------------------
 # B3LYP/6-31G* guess=read geom=check nosymm integral(ultrafinegrid)
 -------------------------------------------------------------------

 ------------------------------------------------------
 Candidate Structure: Conf:950 Charge calc in gas phase
 ------------------------------------------------------
 Structure from the checkpoint file:  "conf-950.chk"
 Charge =  1 Multiplicity = 1

                          Input orientation:
 ---------------------------------------------------------------------
 Center     Atomic      Atomic             Coordinates (Angstroms)
 Number     Number       Type             X           Y           Z
 ---------------------------------------------------------------------
      1          7           0       -5.670291   -6.285570   -2.943865
      2          1           0       -5.529344   -5.897099   -1.996930
      3          1           0       -6.684057   -6.370215   -3.116171
      4          1           0       -5.252808   -7.214913   -2.996260
      5          6           0       -5.151856   -5.381625   -4.010394
      6          1           0       -4.078415   -5.542950   -4.141067
      7          6           0       -5.407540   -3.934895   -3.572541
      8          6           0       -5.909252   -5.664768   -5.316773
      9          1           0       -5.682987   -4.862383   -6.029154
     10          8           0       -6.530628   -3.427044   -3.685364
     11          6           0       -5.557985   -7.002671   -5.935151
     12          1           0       -4.497146   -7.046771   -6.200037
     13          1           0       -6.151192   -7.155997   -6.838403
     14          1           0       -5.778299   -7.826113   -5.250671
     15          8           0       -7.304563   -5.674246   -5.030424
     16          1           0       -7.508997   -4.783319   -4.697678
     17          7           0       -4.355836   -3.322132   -3.014650
     18          1           0       -3.426695   -3.721392   -3.057473
     19          6           0       -4.451158   -1.996709   -2.427096
     20          1           0       -5.433365   -1.603704   -2.682271
     21          6           0       -3.325334   -1.160103   -3.025597
     22          6           0       -4.297300   -2.107102   -0.886499
     23          1           0       -3.308743   -2.520268   -0.655748
     24          1           0       -4.337656   -1.113651   -0.433278
     25          8           0       -2.183659   -1.634184   -3.014056
     26          6           0       -5.368961   -3.000067   -0.314617
     27          6           0       -6.622150   -2.503630    0.047798
     28          1           0       -6.816616   -1.438811   -0.033146
     29          6           0       -5.139012   -4.378490   -0.189419
     30          1           0       -4.161166   -4.779307   -0.447358
     31          6           0       -7.624309   -3.357092    0.513221
     32          1           0       -8.589816   -2.947349    0.790294
     33          6           0       -6.137737   -5.233918    0.273327
     34          1           0       -5.935829   -6.299305    0.355465
     35          6           0       -7.388865   -4.727157    0.623757
     36          1           0       -8.168230   -5.389625    0.984659
     37          7           0       -3.593870    0.063397   -3.537158
     38          1           0       -4.538522    0.414790   -3.531872
     39          6           0       -2.552889    0.842219   -4.236226
     40          1           0       -1.898211    0.100781   -4.705970
     41          6           0       -1.743461    1.602142   -3.164043
     42          6           0       -3.153533    1.769560   -5.276463
     43          1           0       -2.367870    2.362561   -5.747548
     44          1           0       -3.862156    2.459085   -4.811428
     45          1           0       -3.669381    1.187428   -6.044565
     46          8           0       -1.741798    2.827842   -3.029714
     47          7           0       -1.080427    0.766727   -2.347893
     48          1           0       -1.208409   -0.229939   -2.503184
     49          6           0       -0.537753    1.146872   -1.055000
     50          1           0       -1.085549    2.030473   -0.699128
     51          6           0        0.926532    1.562575   -1.169265
     52          6           0       -0.842464   -0.039363   -0.143176
     53          1           0       -0.373699    0.063854    0.837750
     54          1           0       -0.436463   -0.960997   -0.571312
     55          8           0        1.850314    0.985388   -0.588233
     56          6           0       -2.365478   -0.095125   -0.056057
     57          1           0       -2.746928    0.788926    0.459230
     58          1           0       -2.765085   -0.093559   -1.068423
     59          6           0       -3.004964   -1.362855    0.565249
     60          8           0       -2.469939   -2.448996    0.247422
     61          8           0       -4.068156   -1.153113    1.189720
     62          7           0        1.129732    2.635093   -1.969305
     63          1           0        0.320579    3.103927   -2.369849
     64          6           0        2.463621    3.160910   -2.223692
     65          1           0        3.138625    2.298221   -2.174601
     66          6           0        2.873837    4.134251   -1.106027
     67          6           0        2.526252    3.814566   -3.595318
     68          1           0        3.532741    4.189267   -3.790915
     69          1           0        1.837068    4.660781   -3.650487
     70          1           0        2.260225    3.084248   -4.362922
     71          8           0        3.123902    5.325726   -1.311719
     72          7           0        2.921903    3.586804    0.131269
     73          1           0        2.819576    2.578466    0.218108
     74          6           0        3.336629    4.377717    1.281337
     75          1           0        2.929657    5.378936    1.115980
     76          6           0        4.864413    4.471299    1.318357
     77          6           0        2.764959    3.803018    2.571935
     78          1           0        1.681233    3.727823    2.432383
     79          1           0        3.149932    2.788444    2.710613
     80          8           0        5.579098    3.762312    2.014423
     81          6           0        3.047728    4.623636    3.843776
     82          1           0        4.110691    4.511128    4.082707
     83          6           0        2.761707    6.115080    3.652311
     84          1           0        1.765125    6.268053    3.221806
     85          1           0        3.496963    6.590211    2.995412
     86          1           0        2.795518    6.638342    4.612312
     87          6           0        2.227433    4.046986    4.999032
     88          1           0        1.156944    4.177550    4.811990
     89          1           0        2.469600    4.545733    5.941891
     90          1           0        2.422054    2.978024    5.125068
     91          7           0        5.392596    5.408071    0.485563
     92          1           0        4.792954    5.860028   -0.195898
     93          6           0        6.819385    5.642093    0.500197
     94          1           0        7.350763    4.732743    0.192826
     95          6           0        7.251506    5.983819    1.922762
     96          6           0        7.154371    6.802128   -0.447483
     97          1           0        6.612812    7.681855   -0.091131
     98          1           0        6.752110    6.542926   -1.433220
     99          8           0        6.618831    6.656724    2.698585
    100          6           0        8.646207    7.097385   -0.558065
    101          1           0        9.188314    6.191916   -0.848476
    102          1           0        9.038308    7.401016    0.412454
    103          6           0        8.958148    8.185679   -1.585196
    104          1           0        8.663520    7.856558   -2.584189
    105          1           0       10.034050    8.382829   -1.633559
    106          7           0        8.249774    9.464726   -1.363870
    107          1           0        7.308627    9.494155   -1.733803
    108          7           0        9.486841   10.022402    0.532025
    109          1           0        9.787961   10.750417    1.162971
    110          1           0       10.207462    9.382115    0.235455
    111          7           0        7.589378   11.255549   -0.043444
    112          1           0        7.019131   11.591450   -0.808835
    113          1           0        7.871251   11.970734    0.612486
    114          6           0        8.458504   10.251817   -0.302286
    115          8           0        8.484457    5.493668    2.196746
    116          1           0        8.683510    5.762492    3.106429
 ---------------------------------------------------------------------

 SCF Done:  E(RB3LYP) =  -2782.03475949     A.U. after    1 cycles

 Alpha  occ. eigenvalues --  -19.27195 -19.23442 -19.21295 -19.20110 -19.17431
 Alpha  occ. eigenvalues --  -19.17155 -19.17112 -19.15843 -19.15635 -19.06602
 Alpha  occ. eigenvalues --  -19.06380 -14.56433 -14.55369 -14.55049 -14.54938
 Alpha  occ. eigenvalues --  -14.43919 -14.42525 -14.41633 -14.40391 -14.39756
 Alpha  occ. eigenvalues --  -14.38391 -10.51474 -10.39393 -10.38050 -10.37521
 Alpha  occ. eigenvalues --  -10.35768 -10.34331 -10.34271 -10.33670 -10.33589
 Alpha  occ. eigenvalues --  -10.32395 -10.32223 -10.32010 -10.31734 -10.30605
 Alpha  occ. eigenvalues --  -10.28700 -10.28009 -10.27447 -10.27153 -10.26734
 Alpha  occ. eigenvalues --  -10.25921 -10.25741 -10.23367 -10.22960 -10.22539
 Alpha  occ. eigenvalues --  -10.22086 -10.22066 -10.21633 -10.21603 -10.21429
 Alpha  occ. eigenvalues --  -10.21252 -10.20840 -10.20581 -10.20221 -10.19478
 Alpha  occ. eigenvalues --  -10.17108 -10.13812  -1.20021  -1.18155  -1.14081
 Alpha  occ. eigenvalues --   -1.10891  -1.10069  -1.09826  -1.09786  -1.09153
 Alpha  occ. eigenvalues --   -1.09038  -1.08577  -1.08393  -1.07635  -1.06986
 Alpha  occ. eigenvalues --   -1.03901  -1.00254  -0.99140  -0.98448  -0.97478
 Alpha  occ. eigenvalues --   -0.96760  -0.95809  -0.94043  -0.93118  -0.88855
 Alpha  occ. eigenvalues --   -0.87905  -0.87159  -0.85093  -0.84025  -0.82853
 Alpha  occ. eigenvalues --   -0.82589  -0.81923  -0.80340  -0.79810  -0.79624
 Alpha  occ. eigenvalues --   -0.77996  -0.77343  -0.77250  -0.76670  -0.74879
 Alpha  occ. eigenvalues --   -0.73680  -0.72330  -0.71802  -0.71052  -0.70696
 Alpha  occ. eigenvalues --   -0.70589  -0.69944  -0.69257  -0.68908  -0.68382
 Alpha  occ. eigenvalues --   -0.68146  -0.67481  -0.66800  -0.66300  -0.65168
 Alpha  occ. eigenvalues --   -0.64703  -0.63750  -0.63517  -0.63419  -0.62937
 Alpha  occ. eigenvalues --   -0.62632  -0.62107  -0.61743  -0.61517  -0.61141
 Alpha  occ. eigenvalues --   -0.60090  -0.59900  -0.59508  -0.58768  -0.57699
 Alpha  occ. eigenvalues --   -0.57550  -0.57207  -0.56893  -0.55706  -0.55408
 Alpha  occ. eigenvalues --   -0.55195  -0.54608  -0.54357  -0.54186  -0.53656
 Alpha  occ. eigenvalues --   -0.53251  -0.52917  -0.52401  -0.52294  -0.52147
 Alpha  occ. eigenvalues --   -0.51582  -0.51187  -0.50809  -0.49996  -0.49502
 Alpha  occ. eigenvalues --   -0.48850  -0.48801  -0.48464  -0.47940  -0.47837
 Alpha  occ. eigenvalues --   -0.47714  -0.47524  -0.47463  -0.47029  -0.46936
 Alpha  occ. eigenvalues --   -0.46841  -0.46628  -0.46392  -0.46117  -0.45937
 Alpha  occ. eigenvalues --   -0.45806  -0.45718  -0.45500  -0.44853  -0.44688
 Alpha  occ. eigenvalues --   -0.44637  -0.44237  -0.44088  -0.43675  -0.43618
 Alpha  occ. eigenvalues --   -0.43517  -0.43327  -0.42907  -0.42896  -0.42823
 Alpha  occ. eigenvalues --   -0.42274  -0.42104  -0.42059  -0.41409  -0.40987
 Alpha  occ. eigenvalues --   -0.40902  -0.40713  -0.40502  -0.40184  -0.39592
 Alpha  occ. eigenvalues --   -0.39525  -0.39071  -0.38641  -0.37703  -0.37402
 Alpha  occ. eigenvalues --   -0.36776  -0.36538  -0.36348  -0.36068  -0.35761
 Alpha  occ. eigenvalues --   -0.35344  -0.35110  -0.34964  -0.34202  -0.33722
 Alpha  occ. eigenvalues --   -0.32888  -0.32851  -0.32259  -0.31664  -0.31125
 Alpha  occ. eigenvalues --   -0.30984  -0.29215  -0.28910  -0.28468  -0.28017
 Alpha  occ. eigenvalues --   -0.27989  -0.27469  -0.24823  -0.22427  -0.20836
 Alpha  occ. eigenvalues --   -0.18583
 Alpha virt. eigenvalues --   -0.16152  -0.11329  -0.08792  -0.07656  -0.07047
 Alpha virt. eigenvalues --   -0.06245  -0.05675  -0.05275  -0.04285  -0.04071
 Alpha virt. eigenvalues --   -0.02998  -0.02883  -0.02843  -0.02118  -0.01958

 Mulliken charges:
               1
     1  N   -0.738102
     2  H    0.412580
     3  H    0.416465
     4  H    0.408258
     5  C   -0.143480
     6  H    0.194255
     7  C    0.626826
     8  C    0.117514
     9  H    0.176937
    10  O   -0.534889
    11  C   -0.461250
    12  H    0.164721
    13  H    0.204018
    14  H    0.136183
    15  O   -0.638257
    16  H    0.436150
    17  N   -0.570760
    18  H    0.352190
    19  C   -0.075023
    20  H    0.157116
    21  C    0.629162
    22  C   -0.517606
    23  H    0.331734
    24  H    0.217578
    25  O   -0.559176
    26  C    0.271354
    27  C   -0.147280
    28  H    0.133580
    29  C   -0.225518
    30  H    0.119073
    31  C   -0.130037
    32  H    0.131108
    33  C   -0.167732
    34  H    0.103625
    35  C   -0.135005
    36  H    0.124676
    37  N   -0.598666
    38  H    0.344815
    39  C   -0.067086
    40  H    0.183812
    41  C    0.620350
    42  C   -0.462537
    43  H    0.176084
    44  H    0.170987
    45  H    0.151622
    46  O   -0.554188
    47  N   -0.616154
    48  H    0.401073
    49  C   -0.062018
    50  H    0.175239
    51  C    0.627035
    52  C   -0.284057
    53  H    0.156478
    54  H    0.171075
    55  O   -0.552606
    56  C   -0.317713
    57  H    0.137333
    58  H    0.121532
    59  C    0.518126
    60  O   -0.590634
    61  O   -0.558579
    62  N   -0.602612
    63  H    0.365947
    64  C   -0.058087
    65  H    0.183212
    66  C    0.625486
    67  C   -0.450999
    68  H    0.149549
    69  H    0.167689
    70  H    0.157718
    71  O   -0.568236
    72  N   -0.617052
    73  H    0.379611
    74  C   -0.062922
    75  H    0.171901
    76  C    0.653166
    77  C   -0.274807
    78  H    0.143928
    79  H    0.161160
    80  O   -0.530271
    81  C   -0.078922
    82  H    0.153245
    83  C   -0.458982
    84  H    0.138751
    85  H    0.145247
    86  H    0.143940
    87  C   -0.446360
    88  H    0.142889
    89  H    0.141884
    90  H    0.150445
    91  N   -0.644463
    92  H    0.363438
    93  C    0.029996
    94  H    0.186131
    95  C    0.593222
    96  C   -0.327638
    97  H    0.151976
    98  H    0.169124
    99  O   -0.459748
   100  C   -0.282101
   101  H    0.194351
   102  H    0.162901
   103  C   -0.208193
   104  H    0.209387
   105  H    0.187329
   106  N   -0.564367
   107  H    0.376826
   108  N   -0.719697
   109  H    0.386165
   110  H    0.393452
   111  N   -0.726030
   112  H    0.387981
   113  H    0.383115
   114  C    0.772523
   115  O   -0.570541
   116  H    0.416039
 Sum of Mulliken charges =   1.00000

 Dipole moment (field-independent basis, Debye):
    X=             28.9028    Y=             30.2040    Z=            -17.3592  Tot=             45.2659
 Quadrupole moment (field-independent basis, Debye-Ang):
   XX=             56.3567   YY=            240.8313   ZZ=           -282.2017
   XY=            467.7631   XZ=             39.2242   YZ=             45.4121

 Normal termination of Gaussian 16 at Thu Jun 30 14:46:04 2022.
