 Gaussian 16, Revision C.01,
 Gaussian 16:  ES64L-G16RevC.01  3-Jul-2019

 -------------------------------------------------------------------
 # B3LYP/6-31G* guess=read geom=check nosymm integral(ultrafinegrid)
 -------------------------------------------------------------------

 ------------------------------------------------------
 Candidate Structure: Conf:304 Charge calc in gas phase
 ------------------------------------------------------
 Structure from the checkpoint file:  "conf-304.chk"
 Charge =  1 Multiplicity = 1

                          Input orientation:
 ---------------------------------------------------------------------
 Center     Atomic      Atomic             Coordinates (Angstroms)
 Number     Number       Type             X           Y           Z
 ---------------------------------------------------------------------
      1          7           0       -7.855269   -2.621953   -7.422914
      2          1           0       -8.693292   -2.894061   -6.901803
      3          1           0       -7.815555   -1.573491   -7.455701
      4          1           0       -7.854835   -3.062025   -8.359256
      5          6           0       -6.574011   -3.003127   -6.731965
      6          1           0       -6.754652   -3.892923   -6.123606
      7          6           0       -6.219038   -1.748101   -5.899212
      8          6           0       -5.528855   -3.291042   -7.856284
      9          1           0       -5.233007   -2.325875   -8.283729
     10          8           0       -6.695357   -0.673209   -6.279684
     11          6           0       -4.303034   -4.039327   -7.350264
     12          1           0       -3.765230   -3.476260   -6.580747
     13          1           0       -3.613846   -4.209065   -8.182477
     14          1           0       -4.583243   -5.013089   -6.926785
     15          8           0       -6.202154   -3.977308   -8.914882
     16          1           0       -6.055374   -4.933817   -8.826314
     17          7           0       -5.408850   -1.939503   -4.860125
     18          1           0       -4.923249   -2.827324   -4.728736
     19          6           0       -4.798489   -0.869306   -4.076583
     20          1           0       -4.870144    0.057694   -4.652049
     21          6           0       -3.323662   -1.304761   -3.898071
     22          6           0       -5.497841   -0.692923   -2.699358
     23          1           0       -5.313252   -1.595756   -2.105102
     24          1           0       -5.000213    0.133953   -2.179097
     25          8           0       -3.002463   -2.478007   -4.133826
     26          6           0       -6.985685   -0.433968   -2.802154
     27          6           0       -7.905565   -1.466623   -2.578388
     28          1           0       -7.543868   -2.453281   -2.295893
     29          6           0       -7.472296    0.838224   -3.132262
     30          1           0       -6.774516    1.656308   -3.297380
     31          6           0       -9.279312   -1.236299   -2.682779
     32          1           0       -9.979653   -2.043503   -2.483483
     33          6           0       -8.842729    1.071944   -3.239567
     34          1           0       -9.202092    2.066903   -3.486659
     35          6           0       -9.750991    0.034279   -3.016020
     36          1           0      -10.819210    0.220160   -3.085390
     37          7           0       -2.489448   -0.358014   -3.459148
     38          1           0       -2.801470    0.584788   -3.221211
     39          6           0       -1.093229   -0.583376   -3.101412
     40          1           0       -1.027987   -1.494289   -2.494387
     41          6           0       -0.704564    0.645004   -2.244976
     42          6           0       -0.193979   -0.734708   -4.339579
     43          1           0        0.845208   -0.915106   -4.047066
     44          1           0       -0.227252    0.172389   -4.951635
     45          1           0       -0.534432   -1.583487   -4.938406
     46          8           0       -1.467617    1.613956   -2.169962
     47          7           0        0.485291    0.576322   -1.630732
     48          1           0        1.111425   -0.218165   -1.737170
     49          6           0        1.058637    1.684691   -0.873986
     50          1           0        0.881833    2.608492   -1.433029
     51          6           0        2.572590    1.397290   -0.828915
     52          6           0        0.426269    1.830094    0.551678
     53          1           0        1.153194    1.522691    1.314170
     54          1           0       -0.390807    1.103320    0.599355
     55          8           0        3.010116    0.251158   -1.030840
     56          6           0       -0.146771    3.219284    0.901816
     57          1           0       -0.639167    3.637759    0.013312
     58          1           0       -0.925062    3.106197    1.662091
     59          6           0        0.861865    4.248799    1.443935
     60          8           0        0.499623    4.959965    2.406790
     61          8           0        2.009525    4.307901    0.870453
     62          7           0        3.327721    2.473984   -0.563823
     63          1           0        2.824641    3.288262   -0.143215
     64          6           0        4.767753    2.366952   -0.328868
     65          1           0        5.143874    1.569841   -0.976912
     66          6           0        4.963310    1.952607    1.139855
     67          6           0        5.465377    3.684347   -0.652053
     68          1           0        6.542585    3.598780   -0.478574
     69          1           0        5.080366    4.493132   -0.025029
     70          1           0        5.297957    3.946113   -1.700657
     71          8           0        5.094472    2.772999    2.055853
     72          7           0        4.914256    0.622884    1.368259
     73          1           0        4.659397    0.028893    0.585872
     74          6           0        4.865344    0.065762    2.715266
     75          1           0        3.922097    0.371852    3.189309
     76          6           0        6.040663    0.603634    3.560600
     77          6           0        4.949602   -1.470436    2.664135
     78          1           0        5.899253   -1.729397    2.180279
     79          1           0        5.018952   -1.832128    3.698951
     80          8           0        7.202602    0.532024    3.189229
     81          6           0        3.778397   -2.195313    1.965646
     82          1           0        3.670251   -1.807513    0.941722
     83          6           0        4.097928   -3.694536    1.858469
     84          1           0        4.207576   -4.144625    2.853438
     85          1           0        5.031078   -3.866911    1.310027
     86          1           0        3.296939   -4.231091    1.337191
     87          6           0        2.439786   -1.975275    2.686785
     88          1           0        2.492144   -2.321273    3.727381
     89          1           0        1.637595   -2.534696    2.192088
     90          1           0        2.140847   -0.920697    2.696988
     91          7           0        5.661875    1.091562    4.779863
     92          1           0        4.675039    1.208099    4.962813
     93          6           0        6.590164    1.669327    5.731467
     94          1           0        7.590364    1.422866    5.351529
     95          6           0        6.494501    1.025698    7.118321
     96          6           0        6.436107    3.203092    5.828309
     97          1           0        6.888875    3.541078    6.765062
     98          1           0        5.361208    3.425954    5.893272
     99          8           0        6.931470    1.530718    8.128179
    100          6           0        7.055049    3.946618    4.631686
    101          1           0        7.004860    3.329369    3.728455
    102          1           0        8.119311    4.128314    4.822983
    103          6           0        6.382884    5.293787    4.333606
    104          1           0        7.017703    5.891063    3.665766
    105          1           0        6.257532    5.875068    5.252461
    106          7           0        5.079904    5.081055    3.694724
    107          1           0        5.064123    4.372237    2.956289
    108          7           0        3.821200    6.669801    4.868432
    109          1           0        2.952371    7.181184    4.931583
    110          1           0        4.269645    6.451789    5.745779
    111          7           0        3.025781    5.769467    2.887469
    112          1           0        3.085361    5.168266    2.046694
    113          1           0        2.014592    5.869527    3.073730
    114          6           0        3.967851    5.819614    3.814246
    115          8           0        5.894949   -0.185472    7.103375
    116          1           0        5.933326   -0.511144    8.023350
 ---------------------------------------------------------------------

 SCF Done:  E(RB3LYP) =  -2782.31066198     A.U. after    1 cycles

 Alpha  occ. eigenvalues --  -19.30317 -19.25887 -19.25216 -19.21523 -19.19320
 Alpha  occ. eigenvalues --  -19.18869 -19.18326 -19.17850 -19.16315 -19.12912
 Alpha  occ. eigenvalues --  -19.11806 -14.59223 -14.48939 -14.44781 -14.44050
 Alpha  occ. eigenvalues --  -14.42892 -14.42362 -14.41832 -14.41511 -14.39887
 Alpha  occ. eigenvalues --  -14.39880 -10.43056 -10.40171 -10.39580 -10.39141
 Alpha  occ. eigenvalues --  -10.38523 -10.37515 -10.35859 -10.34715 -10.34241
 Alpha  occ. eigenvalues --  -10.34188 -10.33850 -10.31506 -10.31076 -10.30295
 Alpha  occ. eigenvalues --  -10.29537 -10.29477 -10.29088 -10.28964 -10.28787
 Alpha  occ. eigenvalues --  -10.28585 -10.27872 -10.26993 -10.26854 -10.26698
 Alpha  occ. eigenvalues --  -10.26615 -10.26555 -10.25698 -10.24822 -10.24542
 Alpha  occ. eigenvalues --  -10.24502 -10.24163 -10.23840 -10.23023 -10.22726
 Alpha  occ. eigenvalues --  -10.22296 -10.21349  -1.18959  -1.17361  -1.16088
 Alpha  occ. eigenvalues --   -1.13424  -1.12853  -1.10749  -1.10086  -1.08960
 Alpha  occ. eigenvalues --   -1.08226  -1.07603  -1.06953  -1.05607  -1.05311
 Alpha  occ. eigenvalues --   -1.01411  -0.98973  -0.98519  -0.98215  -0.97609
 Alpha  occ. eigenvalues --   -0.97467  -0.96130  -0.94944  -0.93744  -0.92787
 Alpha  occ. eigenvalues --   -0.88822  -0.86739  -0.85692  -0.85613  -0.85061
 Alpha  occ. eigenvalues --   -0.83694  -0.82245  -0.82147  -0.81738  -0.81096
 Alpha  occ. eigenvalues --   -0.79233  -0.77731  -0.76196  -0.75423  -0.74548
 Alpha  occ. eigenvalues --   -0.73858  -0.73761  -0.73428  -0.71936  -0.71498
 Alpha  occ. eigenvalues --   -0.70709  -0.70318  -0.69531  -0.68325  -0.67998
 Alpha  occ. eigenvalues --   -0.67505  -0.66971  -0.66663  -0.65896  -0.65595
 Alpha  occ. eigenvalues --   -0.65180  -0.64853  -0.64326  -0.64114  -0.63327
 Alpha  occ. eigenvalues --   -0.62792  -0.62343  -0.61392  -0.61097  -0.60699
 Alpha  occ. eigenvalues --   -0.59306  -0.58922  -0.58726  -0.58308  -0.58132
 Alpha  occ. eigenvalues --   -0.57415  -0.57053  -0.56417  -0.56141  -0.55604
 Alpha  occ. eigenvalues --   -0.54781  -0.54540  -0.54107  -0.53919  -0.53809
 Alpha  occ. eigenvalues --   -0.53557  -0.53277  -0.53212  -0.53002  -0.52764
 Alpha  occ. eigenvalues --   -0.52660  -0.52277  -0.51870  -0.51630  -0.51194
 Alpha  occ. eigenvalues --   -0.51074  -0.50789  -0.50733  -0.50444  -0.50070
 Alpha  occ. eigenvalues --   -0.49786  -0.49673  -0.49426  -0.48959  -0.48638
 Alpha  occ. eigenvalues --   -0.48342  -0.48066  -0.47965  -0.47860  -0.47583
 Alpha  occ. eigenvalues --   -0.46882  -0.46733  -0.46437  -0.46386  -0.46305
 Alpha  occ. eigenvalues --   -0.45683  -0.45317  -0.45180  -0.45022  -0.44626
 Alpha  occ. eigenvalues --   -0.44359  -0.44252  -0.43888  -0.43767  -0.43589
 Alpha  occ. eigenvalues --   -0.43494  -0.43391  -0.43284  -0.43069  -0.42920
 Alpha  occ. eigenvalues --   -0.42192  -0.42126  -0.41781  -0.41359  -0.41257
 Alpha  occ. eigenvalues --   -0.40925  -0.40775  -0.40618  -0.40454  -0.40229
 Alpha  occ. eigenvalues --   -0.40044  -0.38712  -0.38702  -0.37993  -0.37835
 Alpha  occ. eigenvalues --   -0.37633  -0.37447  -0.37111  -0.35741  -0.34789
 Alpha  occ. eigenvalues --   -0.34436  -0.33998  -0.33783  -0.33109  -0.32775
 Alpha  occ. eigenvalues --   -0.32382  -0.32217  -0.32158  -0.32083  -0.31456
 Alpha  occ. eigenvalues --   -0.30328  -0.29728  -0.29594  -0.28028  -0.27575
 Alpha  occ. eigenvalues --   -0.25980
 Alpha virt. eigenvalues --   -0.12106  -0.09827  -0.08704  -0.07897  -0.06713
 Alpha virt. eigenvalues --   -0.05323  -0.05024  -0.04701  -0.04531  -0.04343
 Alpha virt. eigenvalues --   -0.04167  -0.02549  -0.02516  -0.02424  -0.00969

 Mulliken charges:
               1
     1  N   -0.744781
     2  H    0.416140
     3  H    0.427382
     4  H    0.425210
     5  C   -0.141146
     6  H    0.200371
     7  C    0.654092
     8  C    0.129933
     9  H    0.193640
    10  O   -0.526492
    11  C   -0.515393
    12  H    0.209648
    13  H    0.205794
    14  H    0.162664
    15  O   -0.630668
    16  H    0.423793
    17  N   -0.589127
    18  H    0.365842
    19  C   -0.084085
    20  H    0.200653
    21  C    0.640009
    22  C   -0.368646
    23  H    0.166212
    24  H    0.183451
    25  O   -0.559228
    26  C    0.181045
    27  C   -0.199111
    28  H    0.123292
    29  C   -0.168003
    30  H    0.137783
    31  C   -0.141139
    32  H    0.137782
    33  C   -0.128018
    34  H    0.149527
    35  C   -0.133217
    36  H    0.145467
    37  N   -0.616905
    38  H    0.368102
    39  C   -0.043667
    40  H    0.182193
    41  C    0.623724
    42  C   -0.452081
    43  H    0.168348
    44  H    0.166109
    45  H    0.177709
    46  O   -0.545459
    47  N   -0.632683
    48  H    0.355867
    49  C   -0.020106
    50  H    0.191793
    51  C    0.581540
    52  C   -0.275090
    53  H    0.149008
    54  H    0.151959
    55  O   -0.577343
    56  C   -0.348042
    57  H    0.169050
    58  H    0.153089
    59  C    0.603156
    60  O   -0.580829
    61  O   -0.641507
    62  N   -0.616799
    63  H    0.417136
    64  C   -0.066937
    65  H    0.173722
    66  C    0.653192
    67  C   -0.457221
    68  H    0.163567
    69  H    0.168938
    70  H    0.164052
    71  O   -0.568301
    72  N   -0.608160
    73  H    0.371778
    74  C   -0.032917
    75  H    0.140864
    76  C    0.655355
    77  C   -0.293963
    78  H    0.171170
    79  H    0.154431
    80  O   -0.529511
    81  C   -0.095893
    82  H    0.142061
    83  C   -0.442444
    84  H    0.146525
    85  H    0.150177
    86  H    0.143403
    87  C   -0.450803
    88  H    0.144840
    89  H    0.145604
    90  H    0.146250
    91  N   -0.597302
    92  H    0.329752
    93  C   -0.070082
    94  H    0.223423
    95  C    0.582679
    96  C   -0.269507
    97  H    0.182354
    98  H    0.129575
    99  O   -0.456943
   100  C   -0.299934
   101  H    0.198498
   102  H    0.159884
   103  C   -0.144360
   104  H    0.176231
   105  H    0.149025
   106  N   -0.630598
   107  H    0.415494
   108  N   -0.750401
   109  H    0.366997
   110  H    0.355967
   111  N   -0.776127
   112  H    0.394828
   113  H    0.374543
   114  C    0.750056
   115  O   -0.560037
   116  H    0.417256
 Sum of Mulliken charges =   1.00000

 Dipole moment (field-independent basis, Debye):
    X=            -21.1300    Y=             -9.4381    Z=            -19.0618  Tot=             29.9818
 Quadrupole moment (field-independent basis, Debye-Ang):
   XX=           -107.4893   YY=           -251.6042   ZZ=           -102.8892
   XY=            122.9228   XZ=            214.0364   YZ=            121.0580

 Normal termination of Gaussian 16 at Thu Jun 30 14:46:08 2022.
