 Gaussian 16, Revision C.01,
 Gaussian 16:  ES64L-G16RevC.01  3-Jul-2019

 -------------------------------------------------------------------
 # B3LYP/6-31G* guess=read geom=check nosymm integral(ultrafinegrid)
 -------------------------------------------------------------------

 ------------------------------------------------------
 Candidate Structure: Conf:472 Charge calc in gas phase
 ------------------------------------------------------
 Structure from the checkpoint file:  "conf-472.chk"
 Charge =  1 Multiplicity = 1

                          Input orientation:
 ---------------------------------------------------------------------
 Center     Atomic      Atomic             Coordinates (Angstroms)
 Number     Number       Type             X           Y           Z
 ---------------------------------------------------------------------
      1          7           0       -2.300834   -4.242532   -5.456650
      2          1           0       -3.303904   -4.491852   -5.264577
      3          1           0       -2.302466   -3.489409   -6.173253
      4          1           0       -1.737821   -5.040237   -5.754052
      5          6           0       -1.843287   -3.564688   -4.190979
      6          1           0       -1.285125   -4.278177   -3.578530
      7          6           0       -3.190536   -3.173319   -3.521837
      8          6           0       -0.998981   -2.332993   -4.623342
      9          1           0       -0.836709   -1.694617   -3.749188
     10          8           0       -4.230558   -3.638012   -4.006085
     11          6           0        0.352303   -2.721771   -5.215522
     12          1           0        0.959117   -3.271868   -4.488256
     13          1           0        0.890520   -1.815527   -5.504441
     14          1           0        0.246187   -3.335703   -6.118569
     15          8           0       -1.751900   -1.655776   -5.621046
     16          1           0       -2.413818   -1.084852   -5.165286
     17          7           0       -3.126801   -2.326934   -2.492568
     18          1           0       -2.230659   -1.923067   -2.214806
     19          6           0       -4.286227   -1.528891   -2.110022
     20          1           0       -5.173118   -2.074852   -2.444036
     21          6           0       -4.169500   -0.207334   -2.931907
     22          6           0       -4.329183   -1.325989   -0.574931
     23          1           0       -3.540635   -0.620417   -0.294108
     24          1           0       -5.291332   -0.864755   -0.315799
     25          8           0       -3.530121   -0.182275   -3.993205
     26          6           0       -4.158435   -2.610925    0.210068
     27          6           0       -5.227470   -3.503239    0.363498
     28          1           0       -6.197586   -3.264918   -0.068780
     29          6           0       -2.921369   -2.927352    0.788079
     30          1           0       -2.076039   -2.248926    0.691780
     31          6           0       -5.065189   -4.691289    1.076240
     32          1           0       -5.905568   -5.370174    1.192349
     33          6           0       -2.759666   -4.114944    1.504148
     34          1           0       -1.796200   -4.336885    1.954510
     35          6           0       -3.829103   -4.999973    1.648784
     36          1           0       -3.704753   -5.920983    2.211694
     37          7           0       -4.723968    0.908902   -2.416486
     38          1           0       -5.154780    0.851169   -1.502544
     39          6           0       -4.335953    2.261991   -2.865145
     40          1           0       -4.008478    2.147618   -3.901707
     41          6           0       -3.128906    2.740414   -1.994405
     42          6           0       -5.509085    3.229718   -2.776968
     43          1           0       -5.192829    4.224136   -3.099608
     44          1           0       -5.867600    3.325962   -1.746927
     45          1           0       -6.330644    2.890337   -3.414278
     46          8           0       -3.172929    3.785930   -1.359498
     47          7           0       -2.087048    1.863955   -1.986170
     48          1           0       -2.151807    1.040968   -2.574006
     49          6           0       -1.035098    1.766171   -0.974314
     50          1           0       -0.284179    2.550335   -1.118059
     51          6           0       -0.365396    0.392860   -1.205739
     52          6           0       -1.622897    1.896325    0.460702
     53          1           0       -2.442916    1.172651    0.553317
     54          1           0       -2.073296    2.890276    0.518162
     55          8           0       -0.983294   -0.524283   -1.791154
     56          6           0       -0.667283    1.689114    1.652753
     57          1           0       -1.241692    1.866917    2.566290
     58          1           0       -0.319296    0.651056    1.680004
     59          6           0        0.551770    2.621366    1.668784
     60          8           0        0.549021    3.568110    2.518657
     61          8           0        1.499020    2.403853    0.861261
     62          7           0        0.886718    0.291349   -0.754407
     63          1           0        1.246293    1.096302   -0.188856
     64          6           0        1.604172   -0.980463   -0.668108
     65          1           0        0.965014   -1.734333   -1.132229
     66          6           0        1.654617   -1.346293    0.835582
     67          6           0        2.944742   -0.902121   -1.404952
     68          1           0        3.510827   -1.833309   -1.293754
     69          1           0        3.561839   -0.072008   -1.042379
     70          1           0        2.770797   -0.730459   -2.471643
     71          8           0        0.627401   -1.699813    1.415399
     72          7           0        2.845695   -1.183840    1.456161
     73          1           0        3.646873   -0.812610    0.958993
     74          6           0        2.990433   -1.178799    2.909171
     75          1           0        1.992491   -1.028794    3.328892
     76          6           0        3.917679    0.007731    3.217066
     77          6           0        3.591511   -2.508112    3.420540
     78          1           0        2.966938   -3.316415    3.018324
     79          1           0        4.586146   -2.615622    2.969002
     80          8           0        4.899238    0.229676    2.508093
     81          6           0        3.698506   -2.660083    4.951746
     82          1           0        4.264322   -1.804666    5.349115
     83          6           0        2.323565   -2.679264    5.638771
     84          1           0        1.711476   -3.509280    5.263587
     85          1           0        1.755699   -1.754996    5.479727
     86          1           0        2.433468   -2.806307    6.721205
     87          6           0        4.486874   -3.934239    5.291919
     88          1           0        3.970457   -4.827111    4.916598
     89          1           0        4.600865   -4.048065    6.375737
     90          1           0        5.488975   -3.916018    4.847984
     91          7           0        3.579985    0.775683    4.282427
     92          1           0        2.828277    0.485121    4.897412
     93          6           0        4.449124    1.817576    4.806674
     94          1           0        5.479485    1.578376    4.520566
     95          6           0        4.342134    1.766138    6.328112
     96          6           0        4.100319    3.235963    4.288863
     97          1           0        4.668514    3.960381    4.885521
     98          1           0        3.035286    3.418665    4.477783
     99          8           0        3.519582    1.116993    6.937390
    100          6           0        4.417467    3.438211    2.800083
    101          1           0        3.838732    2.746627    2.179578
    102          1           0        5.475050    3.221676    2.611701
    103          6           0        4.134824    4.868202    2.322139
    104          1           0        4.506555    4.990761    1.295926
    105          1           0        4.662554    5.591529    2.961141
    106          7           0        2.699329    5.135820    2.365887
    107          1           0        2.012668    4.331504    2.365731
    108          7           0        2.800957    7.466433    2.130187
    109          1           0        2.393463    8.338487    2.436156
    110          1           0        3.808712    7.438747    2.089593
    111          7           0        0.771959    6.379689    2.498575
    112          1           0        0.292388    5.473158    2.524165
    113          1           0        0.270541    7.157167    2.092353
    114          6           0        2.111597    6.315318    2.327494
    115          8           0        5.262600    2.548749    6.922321
    116          1           0        5.119733    2.474386    7.885568
 ---------------------------------------------------------------------

 SCF Done:  E(RB3LYP) =  -2782.33315180     A.U. after    2 cycles

 Alpha  occ. eigenvalues --  -19.27415 -19.25157 -19.24097 -19.22256 -19.21904
 Alpha  occ. eigenvalues --  -19.20643 -19.18572 -19.18361 -19.17939 -19.16065
 Alpha  occ. eigenvalues --  -19.15873 -14.56400 -14.47217 -14.46421 -14.45923
 Alpha  occ. eigenvalues --  -14.44791 -14.44456 -14.43276 -14.42611 -14.42549
 Alpha  occ. eigenvalues --  -14.42132 -10.41987 -10.40882 -10.39840 -10.39093
 Alpha  occ. eigenvalues --  -10.37455 -10.36938 -10.35693 -10.35631 -10.35528
 Alpha  occ. eigenvalues --  -10.35365 -10.33744 -10.33411 -10.31370 -10.31305
 Alpha  occ. eigenvalues --  -10.31148 -10.30545 -10.30450 -10.29647 -10.28550
 Alpha  occ. eigenvalues --  -10.28258 -10.26489 -10.26376 -10.25941 -10.25937
 Alpha  occ. eigenvalues --  -10.25438 -10.25234 -10.25026 -10.24867 -10.24861
 Alpha  occ. eigenvalues --  -10.24808 -10.24753 -10.24637 -10.24424 -10.23588
 Alpha  occ. eigenvalues --  -10.22678 -10.22417  -1.18423  -1.16803  -1.13861
 Alpha  occ. eigenvalues --   -1.13193  -1.11696  -1.10834  -1.10768  -1.10044
 Alpha  occ. eigenvalues --   -1.09917  -1.09611  -1.09396  -1.08917  -1.03719
 Alpha  occ. eigenvalues --   -1.02104  -1.00615  -0.99998  -0.99845  -0.99304
 Alpha  occ. eigenvalues --   -0.98889  -0.98791  -0.98743  -0.92034  -0.89771
 Alpha  occ. eigenvalues --   -0.87974  -0.87485  -0.86868  -0.86017  -0.84347
 Alpha  occ. eigenvalues --   -0.83630  -0.83292  -0.83155  -0.80362  -0.80093
 Alpha  occ. eigenvalues --   -0.79967  -0.78117  -0.76342  -0.74173  -0.73487
 Alpha  occ. eigenvalues --   -0.73290  -0.72644  -0.72247  -0.71882  -0.71740
 Alpha  occ. eigenvalues --   -0.71513  -0.70469  -0.69457  -0.69212  -0.68826
 Alpha  occ. eigenvalues --   -0.68220  -0.67849  -0.67174  -0.66466  -0.65754
 Alpha  occ. eigenvalues --   -0.65607  -0.65253  -0.64899  -0.64267  -0.63936
 Alpha  occ. eigenvalues --   -0.63340  -0.62802  -0.62084  -0.61383  -0.59942
 Alpha  occ. eigenvalues --   -0.59522  -0.59417  -0.58588  -0.58314  -0.57775
 Alpha  occ. eigenvalues --   -0.57317  -0.57198  -0.56869  -0.56664  -0.56427
 Alpha  occ. eigenvalues --   -0.56080  -0.55925  -0.55547  -0.54724  -0.54388
 Alpha  occ. eigenvalues --   -0.54221  -0.53775  -0.53656  -0.53094  -0.53014
 Alpha  occ. eigenvalues --   -0.52715  -0.52383  -0.52256  -0.52028  -0.51896
 Alpha  occ. eigenvalues --   -0.51420  -0.51152  -0.50590  -0.50340  -0.49938
 Alpha  occ. eigenvalues --   -0.49656  -0.49367  -0.49236  -0.49100  -0.48829
 Alpha  occ. eigenvalues --   -0.48529  -0.48413  -0.48146  -0.48044  -0.47951
 Alpha  occ. eigenvalues --   -0.47748  -0.47620  -0.47338  -0.47033  -0.46944
 Alpha  occ. eigenvalues --   -0.46557  -0.46318  -0.46132  -0.45919  -0.45743
 Alpha  occ. eigenvalues --   -0.45272  -0.44999  -0.44729  -0.44610  -0.44555
 Alpha  occ. eigenvalues --   -0.44413  -0.43758  -0.43650  -0.43313  -0.43230
 Alpha  occ. eigenvalues --   -0.43084  -0.42638  -0.42350  -0.42041  -0.41807
 Alpha  occ. eigenvalues --   -0.41586  -0.41108  -0.40921  -0.40533  -0.40101
 Alpha  occ. eigenvalues --   -0.40013  -0.39462  -0.39240  -0.38650  -0.38326
 Alpha  occ. eigenvalues --   -0.38055  -0.37953  -0.37905  -0.37381  -0.36562
 Alpha  occ. eigenvalues --   -0.35626  -0.35507  -0.34837  -0.34581  -0.34319
 Alpha  occ. eigenvalues --   -0.33042  -0.32667  -0.32002  -0.31712  -0.31507
 Alpha  occ. eigenvalues --   -0.31195  -0.30971  -0.30838  -0.30631  -0.30464
 Alpha  occ. eigenvalues --   -0.29710
 Alpha virt. eigenvalues --   -0.10623  -0.08558  -0.07162  -0.06900  -0.06852
 Alpha virt. eigenvalues --   -0.06628  -0.06435  -0.06129  -0.04826  -0.04117
 Alpha virt. eigenvalues --   -0.03211  -0.03136  -0.02149  -0.01879  -0.00722

 Mulliken charges:
               1
     1  N   -0.753431
     2  H    0.427408
     3  H    0.420158
     4  H    0.404052
     5  C   -0.124313
     6  H    0.215672
     7  C    0.640832
     8  C    0.059225
     9  H    0.209773
    10  O   -0.538162
    11  C   -0.453987
    12  H    0.161790
    13  H    0.199322
    14  H    0.140136
    15  O   -0.661328
    16  H    0.464547
    17  N   -0.592431
    18  H    0.407161
    19  C   -0.077478
    20  H    0.219741
    21  C    0.639214
    22  C   -0.431043
    23  H    0.186830
    24  H    0.158738
    25  O   -0.566493
    26  C    0.187108
    27  C   -0.179414
    28  H    0.125822
    29  C   -0.210231
    30  H    0.164671
    31  C   -0.130470
    32  H    0.141991
    33  C   -0.138080
    34  H    0.148087
    35  C   -0.128533
    36  H    0.140622
    37  N   -0.580580
    38  H    0.348441
    39  C   -0.089826
    40  H    0.202780
    41  C    0.615016
    42  C   -0.445375
    43  H    0.185162
    44  H    0.160970
    45  H    0.160996
    46  O   -0.510623
    47  N   -0.652603
    48  H    0.365889
    49  C   -0.011461
    50  H    0.188479
    51  C    0.595866
    52  C   -0.303422
    53  H    0.142856
    54  H    0.197959
    55  O   -0.602556
    56  C   -0.377529
    57  H    0.159872
    58  H    0.180521
    59  C    0.615788
    60  O   -0.625484
    61  O   -0.592626
    62  N   -0.605700
    63  H    0.411887
    64  C   -0.048208
    65  H    0.167149
    66  C    0.608336
    67  C   -0.478782
    68  H    0.164768
    69  H    0.173940
    70  H    0.162567
    71  O   -0.532505
    72  N   -0.604755
    73  H    0.357165
    74  C   -0.054941
    75  H    0.178079
    76  C    0.624708
    77  C   -0.251024
    78  H    0.151446
    79  H    0.148827
    80  O   -0.546651
    81  C   -0.087465
    82  H    0.129023
    83  C   -0.446089
    84  H    0.148072
    85  H    0.136067
    86  H    0.156983
    87  C   -0.444440
    88  H    0.143810
    89  H    0.150982
    90  H    0.146879
    91  N   -0.604994
    92  H    0.360179
    93  C   -0.045336
    94  H    0.202287
    95  C    0.583300
    96  C   -0.272022
    97  H    0.158506
    98  H    0.169469
    99  O   -0.461106
   100  C   -0.309202
   101  H    0.206085
   102  H    0.164364
   103  C   -0.146096
   104  H    0.175668
   105  H    0.145935
   106  N   -0.619324
   107  H    0.437355
   108  N   -0.761192
   109  H    0.366053
   110  H    0.371381
   111  N   -0.776659
   112  H    0.409144
   113  H    0.352422
   114  C    0.763006
   115  O   -0.560699
   116  H    0.425329
 Sum of Mulliken charges =   1.00000

 Dipole moment (field-independent basis, Debye):
    X=              1.4919    Y=              1.7545    Z=             -5.3619  Tot=              5.8355
 Quadrupole moment (field-independent basis, Debye-Ang):
   XX=           -267.6636   YY=           -167.6373   ZZ=           -231.7051
   XY=             58.5852   XZ=             56.4360   YZ=             94.4929

 Normal termination of Gaussian 16 at Thu Jun 30 14:46:51 2022.
