 Gaussian 16, Revision C.01,
 Gaussian 16:  ES64L-G16RevC.01  3-Jul-2019

 -------------------------------------------------------------------
 # B3LYP/6-31G* guess=read geom=check nosymm integral(ultrafinegrid)
 -------------------------------------------------------------------

 ------------------------------------------------------
 Candidate Structure: Conf:156 Charge calc in gas phase
 ------------------------------------------------------
 Structure from the checkpoint file:  "conf-156.chk"
 Charge =  1 Multiplicity = 1

                          Input orientation:
 ---------------------------------------------------------------------
 Center     Atomic      Atomic             Coordinates (Angstroms)
 Number     Number       Type             X           Y           Z
 ---------------------------------------------------------------------
      1          7           0       -6.192352   -2.284987   -6.490316
      2          1           0       -6.512652   -1.353531   -6.771430
      3          1           0       -5.168905   -2.357769   -6.695259
      4          1           0       -6.751354   -3.013764   -6.962819
      5          6           0       -6.286350   -2.513857   -5.001761
      6          1           0       -7.133063   -1.938583   -4.619762
      7          6           0       -4.914927   -2.032582   -4.472434
      8          6           0       -6.519175   -4.027534   -4.790429
      9          1           0       -5.582197   -4.551533   -5.033060
     10          8           0       -3.962314   -2.118026   -5.263505
     11          6           0       -6.949822   -4.354716   -3.365847
     12          1           0       -6.174337   -4.074341   -2.646126
     13          1           0       -7.115131   -5.432341   -3.264359
     14          1           0       -7.883237   -3.840272   -3.114719
     15          8           0       -7.524991   -4.353214   -5.757144
     16          1           0       -7.675185   -5.312188   -5.758752
     17          7           0       -4.867369   -1.586167   -3.221602
     18          1           0       -5.752513   -1.443830   -2.742103
     19          6           0       -3.728182   -0.823013   -2.652687
     20          1           0       -3.322928   -0.187879   -3.458035
     21          6           0       -2.581146   -1.726314   -2.139998
     22          6           0       -4.256183    0.090770   -1.526656
     23          1           0       -4.416445   -0.505751   -0.622325
     24          1           0       -3.450197    0.792174   -1.296356
     25          8           0       -2.133464   -1.597391   -1.003018
     26          6           0       -5.522106    0.833114   -1.908623
     27          6           0       -5.496003    1.858274   -2.870447
     28          1           0       -4.547739    2.131304   -3.333950
     29          6           0       -6.749858    0.476107   -1.330029
     30          1           0       -6.775642   -0.290884   -0.556773
     31          6           0       -6.678094    2.505547   -3.230682
     32          1           0       -6.645385    3.306511   -3.965070
     33          6           0       -7.933674    1.125771   -1.697635
     34          1           0       -8.872785    0.848281   -1.225797
     35          6           0       -7.898673    2.142963   -2.650497
     36          1           0       -8.812777    2.659689   -2.930963
     37          7           0       -2.084013   -2.615228   -3.043619
     38          1           0       -2.365117   -2.508846   -4.015009
     39          6           0       -0.845352   -3.366626   -2.781178
     40          1           0       -0.823662   -3.553089   -1.704437
     41          6           0        0.341731   -2.457546   -3.182164
     42          6           0       -0.832718   -4.677489   -3.558304
     43          1           0        0.062618   -5.254313   -3.308452
     44          1           0       -0.806131   -4.486286   -4.635088
     45          1           0       -1.714465   -5.277106   -3.310735
     46          8           0        0.861739   -2.527372   -4.290979
     47          7           0        0.680424   -1.540819   -2.234120
     48          1           0        0.144421   -1.509034   -1.372173
     49          6           0        1.507685   -0.384830   -2.532987
     50          1           0        2.039138   -0.612149   -3.461862
     51          6           0        2.484426   -0.136307   -1.377483
     52          6           0        0.647509    0.895200   -2.688880
     53          1           0        1.316056    1.760281   -2.744524
     54          1           0        0.079720    1.002375   -1.755123
     55          8           0        2.177661   -0.329976   -0.207048
     56          6           0       -0.313097    0.895979   -3.885029
     57          1           0        0.241814    1.122571   -4.806433
     58          1           0       -0.754554   -0.091877   -4.035679
     59          6           0       -1.463177    1.925876   -3.752244
     60          8           0       -2.584246    1.583384   -4.188030
     61          8           0       -1.183909    3.048725   -3.212271
     62          7           0        3.696264    0.388278   -1.737179
     63          1           0        3.840962    0.659782   -2.700285
     64          6           0        4.600341    0.931987   -0.743414
     65          1           0        4.730544    0.173666    0.036447
     66          6           0        4.024163    2.203671   -0.089165
     67          6           0        5.954345    1.263839   -1.389824
     68          1           0        6.644087    1.692021   -0.657407
     69          1           0        5.826763    2.003103   -2.188853
     70          1           0        6.402703    0.359513   -1.811746
     71          8           0        3.272166    2.974734   -0.700091
     72          7           0        4.444146    2.456502    1.167727
     73          1           0        5.122067    1.836726    1.590607
     74          6           0        4.177048    3.728009    1.821684
     75          1           0        3.091376    3.875586    1.838720
     76          6           0        4.828779    4.875172    1.019342
     77          6           0        4.733955    3.732686    3.258180
     78          1           0        5.822473    3.595464    3.196967
     79          1           0        4.577547    4.738050    3.671665
     80          8           0        5.910535    4.748428    0.462386
     81          6           0        4.125717    2.691237    4.221740
     82          1           0        4.282476    1.688594    3.796628
     83          6           0        4.865076    2.746585    5.567479
     84          1           0        4.732996    3.724288    6.048030
     85          1           0        5.941231    2.578062    5.443895
     86          1           0        4.482591    1.984341    6.254793
     87          6           0        2.615064    2.883783    4.418010
     88          1           0        2.394421    3.885699    4.809386
     89          1           0        2.225059    2.155546    5.137140
     90          1           0        2.053362    2.749545    3.486850
     91          7           0        4.101602    6.034724    1.003870
     92          1           0        3.263067    6.077615    1.568524
     93          6           0        4.657242    7.302893    0.552280
     94          1           0        5.708412    7.102348    0.313276
     95          6           0        4.663139    8.368272    1.651545
     96          6           0        3.950913    7.846092   -0.709158
     97          1           0        4.292382    8.873293   -0.860693
     98          1           0        2.873824    7.899210   -0.503921
     99          8           0        4.967273    9.521989    1.463453
    100          6           0        4.217270    6.993077   -1.974064
    101          1           0        4.836321    6.121050   -1.727372
    102          1           0        4.796636    7.575896   -2.697874
    103          6           0        2.950412    6.504616   -2.684481
    104          1           0        3.218759    6.069334   -3.658650
    105          1           0        2.278420    7.352582   -2.870551
    106          7           0        2.257223    5.521028   -1.854524
    107          1           0        2.830453    4.985110   -1.207023
    108          7           0        0.326903    5.355939   -3.191261
    109          1           0       -0.433287    4.718322   -3.471350
    110          1           0        0.686018    6.022703   -3.855770
    111          7           0        0.612277    3.949747   -1.395456
    112          1           0        1.299201    3.448101   -0.840168
    113          1           0       -0.142938    3.399739   -1.848035
    114          6           0        1.084049    4.937450   -2.167069
    115          8           0        4.293326    7.887487    2.863727
    116          1           0        4.343886    8.642176    3.481988
 ---------------------------------------------------------------------

 SCF Done:  E(RB3LYP) =  -2782.30364325     A.U. after    1 cycles

 Alpha  occ. eigenvalues --  -19.29811 -19.27464 -19.25695 -19.21244 -19.20718
 Alpha  occ. eigenvalues --  -19.19345 -19.18910 -19.17797 -19.16574 -19.13103
 Alpha  occ. eigenvalues --  -19.12582 -14.58946 -14.48721 -14.44693 -14.44510
 Alpha  occ. eigenvalues --  -14.44231 -14.43453 -14.42743 -14.42741 -14.41311
 Alpha  occ. eigenvalues --  -14.40828 -10.42537 -10.39923 -10.39803 -10.39563
 Alpha  occ. eigenvalues --  -10.39261 -10.37226 -10.36508 -10.36016 -10.34762
 Alpha  occ. eigenvalues --  -10.33765 -10.31640 -10.31480 -10.31227 -10.31159
 Alpha  occ. eigenvalues --  -10.31136 -10.31062 -10.30512 -10.29336 -10.28751
 Alpha  occ. eigenvalues --  -10.26948 -10.26647 -10.26518 -10.26129 -10.26039
 Alpha  occ. eigenvalues --  -10.26031 -10.25841 -10.25620 -10.25518 -10.25229
 Alpha  occ. eigenvalues --  -10.25002 -10.24175 -10.24036 -10.23999 -10.23682
 Alpha  occ. eigenvalues --  -10.23437 -10.22242  -1.18559  -1.18115  -1.16884
 Alpha  occ. eigenvalues --   -1.12626  -1.12499  -1.11090  -1.10718  -1.09762
 Alpha  occ. eigenvalues --   -1.09056  -1.08761  -1.08326  -1.05718  -1.05009
 Alpha  occ. eigenvalues --   -1.01090  -1.00710  -0.99227  -0.99081  -0.98891
 Alpha  occ. eigenvalues --   -0.97453  -0.96941  -0.95889  -0.92838  -0.91719
 Alpha  occ. eigenvalues --   -0.88785  -0.87489  -0.86918  -0.85600  -0.84173
 Alpha  occ. eigenvalues --   -0.84062  -0.83343  -0.82508  -0.81037  -0.80502
 Alpha  occ. eigenvalues --   -0.80084  -0.76853  -0.76745  -0.76114  -0.74601
 Alpha  occ. eigenvalues --   -0.73557  -0.73484  -0.72898  -0.71889  -0.71576
 Alpha  occ. eigenvalues --   -0.71065  -0.70851  -0.70096  -0.69406  -0.68302
 Alpha  occ. eigenvalues --   -0.67409  -0.66733  -0.66376  -0.66267  -0.66008
 Alpha  occ. eigenvalues --   -0.65716  -0.65601  -0.64867  -0.64709  -0.63493
 Alpha  occ. eigenvalues --   -0.63427  -0.63264  -0.61444  -0.61052  -0.60845
 Alpha  occ. eigenvalues --   -0.60360  -0.59531  -0.59021  -0.58167  -0.57957
 Alpha  occ. eigenvalues --   -0.57619  -0.57074  -0.56708  -0.56308  -0.55771
 Alpha  occ. eigenvalues --   -0.55458  -0.55377  -0.55320  -0.54963  -0.54380
 Alpha  occ. eigenvalues --   -0.54128  -0.53686  -0.53636  -0.53352  -0.53040
 Alpha  occ. eigenvalues --   -0.52432  -0.52118  -0.52002  -0.51684  -0.51497
 Alpha  occ. eigenvalues --   -0.51310  -0.50985  -0.50715  -0.50479  -0.50361
 Alpha  occ. eigenvalues --   -0.50077  -0.49918  -0.49687  -0.48821  -0.48650
 Alpha  occ. eigenvalues --   -0.48520  -0.48200  -0.47865  -0.47726  -0.47653
 Alpha  occ. eigenvalues --   -0.47430  -0.47348  -0.47188  -0.46769  -0.46568
 Alpha  occ. eigenvalues --   -0.46449  -0.46151  -0.46021  -0.45460  -0.45239
 Alpha  occ. eigenvalues --   -0.45021  -0.44826  -0.44467  -0.44464  -0.44244
 Alpha  occ. eigenvalues --   -0.43999  -0.43526  -0.43039  -0.42819  -0.42685
 Alpha  occ. eigenvalues --   -0.42568  -0.42336  -0.42269  -0.42162  -0.42089
 Alpha  occ. eigenvalues --   -0.41820  -0.41732  -0.40395  -0.40113  -0.40072
 Alpha  occ. eigenvalues --   -0.39998  -0.39639  -0.39509  -0.39405  -0.39210
 Alpha  occ. eigenvalues --   -0.39060  -0.38597  -0.38288  -0.36334  -0.35236
 Alpha  occ. eigenvalues --   -0.34983  -0.34708  -0.33977  -0.33574  -0.32700
 Alpha  occ. eigenvalues --   -0.32643  -0.32398  -0.32318  -0.31695  -0.31434
 Alpha  occ. eigenvalues --   -0.30652  -0.30133  -0.29497  -0.28917  -0.27515
 Alpha  occ. eigenvalues --   -0.26429
 Alpha virt. eigenvalues --   -0.12239  -0.08899  -0.07011  -0.06808  -0.06676
 Alpha virt. eigenvalues --   -0.06619  -0.06231  -0.05597  -0.05364  -0.04682
 Alpha virt. eigenvalues --   -0.03856  -0.03497  -0.02230  -0.01748  -0.00965

 Mulliken charges:
               1
     1  N   -0.745739
     2  H    0.421665
     3  H    0.427559
     4  H    0.428668
     5  C   -0.126655
     6  H    0.218718
     7  C    0.660683
     8  C    0.127693
     9  H    0.173382
    10  O   -0.550162
    11  C   -0.480955
    12  H    0.186745
    13  H    0.184344
    14  H    0.181929
    15  O   -0.647521
    16  H    0.432906
    17  N   -0.591817
    18  H    0.350966
    19  C   -0.118944
    20  H    0.270910
    21  C    0.635267
    22  C   -0.382955
    23  H    0.168709
    24  H    0.203771
    25  O   -0.523639
    26  C    0.110238
    27  C   -0.193571
    28  H    0.214562
    29  C   -0.221437
    30  H    0.128894
    31  C   -0.148428
    32  H    0.142564
    33  C   -0.135546
    34  H    0.137246
    35  C   -0.134420
    36  H    0.138450
    37  N   -0.628089
    38  H    0.372566
    39  C   -0.060707
    40  H    0.180033
    41  C    0.622063
    42  C   -0.454630
    43  H    0.172761
    44  H    0.171284
    45  H    0.138705
    46  O   -0.529455
    47  N   -0.593633
    48  H    0.364927
    49  C   -0.089435
    50  H    0.176249
    51  C    0.638002
    52  C   -0.272235
    53  H    0.141166
    54  H    0.151397
    55  O   -0.531831
    56  C   -0.355413
    57  H    0.149596
    58  H    0.146646
    59  C    0.581821
    60  O   -0.555753
    61  O   -0.626756
    62  N   -0.594936
    63  H    0.335075
    64  C   -0.054545
    65  H    0.179934
    66  C    0.672704
    67  C   -0.475161
    68  H    0.181001
    69  H    0.165265
    70  H    0.181165
    71  O   -0.581311
    72  N   -0.585310
    73  H    0.347379
    74  C   -0.045000
    75  H    0.160459
    76  C    0.625413
    77  C   -0.304305
    78  H    0.159914
    79  H    0.159330
    80  O   -0.525164
    81  C   -0.075893
    82  H    0.129271
    83  C   -0.444584
    84  H    0.148080
    85  H    0.148157
    86  H    0.157315
    87  C   -0.453993
    88  H    0.142452
    89  H    0.161593
    90  H    0.152436
    91  N   -0.603210
    92  H    0.342222
    93  C   -0.078119
    94  H    0.225331
    95  C    0.590467
    96  C   -0.270926
    97  H    0.192056
    98  H    0.153419
    99  O   -0.443294
   100  C   -0.319074
   101  H    0.184367
   102  H    0.170719
   103  C   -0.147796
   104  H    0.163476
   105  H    0.166583
   106  N   -0.629656
   107  H    0.387126
   108  N   -0.775409
   109  H    0.413002
   110  H    0.353552
   111  N   -0.795939
   112  H    0.375353
   113  H    0.414251
   114  C    0.762535
   115  O   -0.575858
   116  H    0.424721
 Sum of Mulliken charges =   1.00000

 Dipole moment (field-independent basis, Debye):
    X=            -14.0857    Y=             -0.5213    Z=            -15.9654  Tot=             21.2972
 Quadrupole moment (field-independent basis, Debye-Ang):
   XX=           -130.6258   YY=           -225.3784   ZZ=           -195.8145
   XY=            114.2162   XZ=            137.7239   YZ=             57.6758

 Normal termination of Gaussian 16 at Thu Jun 30 14:46:09 2022.
