 Gaussian 16, Revision C.01,
 Gaussian 16:  ES64L-G16RevC.01  3-Jul-2019

 -------------------------------------------------------------------
 # B3LYP/6-31G* guess=read geom=check nosymm integral(ultrafinegrid)
 -------------------------------------------------------------------

 ------------------------------------------------------
 Candidate Structure: Conf:112 Charge calc in gas phase
 ------------------------------------------------------
 Structure from the checkpoint file:  "conf-112.chk"
 Charge =  1 Multiplicity = 1

                          Input orientation:
 ---------------------------------------------------------------------
 Center     Atomic      Atomic             Coordinates (Angstroms)
 Number     Number       Type             X           Y           Z
 ---------------------------------------------------------------------
      1          7           0       -5.786098   -0.278017   -8.060663
      2          1           0       -6.748401    0.001475   -7.866681
      3          1           0       -5.212111    0.557517   -8.197855
      4          1           0       -5.748558   -0.858111   -8.901466
      5          6           0       -5.209757   -1.049737   -6.944534
      6          1           0       -5.932547   -1.785934   -6.578717
      7          6           0       -4.809919   -0.102035   -5.825482
      8          6           0       -3.976936   -1.806730   -7.459487
      9          1           0       -3.239367   -1.055306   -7.774247
     10          8           0       -4.311402    0.988341   -6.056560
     11          6           0       -3.364169   -2.766383   -6.457182
     12          1           0       -2.984827   -2.258652   -5.566885
     13          1           0       -2.529116   -3.298100   -6.914928
     14          1           0       -4.112483   -3.502604   -6.148921
     15          8           0       -4.436015   -2.532090   -8.605652
     16          1           0       -3.682957   -2.981837   -8.994662
     17          7           0       -5.031036   -0.559263   -4.556141
     18          1           0       -5.191502   -1.549451   -4.467586
     19          6           0       -4.267406    0.026119   -3.448485
     20          1           0       -4.209316    1.094701   -3.648004
     21          6           0       -2.862828   -0.600462   -3.436966
     22          6           0       -4.960184   -0.245230   -2.113039
     23          1           0       -6.018818   -0.018957   -2.234037
     24          1           0       -4.860430   -1.312460   -1.898955
     25          8           0       -2.744848   -1.826902   -3.198909
     26          6           0       -4.391269    0.588631   -0.996295
     27          6           0       -3.178881    0.247522   -0.389391
     28          1           0       -2.665187   -0.643578   -0.732295
     29          6           0       -5.046481    1.741185   -0.565827
     30          1           0       -5.986145    2.019328   -1.026618
     31          6           0       -2.649520    1.034174    0.629970
     32          1           0       -1.720984    0.739548    1.100199
     33          6           0       -4.514395    2.532075    0.450540
     34          1           0       -5.045446    3.422932    0.767893
     35          6           0       -3.312527    2.178840    1.055184
     36          1           0       -2.895366    2.792714    1.846653
     37          7           0       -1.860150    0.247669   -3.781843
     38          1           0       -2.103456    1.214257   -3.884514
     39          6           0       -0.442038   -0.101637   -3.758008
     40          1           0       -0.379769   -1.114028   -4.167971
     41          6           0        0.033445   -0.133254   -2.296495
     42          6           0        0.353262    0.887883   -4.586393
     43          1           0        1.407846    0.603036   -4.616387
     44          1           0        0.280532    1.890641   -4.163384
     45          1           0       -0.030951    0.905881   -5.608748
     46          8           0        0.379674    0.874459   -1.687196
     47          7           0       -0.000107   -1.366331   -1.718803
     48          1           0       -0.585375   -2.038658   -2.202160
     49          6           0       -0.029969   -1.461332   -0.260684
     50          1           0       -0.594753   -0.596037    0.111955
     51          6           0        1.401654   -1.374152    0.263165
     52          6           0       -0.720729   -2.736319    0.187290
     53          1           0       -0.101080   -3.586506   -0.101915
     54          1           0       -1.676352   -2.830370   -0.339656
     55          8           0        2.096032   -2.371888    0.467891
     56          6           0       -0.985281   -2.746075    1.684566
     57          1           0       -0.068198   -2.636216    2.254146
     58          1           0       -1.645888   -1.916901    1.958944
     59          6           0       -1.738039   -4.024867    2.139015
     60          8           0       -2.494718   -4.540263    1.307895
     61          8           0       -1.559739   -4.354765    3.326480
     62          7           0        1.854514   -0.121913    0.503340
     63          1           0        1.344371    0.642793    0.079590
     64          6           0        3.258559    0.102031    0.821608
     65          1           0        3.836558   -0.645711    0.266199
     66          6           0        3.479756   -0.144733    2.317241
     67          6           0        3.658491    1.508493    0.415081
     68          1           0        4.718410    1.677455    0.611533
     69          1           0        3.083912    2.242914    0.981033
     70          1           0        3.472820    1.648002   -0.653158
     71          8           0        3.507582    0.766627    3.146696
     72          7           0        3.646214   -1.435210    2.672520
     73          1           0        3.451582   -2.153670    1.988024
     74          6           0        3.804830   -1.814871    4.062664
     75          1           0        3.236465   -1.086806    4.654416
     76          6           0        5.270770   -1.691855    4.500291
     77          6           0        3.306895   -3.227871    4.331444
     78          1           0        3.936960   -3.932834    3.786762
     79          1           0        3.463411   -3.431011    5.393086
     80          8           0        5.905949   -2.613971    4.990689
     81          6           0        1.841255   -3.486892    4.001661
     82          1           0        1.710673   -3.423733    2.913831
     83          6           0        1.479104   -4.901309    4.450544
     84          1           0        1.595269   -4.982458    5.533614
     85          1           0        2.139160   -5.637222    3.983748
     86          1           0        0.454325   -5.158034    4.200888
     87          6           0        0.923612   -2.461963    4.659650
     88          1           0        1.084705   -2.457883    5.741537
     89          1           0       -0.121461   -2.705793    4.474944
     90          1           0        1.104879   -1.450153    4.280877
     91          7           0        5.850509   -0.480134    4.296585
     92          1           0        5.254690    0.309951    4.084401
     93          6           0        7.164359   -0.262120    4.870024
     94          1           0        7.849634   -1.012448    4.461444
     95          6           0        7.091751   -0.452101    6.375325
     96          6           0        7.665024    1.143179    4.528578
     97          1           0        6.997200    1.872890    4.994111
     98          1           0        7.578028    1.260242    3.445954
     99          8           0        6.160309   -0.146898    7.073153
    100          6           0        9.103787    1.409621    4.947236
    101          1           0        9.752821    0.642920    4.517269
    102          1           0        9.206120    1.346384    6.031057
    103          6           0        9.575012    2.777006    4.487260
    104          1           0        8.940804    3.545796    4.937788
    105          1           0        9.474101    2.862564    3.398606
    106          7           0       10.973945    2.989323    4.903282
    107          1           0       11.548151    2.159367    4.889440
    108          7           0       11.002929    5.174103    4.066173
    109          1           0       11.420574    6.088102    4.128828
    110          1           0        9.998983    5.148644    4.013678
    111          7           0       12.968947    4.163093    4.856134
    112          1           0       13.324583    3.531021    5.560037
    113          1           0       13.410963    5.069036    4.847934
    114          6           0       11.635779    4.123252    4.619251
    115          8           0        8.244233   -0.967307    6.865518
    116          1           0        8.116296   -1.024796    7.819636
 ---------------------------------------------------------------------

 SCF Done:  E(RB3LYP) =  -2782.14357757     A.U. after    3 cycles

 Alpha  occ. eigenvalues --  -19.29499 -19.26372 -19.24557 -19.20876 -19.18536
 Alpha  occ. eigenvalues --  -19.17914 -19.14491 -19.14409 -19.14160 -19.01271
 Alpha  occ. eigenvalues --  -19.01069 -14.62566 -14.53156 -14.52526 -14.52374
 Alpha  occ. eigenvalues --  -14.48945 -14.45816 -14.40646 -14.38538 -14.38491
 Alpha  occ. eigenvalues --  -14.37825 -10.48171 -10.43306 -10.41080 -10.39480
 Alpha  occ. eigenvalues --  -10.38049 -10.36482 -10.35868 -10.34416 -10.32855
 Alpha  occ. eigenvalues --  -10.31236 -10.31155 -10.31052 -10.30659 -10.29840
 Alpha  occ. eigenvalues --  -10.29574 -10.29163 -10.27827 -10.26491 -10.26215
 Alpha  occ. eigenvalues --  -10.25831 -10.25069 -10.24647 -10.24027 -10.23595
 Alpha  occ. eigenvalues --  -10.23372 -10.23152 -10.23113 -10.22997 -10.22242
 Alpha  occ. eigenvalues --  -10.19409 -10.17565 -10.17434 -10.16460 -10.14317
 Alpha  occ. eigenvalues --  -10.13710 -10.13423  -1.20088  -1.17641  -1.17451
 Alpha  occ. eigenvalues --   -1.15980  -1.15702  -1.11761  -1.09742  -1.07213
 Alpha  occ. eigenvalues --   -1.06745  -1.06739  -1.06209  -1.06175  -1.05825
 Alpha  occ. eigenvalues --   -1.05327  -1.01892  -0.97341  -0.96282  -0.95578
 Alpha  occ. eigenvalues --   -0.95191  -0.94637  -0.94408  -0.91165  -0.90913
 Alpha  occ. eigenvalues --   -0.87656  -0.86266  -0.85523  -0.84765  -0.84465
 Alpha  occ. eigenvalues --   -0.81930  -0.80348  -0.80259  -0.79584  -0.79123
 Alpha  occ. eigenvalues --   -0.78846  -0.78163  -0.77220  -0.76728  -0.75055
 Alpha  occ. eigenvalues --   -0.74350  -0.74129  -0.72994  -0.72485  -0.71791
 Alpha  occ. eigenvalues --   -0.71535  -0.70437  -0.70164  -0.68912  -0.67919
 Alpha  occ. eigenvalues --   -0.66982  -0.66788  -0.66710  -0.65939  -0.65594
 Alpha  occ. eigenvalues --   -0.65378  -0.65038  -0.64787  -0.63279  -0.63217
 Alpha  occ. eigenvalues --   -0.62441  -0.61972  -0.61363  -0.61037  -0.60448
 Alpha  occ. eigenvalues --   -0.60128  -0.59753  -0.59474  -0.59319  -0.58099
 Alpha  occ. eigenvalues --   -0.57817  -0.57011  -0.56577  -0.56196  -0.56045
 Alpha  occ. eigenvalues --   -0.55657  -0.55402  -0.54959  -0.54207  -0.54089
 Alpha  occ. eigenvalues --   -0.53522  -0.53046  -0.52833  -0.52621  -0.51974
 Alpha  occ. eigenvalues --   -0.51629  -0.51339  -0.51213  -0.50757  -0.50624
 Alpha  occ. eigenvalues --   -0.50375  -0.50200  -0.49003  -0.48983  -0.48489
 Alpha  occ. eigenvalues --   -0.48316  -0.48185  -0.47826  -0.46966  -0.46707
 Alpha  occ. eigenvalues --   -0.46233  -0.46168  -0.46010  -0.45783  -0.45422
 Alpha  occ. eigenvalues --   -0.45242  -0.44976  -0.44618  -0.44529  -0.44041
 Alpha  occ. eigenvalues --   -0.43978  -0.43845  -0.43670  -0.43612  -0.43515
 Alpha  occ. eigenvalues --   -0.42837  -0.42567  -0.42096  -0.41917  -0.41801
 Alpha  occ. eigenvalues --   -0.41533  -0.41202  -0.40736  -0.40635  -0.40501
 Alpha  occ. eigenvalues --   -0.40084  -0.39837  -0.39810  -0.38915  -0.38540
 Alpha  occ. eigenvalues --   -0.38430  -0.38226  -0.37900  -0.37261  -0.36457
 Alpha  occ. eigenvalues --   -0.35998  -0.35774  -0.35482  -0.34251  -0.34203
 Alpha  occ. eigenvalues --   -0.33842  -0.33568  -0.32486  -0.32246  -0.31398
 Alpha  occ. eigenvalues --   -0.31089  -0.30845  -0.30446  -0.29934  -0.29926
 Alpha  occ. eigenvalues --   -0.29660  -0.29408  -0.29248  -0.29129  -0.28704
 Alpha  occ. eigenvalues --   -0.27768  -0.26927  -0.26008  -0.17014  -0.15810
 Alpha  occ. eigenvalues --   -0.14985
 Alpha virt. eigenvalues --   -0.14323  -0.13922  -0.10991  -0.09010  -0.08174
 Alpha virt. eigenvalues --   -0.06656  -0.05488  -0.05188  -0.05023  -0.04687
 Alpha virt. eigenvalues --   -0.04385  -0.03985  -0.03886  -0.03515  -0.03430

 Mulliken charges:
               1
     1  N   -0.718270
     2  H    0.430736
     3  H    0.423364
     4  H    0.436675
     5  C   -0.151009
     6  H    0.222442
     7  C    0.620172
     8  C    0.124285
     9  H    0.163163
    10  O   -0.507267
    11  C   -0.502220
    12  H    0.211526
    13  H    0.184181
    14  H    0.184922
    15  O   -0.644309
    16  H    0.432711
    17  N   -0.580069
    18  H    0.355152
    19  C   -0.058645
    20  H    0.182535
    21  C    0.633329
    22  C   -0.385123
    23  H    0.158250
    24  H    0.203981
    25  O   -0.552367
    26  C    0.151772
    27  C   -0.191791
    28  H    0.169156
    29  C   -0.186546
    30  H    0.117787
    31  C   -0.131434
    32  H    0.165959
    33  C   -0.125229
    34  H    0.136119
    35  C   -0.127882
    36  H    0.143965
    37  N   -0.578646
    38  H    0.352922
    39  C   -0.058328
    40  H    0.170721
    41  C    0.619495
    42  C   -0.472092
    43  H    0.181379
    44  H    0.182752
    45  H    0.145936
    46  O   -0.537976
    47  N   -0.595508
    48  H    0.358833
    49  C   -0.078466
    50  H    0.161180
    51  C    0.647833
    52  C   -0.291120
    53  H    0.163695
    54  H    0.152536
    55  O   -0.540405
    56  C   -0.396050
    57  H    0.158852
    58  H    0.116274
    59  C    0.570157
    60  O   -0.583331
    61  O   -0.568131
    62  N   -0.604305
    63  H    0.367803
    64  C   -0.039816
    65  H    0.161099
    66  C    0.634873
    67  C   -0.472513
    68  H    0.142422
    69  H    0.175946
    70  H    0.152615
    71  O   -0.568104
    72  N   -0.603642
    73  H    0.378997
    74  C   -0.084485
    75  H    0.193779
    76  C    0.644842
    77  C   -0.272396
    78  H    0.137962
    79  H    0.151072
    80  O   -0.526910
    81  C   -0.087600
    82  H    0.145012
    83  C   -0.462867
    84  H    0.115133
    85  H    0.113148
    86  H    0.221646
    87  C   -0.476008
    88  H    0.116759
    89  H    0.207889
    90  H    0.116923
    91  N   -0.639922
    92  H    0.365999
    93  C    0.006677
    94  H    0.183109
    95  C    0.594521
    96  C   -0.317717
    97  H    0.171297
    98  H    0.163460
    99  O   -0.454539
   100  C   -0.304645
   101  H    0.163452
   102  H    0.184937
   103  C   -0.162063
   104  H    0.182758
   105  H    0.185509
   106  N   -0.588409
   107  H    0.367934
   108  N   -0.731849
   109  H    0.377056
   110  H    0.391504
   111  N   -0.732354
   112  H    0.380628
   113  H    0.371863
   114  C    0.750623
   115  O   -0.575104
   116  H    0.413475
 Sum of Mulliken charges =   1.00000

 Dipole moment (field-independent basis, Debye):
    X=             26.2793    Y=             30.1812    Z=            -26.4661  Tot=             47.9788
 Quadrupole moment (field-independent basis, Debye-Ang):
   XX=            315.8691   YY=           -324.1040   ZZ=            -23.2045
   XY=            188.2504   XZ=            393.4567   YZ=            154.8439

 Normal termination of Gaussian 16 at Thu Jun 30 14:47:04 2022.
