 Gaussian 16, Revision C.01,
 Gaussian 16:  ES64L-G16RevC.01  3-Jul-2019

 -------------------------------------------------------------------
 # B3LYP/6-31G* guess=read geom=check nosymm integral(ultrafinegrid)
 -------------------------------------------------------------------

 ------------------------------------------------------
 Candidate Structure: Conf:535 Charge calc in gas phase
 ------------------------------------------------------
 Structure from the checkpoint file:  "conf-535.chk"
 Charge =  1 Multiplicity = 1

                          Input orientation:
 ---------------------------------------------------------------------
 Center     Atomic      Atomic             Coordinates (Angstroms)
 Number     Number       Type             X           Y           Z
 ---------------------------------------------------------------------
      1          7           0       -5.858097   -3.240615   -1.822229
      2          1           0       -5.082970   -2.089160   -0.891021
      3          1           0       -6.627077   -2.764894   -2.299844
      4          1           0       -6.292001   -3.917118   -1.187386
      5          6           0       -5.083516   -4.042924   -2.805314
      6          1           0       -4.121589   -4.280593   -2.329770
      7          6           0       -4.829923   -3.173165   -4.051687
      8          6           0       -5.805021   -5.361982   -3.153621
      9          1           0       -6.716285   -5.114133   -3.705775
     10          8           0       -5.451915   -3.334498   -5.103003
     11          6           0       -4.950144   -6.314591   -3.981682
     12          1           0       -4.698595   -5.865883   -4.946162
     13          1           0       -5.496273   -7.245664   -4.161976
     14          1           0       -4.013908   -6.559420   -3.459988
     15          8           0       -6.258664   -5.977094   -1.938131
     16          1           0       -5.508285   -6.461004   -1.555328
     17          7           0       -3.920206   -2.195532   -3.854426
     18          1           0       -3.430360   -2.137519   -2.959083
     19          6           0       -3.652033   -1.160022   -4.841587
     20          1           0       -3.316490   -1.646635   -5.769464
     21          6           0       -2.403336   -0.408186   -4.339860
     22          6           0       -4.921380   -0.338729   -5.219933
     23          1           0       -4.615485    0.569445   -5.758988
     24          1           0       -5.455154   -0.943766   -5.955137
     25          8           0       -1.432364   -1.037758   -3.922276
     26          6           0       -5.892429   -0.012610   -4.097348
     27          6           0       -7.180358   -0.568320   -4.135916
     28          1           0       -7.444911   -1.231609   -4.954960
     29          6           0       -5.570946    0.829506   -3.022747
     30          1           0       -4.579505    1.267878   -2.949278
     31          6           0       -8.118039   -0.290240   -3.138315
     32          1           0       -9.112534   -0.725023   -3.197592
     33          6           0       -6.503221    1.106543   -2.021834
     34          1           0       -6.229491    1.759676   -1.197651
     35          6           0       -7.781628    0.549689   -2.075554
     36          1           0       -8.507715    0.769199   -1.297847
     37          7           0       -2.388755    0.950511   -4.389216
     38          1           0       -3.198144    1.459979   -4.711772
     39          6           0       -1.176549    1.713286   -4.089421
     40          1           0       -0.338236    1.064756   -4.372452
     41          6           0       -0.993373    2.015659   -2.580038
     42          6           0       -1.150149    2.998481   -4.914133
     43          1           0       -0.232759    3.556742   -4.719154
     44          1           0       -1.987484    3.654419   -4.652961
     45          1           0       -1.201233    2.757942   -5.980486
     46          8           0       -0.765840    3.171969   -2.199173
     47          7           0       -1.032785    0.959051   -1.731428
     48          1           0       -1.143670    0.015516   -2.105320
     49          6           0       -0.783436    1.135286   -0.292838
     50          1           0       -1.234652    2.096812   -0.020519
     51          6           0        0.740396    1.248995   -0.027831
     52          6           0       -1.379660    0.021000    0.574987
     53          1           0       -1.049641    0.224439    1.598484
     54          1           0       -0.929323   -0.935736    0.297611
     55          8           0        1.392493    0.340965    0.498091
     56          6           0       -2.911738   -0.091072    0.560527
     57          1           0       -3.287179   -0.358674    1.554224
     58          1           0       -3.390904    0.867667    0.318824
     59          6           0       -3.451963   -1.125307   -0.412396
     60          8           0       -4.728101   -1.385763   -0.221637
     61          8           0       -2.751106   -1.649413   -1.276723
     62          7           0        1.295261    2.426482   -0.409765
     63          1           0        0.692382    3.068666   -0.926841
     64          6           0        2.747130    2.619204   -0.467322
     65          1           0        3.190547    1.648987   -0.726573
     66          6           0        3.320466    3.023240    0.914329
     67          6           0        3.092029    3.654669   -1.533666
     68          1           0        4.176827    3.758359   -1.623299
     69          1           0        2.683724    4.634749   -1.270324
     70          1           0        2.687495    3.346259   -2.502383
     71          8           0        3.817626    4.143518    1.108355
     72          7           0        3.252291    2.054502    1.851819
     73          1           0        2.789501    1.185160    1.577010
     74          6           0        3.608830    2.253228    3.264784
     75          1           0        3.285147    3.264112    3.538903
     76          6           0        5.146958    2.204826    3.440953
     77          6           0        2.933204    1.210228    4.160173
     78          1           0        3.309711    0.218905    3.879853
     79          1           0        3.293304    1.381501    5.182182
     80          8           0        5.749344    1.283733    3.977182
     81          6           0        1.391580    1.207104    4.157051
     82          1           0        1.048559    0.990976    3.135677
     83          6           0        0.883066    0.074109    5.062025
     84          1           0        1.189880    0.234507    6.103514
     85          1           0        1.276125   -0.898351    4.744050
     86          1           0       -0.211435    0.016630    5.043936
     87          6           0        0.795527    2.555754    4.588472
     88          1           0        1.145701    2.837948    5.590024
     89          1           0       -0.298701    2.502077    4.625885
     90          1           0        1.058332    3.367085    3.899756
     91          7           0        5.785712    3.308217    2.953750
     92          1           0        5.234970    3.944104    2.374676
     93          6           0        7.230397    3.359554    2.925155
     94          1           0        7.643072    2.548486    2.310493
     95          6           0        7.797002    3.202448    4.344876
     96          6           0        7.653318    4.731570    2.366871
     97          1           0        7.355007    5.495808    3.096060
     98          1           0        7.067943    4.914163    1.455611
     99          8           0        7.392787    3.793537    5.316795
    100          6           0        9.153493    4.840290    2.063426
    101          1           0        9.432413    4.162187    1.245004
    102          1           0        9.744997    4.519003    2.927541
    103          6           0        9.600792    6.264942    1.726121
    104          1           0       10.682620    6.294326    1.547136
    105          1           0        9.363873    6.935026    2.559733
    106          7           0        8.892415    6.771379    0.531583
    107          1           0        8.582869    6.081595   -0.142635
    108          7           0        9.254199    9.031577    0.924380
    109          1           0        8.911204    9.981490    0.893937
    110          1           0       10.061530    8.847079    1.502297
    111          7           0        7.765280    8.365206   -0.718798
    112          1           0        7.088566    7.693280   -1.053386
    113          1           0        7.721068    9.298287   -1.103642
    114          6           0        8.641473    8.048608    0.250079
    115          8           0        8.886376    2.400477    4.350672
    116          1           0        9.183718    2.341763    5.279166
 ---------------------------------------------------------------------

 SCF Done:  E(RB3LYP) =  -2782.31041973     A.U. after    1 cycles

 Alpha  occ. eigenvalues --  -19.26779 -19.21299 -19.20768 -19.19547 -19.19225
 Alpha  occ. eigenvalues --  -19.18724 -19.18635 -19.18221 -19.17786 -19.17771
 Alpha  occ. eigenvalues --  -19.15786 -14.55041 -14.54874 -14.54747 -14.43212
 Alpha  occ. eigenvalues --  -14.42382 -14.42250 -14.42239 -14.41778 -14.39623
 Alpha  occ. eigenvalues --  -14.39183 -10.51274 -10.39043 -10.38032 -10.36274
 Alpha  occ. eigenvalues --  -10.35747 -10.35431 -10.35281 -10.35267 -10.34481
 Alpha  occ. eigenvalues --  -10.32882 -10.32062 -10.31915 -10.30502 -10.30400
 Alpha  occ. eigenvalues --  -10.30255 -10.29754 -10.29295 -10.29234 -10.28016
 Alpha  occ. eigenvalues --  -10.27169 -10.25466 -10.24955 -10.24663 -10.24633
 Alpha  occ. eigenvalues --  -10.24577 -10.24505 -10.23899 -10.23740 -10.23684
 Alpha  occ. eigenvalues --  -10.23592 -10.23570 -10.23489 -10.23305 -10.22293
 Alpha  occ. eigenvalues --  -10.21808 -10.21775  -1.19650  -1.17511  -1.13389
 Alpha  occ. eigenvalues --   -1.10949  -1.10556  -1.10100  -1.09665  -1.09500
 Alpha  occ. eigenvalues --   -1.08832  -1.08489  -1.07811  -1.07609  -1.06641
 Alpha  occ. eigenvalues --   -1.04680  -0.99427  -0.99374  -0.99258  -0.98606
 Alpha  occ. eigenvalues --   -0.97947  -0.96859  -0.94730  -0.93017  -0.90124
 Alpha  occ. eigenvalues --   -0.87058  -0.86207  -0.85791  -0.84423  -0.83921
 Alpha  occ. eigenvalues --   -0.82483  -0.82351  -0.80716  -0.80680  -0.78975
 Alpha  occ. eigenvalues --   -0.78772  -0.78592  -0.78411  -0.76831  -0.74650
 Alpha  occ. eigenvalues --   -0.73407  -0.73086  -0.72617  -0.72536  -0.72258
 Alpha  occ. eigenvalues --   -0.70800  -0.70703  -0.69327  -0.68615  -0.67891
 Alpha  occ. eigenvalues --   -0.66993  -0.66652  -0.65550  -0.65354  -0.64862
 Alpha  occ. eigenvalues --   -0.64395  -0.63899  -0.63766  -0.63507  -0.62806
 Alpha  occ. eigenvalues --   -0.62614  -0.61834  -0.61573  -0.61247  -0.59809
 Alpha  occ. eigenvalues --   -0.59148  -0.58943  -0.58895  -0.58073  -0.57462
 Alpha  occ. eigenvalues --   -0.57130  -0.56425  -0.56047  -0.55503  -0.55071
 Alpha  occ. eigenvalues --   -0.54909  -0.54488  -0.54434  -0.54157  -0.53600
 Alpha  occ. eigenvalues --   -0.53392  -0.53216  -0.52083  -0.51732  -0.51651
 Alpha  occ. eigenvalues --   -0.51116  -0.50904  -0.50818  -0.50569  -0.50522
 Alpha  occ. eigenvalues --   -0.49813  -0.49410  -0.49348  -0.48940  -0.48877
 Alpha  occ. eigenvalues --   -0.48333  -0.48317  -0.48087  -0.47788  -0.47719
 Alpha  occ. eigenvalues --   -0.47231  -0.46932  -0.46762  -0.46623  -0.46515
 Alpha  occ. eigenvalues --   -0.46423  -0.46285  -0.46098  -0.45872  -0.45808
 Alpha  occ. eigenvalues --   -0.45428  -0.45311  -0.45053  -0.44872  -0.44657
 Alpha  occ. eigenvalues --   -0.44491  -0.44251  -0.43833  -0.43748  -0.43375
 Alpha  occ. eigenvalues --   -0.43152  -0.42947  -0.42898  -0.42773  -0.42511
 Alpha  occ. eigenvalues --   -0.42326  -0.42251  -0.42147  -0.41379  -0.40997
 Alpha  occ. eigenvalues --   -0.40964  -0.40827  -0.40309  -0.40170  -0.40010
 Alpha  occ. eigenvalues --   -0.38634  -0.38571  -0.38169  -0.37616  -0.37410
 Alpha  occ. eigenvalues --   -0.37156  -0.36987  -0.35288  -0.35009  -0.34732
 Alpha  occ. eigenvalues --   -0.34554  -0.34249  -0.33878  -0.33582  -0.32277
 Alpha  occ. eigenvalues --   -0.32082  -0.31746  -0.31210  -0.31161  -0.30889
 Alpha  occ. eigenvalues --   -0.30331  -0.30033  -0.29729  -0.29376  -0.29282
 Alpha  occ. eigenvalues --   -0.28980
 Alpha virt. eigenvalues --   -0.15181  -0.10855  -0.07357  -0.06725  -0.06184
 Alpha virt. eigenvalues --   -0.05853  -0.05661  -0.05384  -0.05251  -0.04724
 Alpha virt. eigenvalues --   -0.04330  -0.03820  -0.03578  -0.03124  -0.02560

 Mulliken charges:
               1
     1  N   -0.797302
     2  H    0.474489
     3  H    0.340024
     4  H    0.346597
     5  C   -0.081478
     6  H    0.151021
     7  C    0.628979
     8  C    0.140495
     9  H    0.161950
    10  O   -0.548846
    11  C   -0.487206
    12  H    0.185698
    13  H    0.168559
    14  H    0.134078
    15  O   -0.631177
    16  H    0.391925
    17  N   -0.654223
    18  H    0.419691
    19  C    0.013722
    20  H    0.193109
    21  C    0.578156
    22  C   -0.414071
    23  H    0.140183
    24  H    0.197840
    25  O   -0.525363
    26  C    0.190514
    27  C   -0.203954
    28  H    0.156094
    29  C   -0.199015
    30  H    0.114134
    31  C   -0.141173
    32  H    0.141901
    33  C   -0.116635
    34  H    0.132370
    35  C   -0.128713
    36  H    0.139619
    37  N   -0.607984
    38  H    0.345246
    39  C   -0.056849
    40  H    0.195570
    41  C    0.621158
    42  C   -0.460342
    43  H    0.172553
    44  H    0.164417
    45  H    0.158578
    46  O   -0.554177
    47  N   -0.619664
    48  H    0.403684
    49  C   -0.065089
    50  H    0.176209
    51  C    0.628301
    52  C   -0.282792
    53  H    0.162351
    54  H    0.192308
    55  O   -0.546721
    56  C   -0.364422
    57  H    0.183751
    58  H    0.175877
    59  C    0.596351
    60  O   -0.599460
    61  O   -0.517820
    62  N   -0.617797
    63  H    0.384690
    64  C   -0.051691
    65  H    0.180181
    66  C    0.629023
    67  C   -0.460574
    68  H    0.142870
    69  H    0.171030
    70  H    0.160884
    71  O   -0.572958
    72  N   -0.620654
    73  H    0.392385
    74  C   -0.071707
    75  H    0.175033
    76  C    0.639250
    77  C   -0.283864
    78  H    0.164005
    79  H    0.159327
    80  O   -0.517657
    81  C   -0.091901
    82  H    0.138211
    83  C   -0.443300
    84  H    0.146248
    85  H    0.150597
    86  H    0.141941
    87  C   -0.452215
    88  H    0.146090
    89  H    0.145697
    90  H    0.141878
    91  N   -0.652855
    92  H    0.375257
    93  C    0.027941
    94  H    0.172425
    95  C    0.597396
    96  C   -0.313018
    97  H    0.177830
    98  H    0.138154
    99  O   -0.455552
   100  C   -0.318812
   101  H    0.168893
   102  H    0.201057
   103  C   -0.161025
   104  H    0.195526
   105  H    0.189563
   106  N   -0.592848
   107  H    0.370789
   108  N   -0.750703
   109  H    0.390591
   110  H    0.396917
   111  N   -0.759332
   112  H    0.391794
   113  H    0.388926
   114  C    0.830862
   115  O   -0.567796
   116  H    0.419972
 Sum of Mulliken charges =   1.00000

 Dipole moment (field-independent basis, Debye):
    X=             32.1314    Y=             34.1957    Z=             -2.6689  Tot=             46.9989
 Quadrupole moment (field-independent basis, Debye-Ang):
   XX=             27.6257   YY=            -38.5544   ZZ=           -323.4028
   XY=            306.5036   XZ=             12.3509   YZ=             -7.0457

 Normal termination of Gaussian 16 at Thu Jun 30 14:46:06 2022.
