 Gaussian 16, Revision C.01,
 Gaussian 16:  ES64L-G16RevC.01  3-Jul-2019

 -------------------------------------------------------------------
 # B3LYP/6-31G* guess=read geom=check nosymm integral(ultrafinegrid)
 -------------------------------------------------------------------

 ------------------------------------------------------
 Candidate Structure: Conf:197 Charge calc in gas phase
 ------------------------------------------------------
 Structure from the checkpoint file:  "conf-197.chk"
 Charge =  1 Multiplicity = 1

                          Input orientation:
 ---------------------------------------------------------------------
 Center     Atomic      Atomic             Coordinates (Angstroms)
 Number     Number       Type             X           Y           Z
 ---------------------------------------------------------------------
      1          7           0       -7.280014   -4.304631   -2.901141
      2          1           0       -6.782240   -4.271388   -1.997145
      3          1           0       -7.759036   -3.401543   -3.060994
      4          1           0       -7.990951   -5.036800   -2.850440
      5          6           0       -6.364473   -4.489996   -4.083419
      6          1           0       -6.085788   -5.545479   -4.158805
      7          6           0       -5.105966   -3.641639   -3.823145
      8          6           0       -7.104768   -4.026555   -5.347348
      9          1           0       -6.378556   -4.001582   -6.168719
     10          8           0       -5.008109   -2.492594   -4.264548
     11          6           0       -8.275731   -4.913210   -5.739603
     12          1           0       -7.948230   -5.940424   -5.930913
     13          1           0       -8.739502   -4.521225   -6.647203
     14          1           0       -9.047786   -4.932547   -4.962579
     15          8           0       -7.610221   -2.717272   -5.099981
     16          1           0       -6.820886   -2.151673   -4.984799
     17          7           0       -4.217793   -4.222488   -3.013039
     18          1           0       -4.429650   -5.141964   -2.644999
     19          6           0       -3.234204   -3.455943   -2.233678
     20          1           0       -3.663251   -2.460786   -2.076886
     21          6           0       -1.897684   -3.245070   -2.964660
     22          6           0       -3.087081   -4.168708   -0.881142
     23          1           0       -2.542124   -5.107278   -1.028559
     24          1           0       -2.512100   -3.532004   -0.194935
     25          8           0       -0.847439   -3.697877   -2.523356
     26          6           0       -4.463738   -4.391215   -0.311381
     27          6           0       -5.200638   -3.271432    0.112402
     28          1           0       -4.710266   -2.301237    0.101207
     29          6           0       -5.064866   -5.655405   -0.266468
     30          1           0       -4.499052   -6.528932   -0.585415
     31          6           0       -6.516152   -3.421100    0.553415
     32          1           0       -7.071746   -2.549000    0.886701
     33          6           0       -6.385886   -5.805840    0.175037
     34          1           0       -6.837411   -6.793908    0.204932
     35          6           0       -7.117540   -4.686896    0.577365
     36          1           0       -8.140328   -4.800147    0.926363
     37          7           0       -1.949970   -2.503386   -4.111423
     38          1           0       -2.827058   -2.090330   -4.409118
     39          6           0       -0.716265   -1.886035   -4.619023
     40          1           0        0.071594   -2.622153   -4.443869
     41          6           0       -0.506212   -0.582485   -3.802232
     42          6           0       -0.820147   -1.518354   -6.092062
     43          1           0        0.132625   -1.114210   -6.447235
     44          1           0       -1.590411   -0.755778   -6.238430
     45          1           0       -1.069804   -2.400034   -6.690150
     46          8           0       -1.361621    0.298897   -3.893186
     47          7           0        0.540090   -0.489193   -2.945545
     48          1           0        1.236636   -1.217479   -2.876831
     49          6           0        0.592872    0.593732   -1.960591
     50          1           0       -0.017444    1.405041   -2.361677
     51          6           0        2.043560    0.991927   -1.773389
     52          6           0        0.011531    0.201798   -0.571150
     53          1           0        0.071038    1.061469    0.104617
     54          1           0        0.648012   -0.578020   -0.140260
     55          8           0        2.956551    0.176621   -1.818436
     56          6           0       -1.410301   -0.328171   -0.675887
     57          1           0       -2.089496    0.380965   -1.156905
     58          1           0       -1.385360   -1.229019   -1.280264
     59          6           0       -2.052774   -0.802434    0.655366
     60          8           0       -3.273081   -1.123295    0.549573
     61          8           0       -1.312903   -0.893384    1.655584
     62          7           0        2.271441    2.324212   -1.469081
     63          1           0        1.437831    2.864814   -1.272177
     64          6           0        3.384371    2.637011   -0.577028
     65          1           0        4.241995    2.069136   -0.943097
     66          6           0        3.037856    2.180534    0.862036
     67          6           0        3.665415    4.138406   -0.566695
     68          1           0        4.564764    4.354529    0.021643
     69          1           0        2.826190    4.668523   -0.105845
     70          1           0        3.809762    4.507058   -1.585160
     71          8           0        1.954002    2.474667    1.373922
     72          7           0        4.010884    1.499630    1.518457
     73          1           0        4.918863    1.418316    1.085098
     74          6           0        3.869597    1.088561    2.915911
     75          1           0        2.804145    1.156066    3.148927
     76          6           0        4.536508    2.117042    3.838305
     77          6           0        4.325651   -0.349898    3.129797
     78          1           0        5.399618   -0.429034    2.921416
     79          1           0        4.195170   -0.591371    4.190281
     80          8           0        5.456511    1.867849    4.602451
     81          6           0        3.532266   -1.365671    2.281428
     82          1           0        3.795084   -1.214097    1.225515
     83          6           0        3.937573   -2.789312    2.678048
     84          1           0        3.649915   -2.999151    3.715097
     85          1           0        5.020434   -2.938243    2.592812
     86          1           0        3.446271   -3.529012    2.038126
     87          6           0        2.014494   -1.171167    2.418542
     88          1           0        1.715214   -1.156893    3.474289
     89          1           0        1.466891   -1.985744    1.937406
     90          1           0        1.659973   -0.243019    1.962890
     91          7           0        3.999032    3.382261    3.707580
     92          1           0        3.124297    3.460092    3.198114
     93          6           0        4.290423    4.393936    4.700255
     94          1           0        5.211552    4.063254    5.196179
     95          6           0        3.241989    4.478164    5.814709
     96          6           0        4.510718    5.783576    4.089633
     97          1           0        4.591741    6.500939    4.911883
     98          1           0        3.629809    6.070707    3.502030
     99          8           0        3.179156    5.394414    6.603409
    100          6           0        5.765800    5.837807    3.218371
    101          1           0        5.665548    5.143175    2.375779
    102          1           0        6.633366    5.514373    3.805089
    103          6           0        6.024260    7.244579    2.687283
    104          1           0        6.139309    7.938074    3.526882
    105          1           0        5.171620    7.585353    2.083788
    106          7           0        7.263907    7.267060    1.882523
    107          1           0        7.457637    6.407840    1.381222
    108          7           0        7.289110    9.585546    1.663509
    109          1           0        7.507230   10.375952    1.071507
    110          1           0        6.389017    9.635226    2.121314
    111          7           0        8.778597    8.278483    0.436985
    112          1           0        9.332011    7.430035    0.466450
    113          1           0        9.339983    9.108144    0.287676
    114          6           0        7.762952    8.374802    1.326206
    115          8           0        2.424769    3.409884    5.847372
    116          1           0        1.826917    3.539215    6.605760
 ---------------------------------------------------------------------

 SCF Done:  E(RB3LYP) =  -2782.17872123     A.U. after    1 cycles

 Alpha  occ. eigenvalues --  -19.26318 -19.24872 -19.23277 -19.20595 -19.18001
 Alpha  occ. eigenvalues --  -19.17533 -19.15874 -19.15819 -19.13167 -19.03301
 Alpha  occ. eigenvalues --  -19.02747 -14.58258 -14.55257 -14.54940 -14.54836
 Alpha  occ. eigenvalues --  -14.46579 -14.42563 -14.42165 -14.40205 -14.39636
 Alpha  occ. eigenvalues --  -14.38345 -10.51313 -10.40210 -10.38790 -10.37716
 Alpha  occ. eigenvalues --  -10.37698 -10.35696 -10.34641 -10.34484 -10.33122
 Alpha  occ. eigenvalues --  -10.32415 -10.31426 -10.31189 -10.30769 -10.29446
 Alpha  occ. eigenvalues --  -10.29386 -10.28929 -10.28374 -10.27834 -10.26724
 Alpha  occ. eigenvalues --  -10.26031 -10.25675 -10.25379 -10.25359 -10.25266
 Alpha  occ. eigenvalues --  -10.25078 -10.24732 -10.23594 -10.22616 -10.21865
 Alpha  occ. eigenvalues --  -10.21823 -10.21659 -10.20843 -10.19228 -10.18284
 Alpha  occ. eigenvalues --  -10.17289 -10.15024  -1.19949  -1.17363  -1.16051
 Alpha  occ. eigenvalues --   -1.13160  -1.11440  -1.10013  -1.09238  -1.09047
 Alpha  occ. eigenvalues --   -1.08300  -1.08261  -1.07827  -1.07655  -1.05286
 Alpha  occ. eigenvalues --   -1.03222  -0.99599  -0.98357  -0.96985  -0.96205
 Alpha  occ. eigenvalues --   -0.95807  -0.94229  -0.92609  -0.91744  -0.90077
 Alpha  occ. eigenvalues --   -0.87596  -0.86353  -0.85841  -0.84651  -0.83069
 Alpha  occ. eigenvalues --   -0.83036  -0.81840  -0.81250  -0.80195  -0.79642
 Alpha  occ. eigenvalues --   -0.79075  -0.78287  -0.77938  -0.76754  -0.73281
 Alpha  occ. eigenvalues --   -0.72751  -0.72502  -0.71977  -0.71556  -0.71375
 Alpha  occ. eigenvalues --   -0.70710  -0.70303  -0.69571  -0.69435  -0.69307
 Alpha  occ. eigenvalues --   -0.67611  -0.67459  -0.67045  -0.66790  -0.66075
 Alpha  occ. eigenvalues --   -0.65225  -0.64945  -0.64472  -0.63741  -0.63626
 Alpha  occ. eigenvalues --   -0.62954  -0.62395  -0.61869  -0.61220  -0.60410
 Alpha  occ. eigenvalues --   -0.60287  -0.60185  -0.59426  -0.59346  -0.58719
 Alpha  occ. eigenvalues --   -0.58197  -0.57380  -0.56900  -0.56174  -0.55548
 Alpha  occ. eigenvalues --   -0.55369  -0.54923  -0.54610  -0.54367  -0.53483
 Alpha  occ. eigenvalues --   -0.52816  -0.52459  -0.52096  -0.51703  -0.51382
 Alpha  occ. eigenvalues --   -0.51114  -0.50963  -0.50563  -0.50106  -0.49736
 Alpha  occ. eigenvalues --   -0.49089  -0.49068  -0.49002  -0.48617  -0.48115
 Alpha  occ. eigenvalues --   -0.48017  -0.47739  -0.47714  -0.47615  -0.47352
 Alpha  occ. eigenvalues --   -0.47104  -0.46676  -0.46543  -0.46404  -0.46223
 Alpha  occ. eigenvalues --   -0.45761  -0.45609  -0.45150  -0.44665  -0.44622
 Alpha  occ. eigenvalues --   -0.44311  -0.44248  -0.44193  -0.44009  -0.43774
 Alpha  occ. eigenvalues --   -0.43767  -0.43581  -0.42979  -0.42483  -0.42363
 Alpha  occ. eigenvalues --   -0.42240  -0.41779  -0.41625  -0.41150  -0.40912
 Alpha  occ. eigenvalues --   -0.40480  -0.39866  -0.39639  -0.39568  -0.39149
 Alpha  occ. eigenvalues --   -0.38735  -0.38718  -0.38624  -0.38293  -0.37713
 Alpha  occ. eigenvalues --   -0.37030  -0.36797  -0.36536  -0.35924  -0.35475
 Alpha  occ. eigenvalues --   -0.34672  -0.34553  -0.34297  -0.33963  -0.33357
 Alpha  occ. eigenvalues --   -0.32448  -0.32140  -0.31650  -0.31432  -0.30713
 Alpha  occ. eigenvalues --   -0.30576  -0.30214  -0.29940  -0.29618  -0.29168
 Alpha  occ. eigenvalues --   -0.28963  -0.27230  -0.26297  -0.19048  -0.17956
 Alpha  occ. eigenvalues --   -0.17043
 Alpha virt. eigenvalues --   -0.16228  -0.11395  -0.10912  -0.06985  -0.06880
 Alpha virt. eigenvalues --   -0.06480  -0.06296  -0.06234  -0.05868  -0.05292
 Alpha virt. eigenvalues --   -0.05184  -0.03479  -0.03285  -0.03062  -0.02465

 Mulliken charges:
               1
     1  N   -0.744284
     2  H    0.439970
     3  H    0.419990
     4  H    0.415009
     5  C   -0.148382
     6  H    0.206584
     7  C    0.629685
     8  C    0.116908
     9  H    0.184958
    10  O   -0.524992
    11  C   -0.466725
    12  H    0.167598
    13  H    0.209816
    14  H    0.140147
    15  O   -0.636823
    16  H    0.439932
    17  N   -0.580274
    18  H    0.341673
    19  C   -0.085084
    20  H    0.228387
    21  C    0.647514
    22  C   -0.392610
    23  H    0.161792
    24  H    0.257210
    25  O   -0.516694
    26  C    0.113884
    27  C   -0.183555
    28  H    0.257802
    29  C   -0.235053
    30  H    0.133860
    31  C   -0.168823
    32  H    0.157409
    33  C   -0.163722
    34  H    0.137588
    35  C   -0.174451
    36  H    0.140053
    37  N   -0.610828
    38  H    0.358271
    39  C   -0.038727
    40  H    0.167827
    41  C    0.630364
    42  C   -0.468522
    43  H    0.161176
    44  H    0.175575
    45  H    0.147200
    46  O   -0.543800
    47  N   -0.601535
    48  H    0.345700
    49  C   -0.071766
    50  H    0.173497
    51  C    0.614317
    52  C   -0.262518
    53  H    0.159560
    54  H    0.161198
    55  O   -0.530479
    56  C   -0.367704
    57  H    0.136843
    58  H    0.125287
    59  C    0.557083
    60  O   -0.632753
    61  O   -0.588962
    62  N   -0.583387
    63  H    0.335387
    64  C   -0.053983
    65  H    0.169248
    66  C    0.631492
    67  C   -0.468580
    68  H    0.118436
    69  H    0.167802
    70  H    0.173029
    71  O   -0.544168
    72  N   -0.582020
    73  H    0.330875
    74  C   -0.102807
    75  H    0.225190
    76  C    0.609341
    77  C   -0.262216
    78  H    0.129289
    79  H    0.156259
    80  O   -0.506636
    81  C   -0.078496
    82  H    0.131886
    83  C   -0.441713
    84  H    0.141845
    85  H    0.129177
    86  H    0.150514
    87  C   -0.461542
    88  H    0.135311
    89  H    0.172212
    90  H    0.180431
    91  N   -0.620526
    92  H    0.356128
    93  C   -0.065610
    94  H    0.217083
    95  C    0.597106
    96  C   -0.282191
    97  H    0.185139
    98  H    0.154744
    99  O   -0.461732
   100  C   -0.311673
   101  H    0.170671
   102  H    0.180931
   103  C   -0.167506
   104  H    0.195847
   105  H    0.187702
   106  N   -0.585990
   107  H    0.372513
   108  N   -0.730954
   109  H    0.389511
   110  H    0.397171
   111  N   -0.731847
   112  H    0.385864
   113  H    0.384371
   114  C    0.780725
   115  O   -0.550302
   116  H    0.428046
 Sum of Mulliken charges =   1.00000

 Dipole moment (field-independent basis, Debye):
    X=             14.6525    Y=             22.7171    Z=             -8.6966  Tot=             28.3971
 Quadrupole moment (field-independent basis, Debye-Ang):
   XX=             82.6678   YY=             70.6312   ZZ=           -305.1202
   XY=            404.3791   XZ=            103.5070   YZ=            103.0522

 Normal termination of Gaussian 16 at Thu Jun 30 14:46:07 2022.
