 Gaussian 16, Revision C.01,
 Gaussian 16:  ES64L-G16RevC.01  3-Jul-2019

 -------------------------------------------------------------------
 # B3LYP/6-31G* guess=read geom=check nosymm integral(ultrafinegrid)
 -------------------------------------------------------------------

 ------------------------------------------------------
 Candidate Structure: Conf:669 Charge calc in gas phase
 ------------------------------------------------------
 Structure from the checkpoint file:  "conf-669.chk"
 Charge =  1 Multiplicity = 1

                          Input orientation:
 ---------------------------------------------------------------------
 Center     Atomic      Atomic             Coordinates (Angstroms)
 Number     Number       Type             X           Y           Z
 ---------------------------------------------------------------------
      1          7           0       -4.156641    0.013712   -4.567740
      2          1           0       -5.153442   -0.050736   -4.769253
      3          1           0       -3.744042    0.597668   -5.293215
      4          6           0       -3.974297    0.615935   -3.242081
      5          1           0       -4.263244    1.683542   -3.197645
      6          6           0       -2.475729    0.514737   -2.922551
      7          6           0       -4.801443   -0.150151   -2.191099
      8          1           0       -4.457933   -1.188346   -2.193811
      9          1           0       -4.567606    0.265882   -1.203392
     10          8           0       -1.979125   -0.459192   -2.348413
     11          6           0       -6.292149   -0.072475   -2.445971
     12          6           0       -6.962600   -1.108391   -3.112262
     13          1           0       -6.406350   -1.989876   -3.422584
     14          6           0       -7.031502    1.049001   -2.041590
     15          1           0       -6.530974    1.858470   -1.513271
     16          6           0       -8.332724   -1.024378   -3.371104
     17          1           0       -8.835057   -1.839488   -3.884888
     18          6           0       -8.399719    1.135857   -2.297447
     19          1           0       -8.956349    2.010525   -1.971606
     20          6           0       -9.054747    0.098238   -2.965000
     21          1           0      -10.121170    0.163079   -3.161854
     22          7           0       -1.730341    1.581058   -3.335735
     23          1           0       -2.190436    2.241238   -3.954002
     24          6           0       -0.282232    1.505407   -3.568819
     25          1           0       -0.059302    0.534205   -4.033394
     26          6           0        0.561993    1.606633   -2.280375
     27          6           0        0.112986    2.632060   -4.528908
     28          1           0        1.147381    2.473720   -4.855723
     29          1           0        0.071650    3.594928   -4.002958
     30          8           0        1.433590    2.474021   -2.142326
     31          8           0       -0.807401    2.586185   -5.614581
     32          1           0       -0.594690    3.309132   -6.223987
     33          7           0        0.317084    0.653183   -1.353652
     34          1           0       -0.439867   -0.012585   -1.568261
     35          6           0        0.930374    0.681628   -0.033938
     36          1           0        1.011044    1.731323    0.278687
     37          6           0        2.369126    0.103189   -0.022816
     38          6           0        0.030653   -0.077776    0.955797
     39          1           0       -0.203007   -1.075500    0.564441
     40          1           0       -0.906911    0.465129    1.094591
     41          8           0        2.656508   -0.904132    0.654568
     42          8           0        0.659217   -0.197658    2.235819
     43          1           0        1.466403   -0.726830    2.039502
     44          7           0        3.264673    0.797714   -0.740936
     45          1           0        2.911475    1.609462   -1.255834
     46          6           0        4.691064    0.446907   -0.829212
     47          1           0        4.767456   -0.641821   -0.890183
     48          6           0        5.414139    0.937946    0.451844
     49          6           0        5.289426    1.098552   -2.076082
     50          1           0        4.721151    0.780785   -2.959136
     51          1           0        5.222406    2.187616   -2.011140
     52          8           0        6.062049    1.976162    0.480458
     53          6           0        6.749019    0.770205   -2.336096
     54          8           0        7.477334    1.419903   -3.044234
     55          8           0        7.136559   -0.372795   -1.716457
     56          7           0        5.206068    0.136089    1.533840
     57          1           0        4.569218   -0.646610    1.415398
     58          6           0        5.651688    0.481597    2.868766
     59          1           0        6.325076    1.340080    2.744445
     60          6           0        6.485076   -0.628146    3.521462
     61          6           0        4.466872    0.867091    3.777097
     62          1           0        4.803591    0.836679    4.816744
     63          1           0        3.701297    0.084332    3.677501
     64          8           0        6.536801   -0.816575    4.717357
     65          6           0        3.869857    2.240773    3.424216
     66          1           0        3.972717    2.442621    2.352035
     67          1           0        4.433885    3.037370    3.928028
     68          6           0        2.378311    2.367915    3.746507
     69          1           0        2.018122    3.378802    3.520535
     70          1           0        1.811677    1.665010    3.133925
     71          7           0        2.095332    2.076397    5.165205
     72          1           0        2.728334    2.492745    5.837073
     73          7           0        0.260536    0.646047    4.898889
     74          1           0       -0.568830    0.243003    5.311505
     75          1           0        0.437203    0.413893    3.911051
     76          7           0        0.848269    1.413316    6.996701
     77          1           0        1.366798    2.035860    7.598935
     78          1           0        0.301617    0.695022    7.449391
     79          6           0        1.075296    1.372861    5.665274
     80          8           0        7.182039   -1.347868    2.624211
     81          1           0        7.712380   -1.989310    3.135535
     82          1           0        8.077271   -0.504596   -1.942262
 ---------------------------------------------------------------------

 SCF Done:  E(RB3LYP) =  -2166.28983368     A.U. after    1 cycles

 Alpha  occ. eigenvalues --  -19.27949 -19.27196 -19.26370 -19.23912 -19.23487
 Alpha  occ. eigenvalues --  -19.22382 -19.22103 -19.21008 -19.20127 -19.20098
 Alpha  occ. eigenvalues --  -14.52572 -14.52447 -14.51040 -14.46372 -14.45413
 Alpha  occ. eigenvalues --  -14.44985 -14.44414 -14.38389 -10.48716 -10.40578
 Alpha  occ. eigenvalues --  -10.39874 -10.38908 -10.38852 -10.37334 -10.37264
 Alpha  occ. eigenvalues --  -10.35629 -10.34911 -10.34321 -10.33031 -10.32852
 Alpha  occ. eigenvalues --  -10.32804 -10.32428 -10.30316 -10.29883 -10.29319
 Alpha  occ. eigenvalues --  -10.28271 -10.25432 -10.25259 -10.24568 -10.24488
 Alpha  occ. eigenvalues --  -10.24396 -10.24334 -10.24257  -1.19016  -1.17030
 Alpha  occ. eigenvalues --   -1.16920  -1.15559  -1.13806  -1.13181  -1.12404
 Alpha  occ. eigenvalues --   -1.11951  -1.11115  -1.09963  -1.08021  -1.06393
 Alpha  occ. eigenvalues --   -1.04692  -1.03182  -1.02207  -1.01412  -1.01132
 Alpha  occ. eigenvalues --   -0.95911  -0.91383  -0.90864  -0.88856  -0.86827
 Alpha  occ. eigenvalues --   -0.85905  -0.84526  -0.83527  -0.80857  -0.79820
 Alpha  occ. eigenvalues --   -0.78535  -0.78145  -0.77778  -0.75261  -0.74430
 Alpha  occ. eigenvalues --   -0.73162  -0.72971  -0.71860  -0.70392  -0.69976
 Alpha  occ. eigenvalues --   -0.68332  -0.67491  -0.66948  -0.66930  -0.66783
 Alpha  occ. eigenvalues --   -0.65950  -0.65867  -0.64864  -0.63425  -0.63256
 Alpha  occ. eigenvalues --   -0.62600  -0.61888  -0.61242  -0.60501  -0.59936
 Alpha  occ. eigenvalues --   -0.59748  -0.59289  -0.59151  -0.58123  -0.57581
 Alpha  occ. eigenvalues --   -0.56920  -0.56702  -0.56212  -0.56072  -0.55880
 Alpha  occ. eigenvalues --   -0.55366  -0.54748  -0.54205  -0.54002  -0.53789
 Alpha  occ. eigenvalues --   -0.53659  -0.52565  -0.52168  -0.51852  -0.51668
 Alpha  occ. eigenvalues --   -0.51386  -0.51030  -0.50727  -0.50286  -0.50047
 Alpha  occ. eigenvalues --   -0.49132  -0.48832  -0.48759  -0.48261  -0.48085
 Alpha  occ. eigenvalues --   -0.47690  -0.47562  -0.47343  -0.46801  -0.46457
 Alpha  occ. eigenvalues --   -0.45947  -0.45684  -0.45408  -0.45348  -0.45101
 Alpha  occ. eigenvalues --   -0.44854  -0.44805  -0.44754  -0.43034  -0.43024
 Alpha  occ. eigenvalues --   -0.42849  -0.40860  -0.40797  -0.40078  -0.39754
 Alpha  occ. eigenvalues --   -0.39389  -0.39313  -0.38755  -0.38153  -0.37752
 Alpha  occ. eigenvalues --   -0.37280  -0.37035  -0.36319  -0.35241  -0.34547
 Alpha  occ. eigenvalues --   -0.34067  -0.33843  -0.33449  -0.32937  -0.30725
 Alpha  occ. eigenvalues --   -0.30360  -0.29787
 Alpha virt. eigenvalues --   -0.12284  -0.09900  -0.08873  -0.08167  -0.07759
 Alpha virt. eigenvalues --   -0.07142  -0.05960  -0.05773  -0.05587  -0.05316
 Alpha virt. eigenvalues --   -0.04912  -0.04293  -0.03136  -0.01426  -0.01051

 Mulliken charges:
               1
     1  N   -0.719975
     2  H    0.324408
     3  H    0.306253
     4  C   -0.069766
     5  H    0.124321
     6  C    0.654498
     7  C   -0.343945
     8  H    0.183245
     9  H    0.138890
    10  O   -0.547636
    11  C    0.142945
    12  C   -0.193620
    13  H    0.144383
    14  C   -0.179379
    15  H    0.117962
    16  C   -0.127407
    17  H    0.142885
    18  C   -0.127714
    19  H    0.137721
    20  C   -0.129116
    21  H    0.142095
    22  N   -0.611726
    23  H    0.358967
    24  C   -0.072371
    25  H    0.200007
    26  C    0.633450
    27  C   -0.059229
    28  H    0.164245
    29  H    0.161665
    30  O   -0.551032
    31  O   -0.632102
    32  H    0.416931
    33  N   -0.635340
    34  H    0.404948
    35  C   -0.073018
    36  H    0.181775
    37  C    0.641023
    38  C   -0.066223
    39  H    0.181717
    40  H    0.174766
    41  O   -0.582759
    42  O   -0.668408
    43  H    0.442905
    44  N   -0.630401
    45  H    0.396898
    46  C   -0.053807
    47  H    0.202370
    48  C    0.645150
    49  C   -0.390713
    50  H    0.191758
    51  H    0.211836
    52  O   -0.521345
    53  C    0.607448
    54  O   -0.445942
    55  O   -0.572750
    56  N   -0.610763
    57  H    0.364978
    58  C   -0.072796
    59  H    0.224005
    60  C    0.589602
    61  C   -0.263763
    62  H    0.176974
    63  H    0.132848
    64  O   -0.461117
    65  C   -0.308573
    66  H    0.193504
    67  H    0.164896
    68  C   -0.175726
    69  H    0.191577
    70  H    0.185246
    71  N   -0.600773
    72  H    0.359116
    73  N   -0.794103
    74  H    0.371108
    75  H    0.447866
    76  N   -0.764609
    77  H    0.379172
    78  H    0.380916
    79  C    0.819812
    80  O   -0.546961
    81  H    0.424056
    82  H    0.421764
 Sum of Mulliken charges =   1.00000

 Dipole moment (field-independent basis, Debye):
    X=              0.6383    Y=              6.8070    Z=             14.8497  Tot=             16.3479
 Quadrupole moment (field-independent basis, Debye-Ang):
   XX=           -205.3166   YY=           -229.1517   ZZ=            -89.3611
   XY=            -21.5443   XZ=             40.8114   YZ=             14.9843

 Normal termination of Gaussian 16 at Thu May 26 20:50:27 2022.
