 Gaussian 16, Revision C.01,
 Gaussian 16:  ES64L-G16RevC.01  3-Jul-2019

 -------------------------------------------------------------------
 # B3LYP/6-31G* guess=read geom=check nosymm integral(ultrafinegrid)
 -------------------------------------------------------------------

 ------------------------------------------------------
 Candidate Structure: Conf:472 Charge calc in gas phase
 ------------------------------------------------------
 Structure from the checkpoint file:  "conf-472.chk"
 Charge =  1 Multiplicity = 1

                          Input orientation:
 ---------------------------------------------------------------------
 Center     Atomic      Atomic             Coordinates (Angstroms)
 Number     Number       Type             X           Y           Z
 ---------------------------------------------------------------------
      1          7           0       -4.976803   -1.924905   -2.698592
      2          1           0       -4.804212   -2.493761   -3.526420
      3          1           0       -4.520797   -2.421902   -1.932890
      4          6           0       -4.333088   -0.627689   -2.851327
      5          1           0       -4.621098   -0.218570   -3.826874
      6          6           0       -2.794556   -0.726224   -2.790851
      7          6           0       -4.862019    0.338087   -1.752283
      8          1           0       -5.952896    0.245945   -1.781344
      9          1           0       -4.538243   -0.038935   -0.773634
     10          8           0       -2.239804   -1.657764   -2.195323
     11          6           0       -4.439319    1.781866   -1.924672
     12          6           0       -3.514943    2.381997   -1.059026
     13          1           0       -3.117183    1.805766   -0.225605
     14          6           0       -4.950144    2.549682   -2.984220
     15          1           0       -5.687451    2.113729   -3.655350
     16          6           0       -3.102990    3.702971   -1.246676
     17          1           0       -2.384067    4.148732   -0.564549
     18          6           0       -4.540257    3.870137   -3.177032
     19          1           0       -4.953028    4.448329   -3.999048
     20          6           0       -3.611925    4.450505   -2.309470
     21          1           0       -3.293367    5.478152   -2.458049
     22          7           0       -2.088939    0.253048   -3.423425
     23          1           0       -2.582803    1.107592   -3.660634
     24          6           0       -0.622644    0.281596   -3.474552
     25          1           0       -0.299797   -0.750740   -3.649285
     26          6           0        0.009513    0.757400   -2.151912
     27          6           0       -0.163038    1.133953   -4.664621
     28          1           0        0.923249    1.235434   -4.633507
     29          1           0       -0.582661    2.148965   -4.580434
     30          8           0        0.637013    1.816460   -2.055929
     31          8           0       -0.475440    0.520970   -5.898856
     32          1           0       -1.439535    0.435756   -5.962838
     33          7           0       -0.143798   -0.105818   -1.113955
     34          1           0       -0.715514   -0.937845   -1.286760
     35          6           0        0.278279    0.226723    0.240270
     36          1           0        0.090328    1.296650    0.399617
     37          6           0        1.795666   -0.001541    0.467012
     38          6           0       -0.547637   -0.593580    1.245845
     39          1           0       -0.515004   -1.657674    0.979891
     40          1           0       -1.589891   -0.266210    1.224951
     41          8           0        2.205499   -0.836540    1.296914
     42          8           0       -0.061696   -0.416320    2.578857
     43          1           0        0.859376   -0.763906    2.526630
     44          7           0        2.603519    0.793847   -0.250609
     45          1           0        2.154934    1.442381   -0.902537
     46          6           0        4.068611    0.772132   -0.133909
     47          1           0        4.390614   -0.267985   -0.039571
     48          6           0        4.479597    1.554143    1.141171
     49          6           0        4.695266    1.403918   -1.373206
     50          1           0        4.273714    0.966093   -2.285698
     51          1           0        4.496621    2.480238   -1.397724
     52          8           0        4.784390    2.740374    1.108942
     53          6           0        6.195432    1.191364   -1.381900
     54          8           0        6.804666    0.521998   -0.576833
     55          8           0        6.776259    1.832213   -2.414652
     56          7           0        4.391079    0.820770    2.284026
     57          1           0        4.036689   -0.126190    2.204585
     58          6           0        4.598332    1.383866    3.602751
     59          1           0        5.079823    2.357066    3.440790
     60          6           0        5.569592    0.560822    4.457320
     61          6           0        3.264773    1.581144    4.353956
     62          1           0        3.485134    1.720944    5.415772
     63          1           0        2.695701    0.643895    4.273667
     64          8           0        5.587334    0.597243    5.668516
     65          6           0        2.436622    2.753734    3.798325
     66          1           0        2.621381    2.883960    2.726423
     67          1           0        2.756826    3.694723    4.265995
     68          6           0        0.925088    2.574417    3.962044
     69          1           0        0.387987    3.457486    3.595232
     70          1           0        0.594033    1.713785    3.378582
     71          7           0        0.549618    2.350548    5.371859
     72          1           0        1.012786    2.941490    6.051398
     73          7           0       -0.928948    0.557301    5.089434
     74          1           0       -1.701527    0.026201    5.465616
     75          1           0       -0.598928    0.282369    4.153983
     76          7           0       -0.736901    1.600123    7.141524
     77          1           0       -0.418591    2.363097    7.720991
     78          1           0       -1.176480    0.824059    7.615090
     79          6           0       -0.360939    1.496897    5.847805
     80          8           0        6.414227   -0.179067    3.719732
     81          1           0        7.018737   -0.623085    4.345487
     82          1           0        7.733690    1.649305   -2.358630
 ---------------------------------------------------------------------

 SCF Done:  E(RB3LYP) =  -2166.29329912     A.U. after    1 cycles

 Alpha  occ. eigenvalues --  -19.27806 -19.27439 -19.26374 -19.23485 -19.22336
 Alpha  occ. eigenvalues --  -19.22169 -19.22148 -19.21767 -19.20924 -19.19935
 Alpha  occ. eigenvalues --  -14.52676 -14.52566 -14.51211 -14.46426 -14.46066
 Alpha  occ. eigenvalues --  -14.46056 -14.44377 -14.38996 -10.48841 -10.40449
 Alpha  occ. eigenvalues --  -10.39932 -10.39324 -10.39003 -10.38019 -10.37182
 Alpha  occ. eigenvalues --  -10.35708 -10.35370 -10.34612 -10.32949 -10.32663
 Alpha  occ. eigenvalues --  -10.32525 -10.31551 -10.30995 -10.30248 -10.29285
 Alpha  occ. eigenvalues --  -10.28345 -10.27957 -10.27329 -10.27247 -10.27132
 Alpha  occ. eigenvalues --  -10.26971 -10.26916 -10.26764  -1.18872  -1.17425
 Alpha  occ. eigenvalues --   -1.17048  -1.15720  -1.14078  -1.13350  -1.13040
 Alpha  occ. eigenvalues --   -1.11839  -1.09807  -1.09747  -1.08504  -1.06506
 Alpha  occ. eigenvalues --   -1.04836  -1.03326  -1.02513  -1.01715  -1.01307
 Alpha  occ. eigenvalues --   -0.96800  -0.93498  -0.91387  -0.88969  -0.87076
 Alpha  occ. eigenvalues --   -0.85994  -0.85842  -0.84116  -0.82419  -0.80905
 Alpha  occ. eigenvalues --   -0.79265  -0.78769  -0.78003  -0.75496  -0.74540
 Alpha  occ. eigenvalues --   -0.73784  -0.72988  -0.72321  -0.70434  -0.69986
 Alpha  occ. eigenvalues --   -0.68789  -0.68437  -0.68193  -0.67737  -0.67221
 Alpha  occ. eigenvalues --   -0.66472  -0.66009  -0.65944  -0.65033  -0.63948
 Alpha  occ. eigenvalues --   -0.62625  -0.61610  -0.61357  -0.60627  -0.60340
 Alpha  occ. eigenvalues --   -0.59861  -0.59650  -0.59187  -0.58767  -0.58488
 Alpha  occ. eigenvalues --   -0.58113  -0.56830  -0.56629  -0.56121  -0.55663
 Alpha  occ. eigenvalues --   -0.55211  -0.55028  -0.54597  -0.54356  -0.54098
 Alpha  occ. eigenvalues --   -0.53749  -0.53288  -0.52885  -0.52757  -0.52451
 Alpha  occ. eigenvalues --   -0.51919  -0.51725  -0.51325  -0.50657  -0.50258
 Alpha  occ. eigenvalues --   -0.50009  -0.49456  -0.48981  -0.48823  -0.48757
 Alpha  occ. eigenvalues --   -0.48242  -0.48040  -0.47441  -0.47301  -0.47213
 Alpha  occ. eigenvalues --   -0.47041  -0.46490  -0.46066  -0.45804  -0.45439
 Alpha  occ. eigenvalues --   -0.45080  -0.44757  -0.44604  -0.44105  -0.43169
 Alpha  occ. eigenvalues --   -0.42918  -0.41899  -0.41676  -0.41197  -0.40905
 Alpha  occ. eigenvalues --   -0.39996  -0.39858  -0.38875  -0.38632  -0.38156
 Alpha  occ. eigenvalues --   -0.37624  -0.36841  -0.35829  -0.35509  -0.34884
 Alpha  occ. eigenvalues --   -0.34673  -0.33779  -0.33381  -0.33120  -0.32864
 Alpha  occ. eigenvalues --   -0.32553  -0.31543
 Alpha virt. eigenvalues --   -0.12420  -0.10015  -0.08980  -0.08763  -0.08493
 Alpha virt. eigenvalues --   -0.08272  -0.07546  -0.07421  -0.05882  -0.05715
 Alpha virt. eigenvalues --   -0.05042  -0.04426  -0.03364  -0.02718  -0.01079

 Mulliken charges:
               1
     1  N   -0.688071
     2  H    0.312914
     3  H    0.313914
     4  C   -0.086433
     5  H    0.154593
     6  C    0.603062
     7  C   -0.339245
     8  H    0.191221
     9  H    0.140933
    10  O   -0.550476
    11  C    0.145476
    12  C   -0.188321
    13  H    0.110633
    14  C   -0.203717
    15  H    0.145252
    16  C   -0.120863
    17  H    0.132315
    18  C   -0.128848
    19  H    0.152613
    20  C   -0.131321
    21  H    0.149518
    22  N   -0.612383
    23  H    0.350749
    24  C   -0.090639
    25  H    0.203402
    26  C    0.634083
    27  C   -0.044247
    28  H    0.177878
    29  H    0.147110
    30  O   -0.545027
    31  O   -0.600331
    32  H    0.395365
    33  N   -0.632219
    34  H    0.392754
    35  C   -0.072101
    36  H    0.181843
    37  C    0.641567
    38  C   -0.068242
    39  H    0.177475
    40  H    0.172175
    41  O   -0.580768
    42  O   -0.667152
    43  H    0.443742
    44  N   -0.631047
    45  H    0.395407
    46  C   -0.045573
    47  H    0.200393
    48  C    0.649889
    49  C   -0.393645
    50  H    0.193490
    51  H    0.216298
    52  O   -0.530044
    53  C    0.607219
    54  O   -0.457910
    55  O   -0.562878
    56  N   -0.601773
    57  H    0.361769
    58  C   -0.070122
    59  H    0.224710
    60  C    0.587292
    61  C   -0.263902
    62  H    0.176925
    63  H    0.131892
    64  O   -0.461686
    65  C   -0.310846
    66  H    0.197901
    67  H    0.164360
    68  C   -0.175296
    69  H    0.189870
    70  H    0.184318
    71  N   -0.600427
    72  H    0.359685
    73  N   -0.793887
    74  H    0.370992
    75  H    0.446348
    76  N   -0.764269
    77  H    0.379531
    78  H    0.380919
    79  C    0.819272
    80  O   -0.542616
    81  H    0.425141
    82  H    0.422116
 Sum of Mulliken charges =   1.00000

 Dipole moment (field-independent basis, Debye):
    X=             -3.6844    Y=              6.4076    Z=             16.1450  Tot=             17.7565
 Quadrupole moment (field-independent basis, Debye-Ang):
   XX=           -216.8984   YY=           -229.6851   ZZ=            -96.8885
   XY=             -9.3941   XZ=              1.0275   YZ=             25.4537

 Normal termination of Gaussian 16 at Thu May 26 20:50:50 2022.
