 Gaussian 16, Revision C.01,
 Gaussian 16:  ES64L-G16RevC.01  3-Jul-2019

 -------------------------------------------------------------------
 # B3LYP/6-31G* guess=read geom=check nosymm integral(ultrafinegrid)
 -------------------------------------------------------------------

 ------------------------------------------------------
 Candidate Structure: Conf:399 Charge calc in gas phase
 ------------------------------------------------------
 Structure from the checkpoint file:  "conf-399.chk"
 Charge =  1 Multiplicity = 1

                          Input orientation:
 ---------------------------------------------------------------------
 Center     Atomic      Atomic             Coordinates (Angstroms)
 Number     Number       Type             X           Y           Z
 ---------------------------------------------------------------------
      1          7           0       -0.533750   -4.916623   -2.886720
      2          1           0       -0.648431   -5.919830   -3.025995
      3          1           0        0.121738   -4.589855   -3.596152
      4          6           0       -1.824305   -4.243836   -3.094134
      5          1           0       -2.229269   -4.435258   -4.103563
      6          6           0       -1.554781   -2.728051   -3.048523
      7          6           0       -2.887534   -4.779389   -2.098743
      8          1           0       -3.839714   -4.266802   -2.286923
      9          1           0       -3.075298   -5.823959   -2.376151
     10          8           0       -0.399489   -2.294793   -3.107597
     11          6           0       -2.547721   -4.718639   -0.620853
     12          6           0       -2.186204   -5.888921    0.064658
     13          1           0       -2.150697   -6.834896   -0.472267
     14          6           0       -2.639299   -3.525403    0.109822
     15          1           0       -2.948368   -2.607647   -0.382171
     16          6           0       -1.924258   -5.866176    1.438065
     17          1           0       -1.683008   -6.791575    1.955530
     18          6           0       -2.365617   -3.492469    1.478936
     19          1           0       -2.445904   -2.548741    2.012370
     20          6           0       -2.007533   -4.665348    2.147407
     21          1           0       -1.820484   -4.648094    3.217565
     22          7           0       -2.628592   -1.902777   -3.010366
     23          1           0       -3.557807   -2.292459   -2.921902
     24          6           0       -2.508855   -0.441887   -3.049209
     25          1           0       -1.748261   -0.182743   -3.791551
     26          6           0       -2.071079    0.099351   -1.668306
     27          6           0       -3.858409    0.177489   -3.455933
     28          1           0       -4.651048   -0.222085   -2.803798
     29          1           0       -4.083732   -0.114007   -4.486448
     30          8           0       -2.895465    0.602513   -0.890794
     31          8           0       -3.807541    1.581826   -3.417100
     32          1           0       -3.826850    1.826255   -2.475772
     33          7           0       -0.757951   -0.023333   -1.389135
     34          1           0       -0.199131   -0.596713   -2.019741
     35          6           0       -0.135622    0.482992   -0.164168
     36          1           0       -0.449897    1.523843   -0.022918
     37          6           0        1.375889    0.382936   -0.346583
     38          6           0       -0.518420   -0.308833    1.116085
     39          1           0        0.213153   -0.077927    1.900536
     40          1           0       -0.428596   -1.380412    0.877665
     41          8           0        1.905880   -0.676139   -0.717994
     42          8           0       -1.789545    0.019872    1.621751
     43          1           0       -2.378363    0.228517    0.867683
     44          7           0        2.095724    1.488732   -0.065691
     45          1           0        1.623773    2.248644    0.408184
     46          6           0        3.548256    1.422920    0.034109
     47          1           0        3.917568    0.924559   -0.865254
     48          6           0        3.924092    0.559658    1.270691
     49          6           0        4.127320    2.845838    0.090783
     50          1           0        3.565504    3.500459   -0.587462
     51          1           0        4.038051    3.285793    1.091620
     52          8           0        3.108963    0.386649    2.176478
     53          6           0        5.580139    2.894405   -0.344542
     54          8           0        6.225773    1.940167   -0.728457
     55          8           0        6.067920    4.141668   -0.276609
     56          7           0        5.159048    0.014485    1.237375
     57          1           0        5.809772    0.292033    0.502041
     58          6           0        5.695648   -0.823320    2.304280
     59          1           0        5.368510   -0.424908    3.271766
     60          6           0        7.216667   -0.711877    2.242579
     61          6           0        5.241413   -2.307634    2.186681
     62          1           0        6.014806   -2.958358    2.607014
     63          1           0        5.179125   -2.541396    1.116974
     64          8           0        7.832962   -0.183445    1.345709
     65          6           0        3.899207   -2.588620    2.899454
     66          1           0        3.287885   -1.682070    2.928703
     67          1           0        4.093771   -2.865108    3.941676
     68          6           0        3.080436   -3.714229    2.264901
     69          1           0        3.703799   -4.605613    2.110478
     70          1           0        2.259630   -3.985880    2.943021
     71          7           0        2.522923   -3.283494    0.975718
     72          1           0        2.665949   -2.321804    0.680130
     73          7           0        1.408094   -5.293607    0.564362
     74          1           0        0.542264   -5.684773    0.211005
     75          1           0        1.671743   -5.618048    1.482883
     76          7           0        1.137052   -3.498542   -0.869090
     77          1           0        1.296407   -2.518901   -1.097943
     78          1           0        0.523567   -4.055858   -1.483437
     79          6           0        1.679516   -4.009481    0.227562
     80          8           0        7.791324   -1.292112    3.313145
     81          1           0        8.757727   -1.199451    3.206638
     82          1           0        6.997024    4.108893   -0.577265
 ---------------------------------------------------------------------

 SCF Done:  E(RB3LYP) =  -2166.32205613     A.U. after    3 cycles

 Alpha  occ. eigenvalues --  -19.29253 -19.28963 -19.24430 -19.24107 -19.23648
 Alpha  occ. eigenvalues --  -19.23488 -19.22989 -19.22229 -19.21569 -19.21562
 Alpha  occ. eigenvalues --  -14.48578 -14.48455 -14.48184 -14.48150 -14.46558
 Alpha  occ. eigenvalues --  -14.45933 -14.45448 -14.44358 -10.44262 -10.42460
 Alpha  occ. eigenvalues --  -10.41545 -10.41108 -10.40589 -10.39663 -10.38809
 Alpha  occ. eigenvalues --  -10.34539 -10.34495 -10.34267 -10.34203 -10.33784
 Alpha  occ. eigenvalues --  -10.33587 -10.32556 -10.32348 -10.31452 -10.30653
 Alpha  occ. eigenvalues --  -10.29811 -10.29172 -10.28859 -10.28808 -10.28711
 Alpha  occ. eigenvalues --  -10.28393 -10.28322 -10.28048  -1.20496  -1.20017
 Alpha  occ. eigenvalues --   -1.16118  -1.15596  -1.14445  -1.13348  -1.13000
 Alpha  occ. eigenvalues --   -1.11568  -1.11178  -1.10033  -1.09218  -1.04479
 Alpha  occ. eigenvalues --   -1.04136  -1.02894  -1.02706  -1.02215  -1.01112
 Alpha  occ. eigenvalues --   -1.00476  -0.95074  -0.91081  -0.89781  -0.88737
 Alpha  occ. eigenvalues --   -0.87174  -0.85645  -0.85022  -0.83879  -0.81807
 Alpha  occ. eigenvalues --   -0.79983  -0.78464  -0.75967  -0.75740  -0.75219
 Alpha  occ. eigenvalues --   -0.73410  -0.72033  -0.71593  -0.70347  -0.70071
 Alpha  occ. eigenvalues --   -0.69952  -0.69533  -0.69379  -0.68613  -0.67904
 Alpha  occ. eigenvalues --   -0.67580  -0.66195  -0.65034  -0.63554  -0.62438
 Alpha  occ. eigenvalues --   -0.61544  -0.61260  -0.61180  -0.60813  -0.60226
 Alpha  occ. eigenvalues --   -0.59968  -0.59206  -0.59121  -0.58983  -0.58910
 Alpha  occ. eigenvalues --   -0.58642  -0.58254  -0.57844  -0.57573  -0.57001
 Alpha  occ. eigenvalues --   -0.56315  -0.56008  -0.55659  -0.55498  -0.55371
 Alpha  occ. eigenvalues --   -0.54884  -0.54683  -0.53584  -0.53337  -0.53043
 Alpha  occ. eigenvalues --   -0.52595  -0.52320  -0.51878  -0.51428  -0.51302
 Alpha  occ. eigenvalues --   -0.50994  -0.50677  -0.50336  -0.49955  -0.49671
 Alpha  occ. eigenvalues --   -0.49598  -0.49299  -0.48893  -0.48574  -0.48540
 Alpha  occ. eigenvalues --   -0.48392  -0.47768  -0.47494  -0.47151  -0.46426
 Alpha  occ. eigenvalues --   -0.45503  -0.45118  -0.44792  -0.44282  -0.43567
 Alpha  occ. eigenvalues --   -0.43511  -0.42875  -0.41663  -0.41525  -0.41062
 Alpha  occ. eigenvalues --   -0.39744  -0.39235  -0.38930  -0.38269  -0.37879
 Alpha  occ. eigenvalues --   -0.37778  -0.37142  -0.37019  -0.36868  -0.36065
 Alpha  occ. eigenvalues --   -0.35683  -0.35349  -0.35058  -0.34814  -0.34640
 Alpha  occ. eigenvalues --   -0.34075  -0.34059
 Alpha virt. eigenvalues --   -0.10901  -0.10853  -0.10123  -0.09547  -0.08945
 Alpha virt. eigenvalues --   -0.08739  -0.08491  -0.08312  -0.07415  -0.04436
 Alpha virt. eigenvalues --   -0.03538  -0.02812  -0.01887  -0.01244  -0.00771

 Mulliken charges:
               1
     1  N   -0.756670
     2  H    0.323653
     3  H    0.343463
     4  C   -0.063781
     5  H    0.175331
     6  C    0.648813
     7  C   -0.403167
     8  H    0.162335
     9  H    0.171593
    10  O   -0.553227
    11  C    0.208388
    12  C   -0.220267
    13  H    0.136725
    14  C   -0.196422
    15  H    0.134852
    16  C   -0.150230
    17  H    0.148233
    18  C   -0.141431
    19  H    0.183683
    20  C   -0.138552
    21  H    0.150875
    22  N   -0.617427
    23  H    0.348239
    24  C   -0.069644
    25  H    0.198196
    26  C    0.642874
    27  C   -0.046610
    28  H    0.140214
    29  H    0.169593
    30  O   -0.568285
    31  O   -0.611029
    32  H    0.419083
    33  N   -0.631939
    34  H    0.390567
    35  C   -0.075116
    36  H    0.181138
    37  C    0.631479
    38  C   -0.010442
    39  H    0.171531
    40  H    0.126040
    41  O   -0.571806
    42  O   -0.643725
    43  H    0.434972
    44  N   -0.594907
    45  H    0.356311
    46  C   -0.040715
    47  H    0.210925
    48  C    0.611776
    49  C   -0.405986
    50  H    0.212493
    51  H    0.211880
    52  O   -0.535351
    53  C    0.605653
    54  O   -0.458331
    55  O   -0.549965
    56  N   -0.636636
    57  H    0.400937
    58  C   -0.028057
    59  H    0.204510
    60  C    0.568017
    61  C   -0.285898
    62  H    0.181422
    63  H    0.162646
    64  O   -0.445027
    65  C   -0.338271
    66  H    0.216321
    67  H    0.172491
    68  C   -0.149773
    69  H    0.174761
    70  H    0.169998
    71  N   -0.628721
    72  H    0.387761
    73  N   -0.762442
    74  H    0.372859
    75  H    0.366342
    76  N   -0.838414
    77  H    0.409711
    78  H    0.430582
    79  C    0.797801
    80  O   -0.560731
    81  H    0.429724
    82  H    0.432203
 Sum of Mulliken charges =   1.00000

 Dipole moment (field-independent basis, Debye):
    X=              7.9250    Y=            -13.5774    Z=             -1.0505  Tot=             15.7561
 Quadrupole moment (field-independent basis, Debye-Ang):
   XX=           -171.9270   YY=           -142.0984   ZZ=           -221.0387
   XY=             20.5640   XZ=             41.7806   YZ=              6.7945

 Normal termination of Gaussian 16 at Thu May 26 20:31:52 2022.
