 Gaussian 16, Revision C.01,
 Gaussian 16:  ES64L-G16RevC.01  3-Jul-2019

 -------------------------------------------------------------------
 # B3LYP/6-31G* guess=read geom=check nosymm integral(ultrafinegrid)
 -------------------------------------------------------------------

 ------------------------------------------------------
 Candidate Structure: Conf:121 Charge calc in gas phase
 ------------------------------------------------------
 Structure from the checkpoint file:  "conf-121.chk"
 Charge =  1 Multiplicity = 1

                          Input orientation:
 ---------------------------------------------------------------------
 Center     Atomic      Atomic             Coordinates (Angstroms)
 Number     Number       Type             X           Y           Z
 ---------------------------------------------------------------------
      1          7           0       -4.104929   -3.002100   -5.094911
      2          1           0       -4.103493   -3.895522   -4.603276
      3          1           0       -4.863211   -3.031039   -5.774914
      4          6           0       -4.362894   -1.944285   -4.121433
      5          1           0       -4.238299   -0.979971   -4.631689
      6          6           0       -3.303954   -2.092399   -3.029393
      7          6           0       -5.773523   -1.960345   -3.452478
      8          1           0       -5.867053   -2.900481   -2.896420
      9          1           0       -5.824411   -1.144805   -2.718280
     10          8           0       -3.124143   -3.157855   -2.442182
     11          6           0       -6.893736   -1.818702   -4.457427
     12          6           0       -7.305225   -0.551596   -4.896352
     13          1           0       -6.839576    0.337743   -4.475923
     14          6           0       -7.518707   -2.948135   -5.005361
     15          1           0       -7.226791   -3.938912   -4.664015
     16          6           0       -8.309851   -0.415677   -5.853885
     17          1           0       -8.619164    0.575218   -6.175362
     18          6           0       -8.524582   -2.816462   -5.965436
     19          1           0       -9.001344   -3.704089   -6.372500
     20          6           0       -8.921989   -1.549476   -6.393296
     21          1           0       -9.707467   -1.444770   -7.136441
     22          7           0       -2.585444   -0.973618   -2.720421
     23          1           0       -2.681018   -0.109790   -3.241517
     24          6           0       -1.574979   -0.992976   -1.687910
     25          1           0       -1.956613   -1.546306   -0.822251
     26          6           0       -1.224644    0.450972   -1.323674
     27          6           0       -0.308825   -1.722880   -2.210926
     28          1           0        0.054789   -1.205301   -3.106495
     29          1           0       -0.604217   -2.739458   -2.473370
     30          8           0       -1.323547    1.365088   -2.129854
     31          8           0        0.747388   -1.826563   -1.237581
     32          1           0        1.137762   -0.928938   -1.067369
     33          7           0       -0.738247    0.609015   -0.052581
     34          1           0       -0.583758   -0.238906    0.478111
     35          6           0        0.056747    1.755923    0.332421
     36          1           0       -0.332596    2.631698   -0.193589
     37          6           0        1.526426    1.543343   -0.060447
     38          6           0       -0.090635    1.966878    1.875126
     39          1           0        0.037336    0.993949    2.372950
     40          1           0       -1.113073    2.305532    2.062223
     41          8           0        1.960031    0.458492   -0.480237
     42          8           0        0.795221    2.925552    2.409854
     43          1           0        1.623406    2.457587    2.648681
     44          7           0        2.351138    2.597485    0.147769
     45          1           0        1.955361    3.331463    0.733235
     46          6           0        3.777380    2.331832    0.295865
     47          1           0        4.129741    1.854322   -0.619757
     48          6           0        3.964465    1.346978    1.480455
     49          6           0        4.540550    3.650193    0.515648
     50          1           0        4.329145    4.316523   -0.330434
     51          1           0        4.209278    4.155659    1.427438
     52          8           0        3.195872    1.342814    2.448908
     53          6           0        6.049044    3.492978    0.616603
     54          8           0        6.763213    4.128868    1.348423
     55          8           0        6.519672    2.546193   -0.244409
     56          7           0        4.997786    0.490375    1.353116
     57          1           0        5.670173    0.644566    0.606573
     58          6           0        5.388237   -0.465945    2.376240
     59          1           0        5.072393   -0.084585    3.353233
     60          6           0        6.914387   -0.546170    2.354121
     61          6           0        4.763827   -1.868982    2.148844
     62          1           0        5.280283   -2.584039    2.800399
     63          1           0        4.970003   -2.163803    1.111696
     64          8           0        7.610450   -0.057872    1.490148
     65          6           0        3.255712   -1.913966    2.438405
     66          1           0        2.736411   -1.117438    1.896498
     67          1           0        3.088532   -1.719614    3.504825
     68          6           0        2.591392   -3.259406    2.096292
     69          1           0        3.208971   -4.097399    2.433191
     70          1           0        1.636704   -3.351190    2.622759
     71          7           0        2.292811   -3.408682    0.664029
     72          1           0        1.546921   -2.822945    0.280259
     73          7           0        3.917758   -4.989574    0.074248
     74          1           0        4.457923   -5.449689   -0.644018
     75          1           0        3.916602   -5.419499    0.986735
     76          7           0        2.759037   -3.796621   -1.550963
     77          1           0        2.084759   -3.049115   -1.758274
     78          1           0        3.009978   -4.452194   -2.277067
     79          6           0        2.984093   -4.076420   -0.261173
     80          8           0        7.387825   -1.245711    3.397515
     81          1           0        8.362265   -1.257766    3.326071
     82          1           0        7.485452    2.491430   -0.104370
 ---------------------------------------------------------------------

 SCF Done:  E(RB3LYP) =  -2166.31020718     A.U. after    1 cycles

 Alpha  occ. eigenvalues --  -19.30988 -19.29327 -19.27323 -19.25610 -19.24719
 Alpha  occ. eigenvalues --  -19.23970 -19.23748 -19.23320 -19.22032 -19.18690
 Alpha  occ. eigenvalues --  -14.52465 -14.51483 -14.50703 -14.47491 -14.47034
 Alpha  occ. eigenvalues --  -14.46736 -14.44022 -14.36884 -10.48216 -10.43650
 Alpha  occ. eigenvalues --  -10.41824 -10.40567 -10.40521 -10.39014 -10.36709
 Alpha  occ. eigenvalues --  -10.35724 -10.35605 -10.35029 -10.33976 -10.33967
 Alpha  occ. eigenvalues --  -10.33892 -10.32883 -10.31385 -10.31113 -10.31050
 Alpha  occ. eigenvalues --  -10.28547 -10.24715 -10.24637 -10.23802 -10.23800
 Alpha  occ. eigenvalues --  -10.23738 -10.23730 -10.23559  -1.22073  -1.19886
 Alpha  occ. eigenvalues --   -1.16674  -1.16472  -1.15068  -1.14057  -1.13251
 Alpha  occ. eigenvalues --   -1.13200  -1.11569  -1.11068  -1.10693  -1.06016
 Alpha  occ. eigenvalues --   -1.04564  -1.04313  -1.04059  -1.03293  -1.00426
 Alpha  occ. eigenvalues --   -0.94612  -0.92669  -0.90452  -0.90145  -0.87875
 Alpha  occ. eigenvalues --   -0.87158  -0.84264  -0.82583  -0.82076  -0.79423
 Alpha  occ. eigenvalues --   -0.79139  -0.78333  -0.77407  -0.75840  -0.74688
 Alpha  occ. eigenvalues --   -0.74065  -0.73329  -0.72866  -0.70818  -0.70643
 Alpha  occ. eigenvalues --   -0.70084  -0.69733  -0.68956  -0.68485  -0.66581
 Alpha  occ. eigenvalues --   -0.65323  -0.65291  -0.65174  -0.64809  -0.63357
 Alpha  occ. eigenvalues --   -0.63007  -0.62694  -0.62209  -0.61349  -0.60966
 Alpha  occ. eigenvalues --   -0.60087  -0.59845  -0.59662  -0.58969  -0.58270
 Alpha  occ. eigenvalues --   -0.57784  -0.57081  -0.57056  -0.57003  -0.56677
 Alpha  occ. eigenvalues --   -0.56615  -0.55738  -0.55308  -0.54976  -0.54551
 Alpha  occ. eigenvalues --   -0.54326  -0.53484  -0.53424  -0.53333  -0.53069
 Alpha  occ. eigenvalues --   -0.52495  -0.51472  -0.51336  -0.51029  -0.50613
 Alpha  occ. eigenvalues --   -0.50419  -0.50179  -0.49652  -0.49173  -0.49106
 Alpha  occ. eigenvalues --   -0.48790  -0.48446  -0.48015  -0.47528  -0.47411
 Alpha  occ. eigenvalues --   -0.46802  -0.46769  -0.46601  -0.46365  -0.46085
 Alpha  occ. eigenvalues --   -0.45188  -0.44282  -0.44176  -0.43165  -0.43078
 Alpha  occ. eigenvalues --   -0.42987  -0.41712  -0.41520  -0.40638  -0.40517
 Alpha  occ. eigenvalues --   -0.40193  -0.39428  -0.38952  -0.38807  -0.38680
 Alpha  occ. eigenvalues --   -0.38659  -0.37887  -0.37209  -0.37049  -0.36738
 Alpha  occ. eigenvalues --   -0.36114  -0.35036  -0.33193  -0.32619  -0.30208
 Alpha  occ. eigenvalues --   -0.29691  -0.28436
 Alpha virt. eigenvalues --   -0.12182  -0.11027  -0.10547  -0.08936  -0.08626
 Alpha virt. eigenvalues --   -0.08544  -0.08237  -0.05731  -0.05034  -0.04962
 Alpha virt. eigenvalues --   -0.04674  -0.03971  -0.02857  -0.01998  -0.01868

 Mulliken charges:
               1
     1  N   -0.720365
     2  H    0.310894
     3  H    0.314420
     4  C   -0.061335
     5  H    0.139507
     6  C    0.645299
     7  C   -0.363764
     8  H    0.162837
     9  H    0.144098
    10  O   -0.547078
    11  C    0.168657
    12  C   -0.179263
    13  H    0.122252
    14  C   -0.196393
    15  H    0.126898
    16  C   -0.126578
    17  H    0.138820
    18  C   -0.126734
    19  H    0.139270
    20  C   -0.129047
    21  H    0.140669
    22  N   -0.625121
    23  H    0.357597
    24  C   -0.045076
    25  H    0.177615
    26  C    0.589052
    27  C   -0.059497
    28  H    0.167453
    29  H    0.198739
    30  O   -0.503811
    31  O   -0.713451
    32  H    0.463420
    33  N   -0.591303
    34  H    0.324711
    35  C   -0.109583
    36  H    0.222103
    37  C    0.645014
    38  C   -0.038769
    39  H    0.131269
    40  H    0.189979
    41  O   -0.579079
    42  O   -0.638279
    43  H    0.437352
    44  N   -0.589818
    45  H    0.364557
    46  C   -0.055246
    47  H    0.204810
    48  C    0.639470
    49  C   -0.383485
    50  H    0.219112
    51  H    0.205045
    52  O   -0.566297
    53  C    0.579166
    54  O   -0.423507
    55  O   -0.578760
    56  N   -0.603296
    57  H    0.378875
    58  C   -0.047914
    59  H    0.213497
    60  C    0.587828
    61  C   -0.274522
    62  H    0.171786
    63  H    0.149815
    64  O   -0.463127
    65  C   -0.271435
    66  H    0.177988
    67  H    0.175875
    68  C   -0.173483
    69  H    0.159552
    70  H    0.197266
    71  N   -0.611465
    72  H    0.393448
    73  N   -0.755768
    74  H    0.379293
    75  H    0.381637
    76  N   -0.778641
    77  H    0.418823
    78  H    0.367886
    79  C    0.796278
    80  O   -0.555546
    81  H    0.433539
    82  H    0.433364
 Sum of Mulliken charges =   1.00000

 Dipole moment (field-independent basis, Debye):
    X=             14.9313    Y=            -13.2860    Z=              0.7474  Tot=             20.0005
 Quadrupole moment (field-independent basis, Debye-Ang):
   XX=           -138.1570   YY=           -177.7248   ZZ=           -226.0180
   XY=            -55.6370   XZ=             28.4421   YZ=             -7.3819

 Normal termination of Gaussian 16 at Thu May 26 20:31:09 2022.
