 Gaussian 16, Revision C.01,
 Gaussian 16:  ES64L-G16RevC.01  3-Jul-2019

 -------------------------------------------------------------------
 # B3LYP/6-31G* guess=read geom=check nosymm integral(ultrafinegrid)
 -------------------------------------------------------------------

 ------------------------------------------------------
 Candidate Structure: Conf:684 Charge calc in gas phase
 ------------------------------------------------------
 Structure from the checkpoint file:  "conf-684.chk"
 Charge =  1 Multiplicity = 1

                          Input orientation:
 ---------------------------------------------------------------------
 Center     Atomic      Atomic             Coordinates (Angstroms)
 Number     Number       Type             X           Y           Z
 ---------------------------------------------------------------------
      1          7           0       -3.288517    0.262557   -6.224707
      2          1           0       -3.546409    1.029215   -6.844145
      3          1           0       -2.272395    0.195011   -6.250263
      4          6           0       -3.748836    0.559331   -4.862225
      5          1           0       -3.242668    1.431940   -4.407605
      6          6           0       -3.448245   -0.680217   -4.001335
      7          6           0       -5.264603    0.835367   -4.881717
      8          1           0       -5.450029    1.613028   -5.634455
      9          1           0       -5.758204   -0.078118   -5.224707
     10          8           0       -4.132217   -1.696162   -4.016270
     11          6           0       -5.815579    1.283005   -3.543563
     12          6           0       -6.384075    0.362409   -2.651951
     13          1           0       -6.438121   -0.684794   -2.935777
     14          6           0       -5.753326    2.630820   -3.161844
     15          1           0       -5.329912    3.362167   -3.847990
     16          6           0       -6.875475    0.779151   -1.413469
     17          1           0       -7.322153    0.052712   -0.739308
     18          6           0       -6.241495    3.050341   -1.923958
     19          1           0       -6.191406    4.101182   -1.650774
     20          6           0       -6.804899    2.123570   -1.044700
     21          1           0       -7.193992    2.448840   -0.083568
     22          7           0       -2.303068   -0.598439   -3.245154
     23          1           0       -1.920697    0.312300   -3.013482
     24          6           0       -2.015474   -1.644420   -2.284875
     25          1           0       -2.952530   -1.941453   -1.787304
     26          6           0       -1.076304   -1.079899   -1.214119
     27          6           0       -1.456712   -2.911419   -2.976021
     28          1           0       -0.431231   -2.743773   -3.317295
     29          1           0       -2.086660   -3.131146   -3.841241
     30          8           0       -0.862124    0.138385   -1.122483
     31          8           0       -1.409989   -4.023463   -2.074803
     32          1           0       -2.306337   -4.391452   -2.014088
     33          7           0       -0.514760   -1.995103   -0.392965
     34          1           0       -0.797150   -2.964954   -0.541516
     35          6           0        0.126844   -1.646674    0.874035
     36          1           0       -0.448137   -0.829931    1.330990
     37          6           0        1.573973   -1.133934    0.703587
     38          6           0        0.083029   -2.854874    1.808476
     39          1           0        0.511274   -2.563153    2.776724
     40          1           0        0.706254   -3.663536    1.395162
     41          8           0        2.548414   -1.682587    1.262045
     42          8           0       -1.274786   -3.243113    1.912833
     43          1           0       -1.333207   -4.006263    2.507226
     44          7           0        1.702424   -0.049358   -0.063550
     45          1           0        0.834956    0.360117   -0.427891
     46          6           0        2.979347    0.611837   -0.261837
     47          1           0        3.716381   -0.137174   -0.567483
     48          6           0        3.454548    1.230381    1.082177
     49          6           0        2.841767    1.657773   -1.382785
     50          1           0        2.164496    1.280331   -2.159101
     51          1           0        2.394349    2.589995   -1.018039
     52          8           0        2.669319    1.422222    2.006558
     53          6           0        4.165242    1.968568   -2.053938
     54          8           0        5.230205    1.453611   -1.774972
     55          8           0        4.018968    2.879758   -3.027409
     56          7           0        4.782759    1.492136    1.144416
     57          1           0        5.346726    1.413958    0.298093
     58          6           0        5.410921    2.122130    2.297956
     59          1           0        4.690623    2.804060    2.764265
     60          6           0        6.584930    2.954556    1.788738
     61          6           0        5.883443    1.083862    3.352046
     62          1           0        6.691376    1.518609    3.948934
     63          1           0        6.312780    0.239138    2.799059
     64          8           0        7.007882    2.929935    0.655580
     65          6           0        4.751370    0.606353    4.292869
     66          1           0        3.771541    0.801034    3.845042
     67          1           0        4.780062    1.183997    5.223108
     68          6           0        4.845170   -0.874535    4.667794
     69          1           0        5.882237   -1.119534    4.931542
     70          1           0        4.212432   -1.089997    5.538168
     71          7           0        4.422097   -1.719140    3.537486
     72          1           0        3.807451   -1.309420    2.830784
     73          7           0        5.404978   -3.689376    4.307311
     74          1           0        5.414496   -4.697819    4.340499
     75          1           0        5.892957   -3.200833    5.041447
     76          7           0        3.946508   -3.730436    2.503164
     77          1           0        3.330806   -3.214924    1.865721
     78          1           0        4.262566   -4.652510    2.240034
     79          6           0        4.594559   -3.038141    3.451283
     80          8           0        7.105025    3.716339    2.770424
     81          1           0        7.852015    4.212911    2.384048
     82          1           0        4.901763    3.032837   -3.417071
 ---------------------------------------------------------------------

 SCF Done:  E(RB3LYP) =  -2166.29678081     A.U. after    2 cycles

 Alpha  occ. eigenvalues --  -19.29203 -19.29057 -19.24635 -19.24406 -19.24144
 Alpha  occ. eigenvalues --  -19.24056 -19.23567 -19.22310 -19.21164 -19.17779
 Alpha  occ. eigenvalues --  -14.51747 -14.50519 -14.49845 -14.46346 -14.45504
 Alpha  occ. eigenvalues --  -14.45197 -14.42675 -14.37378 -10.47302 -10.42358
 Alpha  occ. eigenvalues --  -10.41618 -10.40401 -10.38797 -10.38470 -10.35609
 Alpha  occ. eigenvalues --  -10.34608 -10.34097 -10.34066 -10.33972 -10.33769
 Alpha  occ. eigenvalues --  -10.31661 -10.31474 -10.31053 -10.29572 -10.29521
 Alpha  occ. eigenvalues --  -10.28163 -10.23857 -10.23572 -10.23159 -10.23089
 Alpha  occ. eigenvalues --  -10.23057 -10.22997 -10.22725  -1.20438  -1.20092
 Alpha  occ. eigenvalues --   -1.15896  -1.15227  -1.13811  -1.13015  -1.12134
 Alpha  occ. eigenvalues --   -1.11476  -1.11231  -1.11183  -1.09694  -1.05078
 Alpha  occ. eigenvalues --   -1.03945  -1.03451  -1.02052  -1.02046  -0.99125
 Alpha  occ. eigenvalues --   -0.94547  -0.91295  -0.89897  -0.89521  -0.87223
 Alpha  occ. eigenvalues --   -0.86245  -0.83222  -0.82091  -0.80546  -0.79520
 Alpha  occ. eigenvalues --   -0.78380  -0.77580  -0.76191  -0.74710  -0.73638
 Alpha  occ. eigenvalues --   -0.73415  -0.72068  -0.71878  -0.70411  -0.69503
 Alpha  occ. eigenvalues --   -0.69064  -0.68100  -0.67567  -0.67310  -0.65265
 Alpha  occ. eigenvalues --   -0.64563  -0.64323  -0.64080  -0.63950  -0.62902
 Alpha  occ. eigenvalues --   -0.62779  -0.61406  -0.60747  -0.60491  -0.59573
 Alpha  occ. eigenvalues --   -0.58999  -0.58669  -0.58494  -0.57824  -0.57519
 Alpha  occ. eigenvalues --   -0.57199  -0.56859  -0.56651  -0.56118  -0.55700
 Alpha  occ. eigenvalues --   -0.55372  -0.55255  -0.54911  -0.53736  -0.53642
 Alpha  occ. eigenvalues --   -0.53483  -0.52750  -0.52655  -0.52371  -0.51948
 Alpha  occ. eigenvalues --   -0.51443  -0.50993  -0.50557  -0.50322  -0.50007
 Alpha  occ. eigenvalues --   -0.49652  -0.49143  -0.48861  -0.48625  -0.48438
 Alpha  occ. eigenvalues --   -0.48200  -0.47186  -0.46879  -0.46711  -0.46302
 Alpha  occ. eigenvalues --   -0.45819  -0.45482  -0.45400  -0.44586  -0.44434
 Alpha  occ. eigenvalues --   -0.44009  -0.43803  -0.43072  -0.42269  -0.41626
 Alpha  occ. eigenvalues --   -0.41558  -0.41234  -0.41165  -0.39720  -0.39398
 Alpha  occ. eigenvalues --   -0.39241  -0.38026  -0.37968  -0.37821  -0.37638
 Alpha  occ. eigenvalues --   -0.37469  -0.37194  -0.36815  -0.35975  -0.35104
 Alpha  occ. eigenvalues --   -0.35019  -0.34723  -0.32604  -0.31524  -0.29289
 Alpha  occ. eigenvalues --   -0.28916  -0.28470
 Alpha virt. eigenvalues --   -0.11232  -0.10154  -0.08869  -0.08669  -0.07878
 Alpha virt. eigenvalues --   -0.07324  -0.07268  -0.04813  -0.04319  -0.04008
 Alpha virt. eigenvalues --   -0.03891  -0.02303  -0.01607  -0.01303  -0.00954

 Mulliken charges:
               1
     1  N   -0.708013
     2  H    0.308340
     3  H    0.297706
     4  C   -0.056100
     5  H    0.111263
     6  C    0.636813
     7  C   -0.352598
     8  H    0.141303
     9  H    0.188523
    10  O   -0.520673
    11  C    0.150254
    12  C   -0.186549
    13  H    0.150759
    14  C   -0.183099
    15  H    0.120101
    16  C   -0.131946
    17  H    0.130619
    18  C   -0.128365
    19  H    0.132101
    20  C   -0.130101
    21  H    0.132007
    22  N   -0.630519
    23  H    0.352092
    24  C   -0.044523
    25  H    0.191833
    26  C    0.610912
    27  C   -0.067485
    28  H    0.159550
    29  H    0.200862
    30  O   -0.564384
    31  O   -0.623102
    32  H    0.417607
    33  N   -0.614208
    34  H    0.386496
    35  C   -0.071535
    36  H    0.213761
    37  C    0.668549
    38  C   -0.053249
    39  H    0.147087
    40  H    0.131943
    41  O   -0.611010
    42  O   -0.613837
    43  H    0.411152
    44  N   -0.622147
    45  H    0.405036
    46  C   -0.024885
    47  H    0.193575
    48  C    0.609054
    49  C   -0.406594
    50  H    0.211318
    51  H    0.217587
    52  O   -0.528783
    53  C    0.604728
    54  O   -0.463591
    55  O   -0.550650
    56  N   -0.634972
    57  H    0.396538
    58  C   -0.038352
    59  H    0.207251
    60  C    0.570424
    61  C   -0.279133
    62  H    0.181498
    63  H    0.155561
    64  O   -0.446961
    65  C   -0.331948
    66  H    0.217885
    67  H    0.176221
    68  C   -0.155620
    69  H    0.162050
    70  H    0.187279
    71  N   -0.630413
    72  H    0.411841
    73  N   -0.764455
    74  H    0.378251
    75  H    0.384286
    76  N   -0.795130
    77  H    0.426334
    78  H    0.364037
    79  C    0.813256
    80  O   -0.560477
    81  H    0.429029
    82  H    0.430735
 Sum of Mulliken charges =   1.00000

 Dipole moment (field-independent basis, Debye):
    X=             19.6825    Y=             -7.9868    Z=             11.1966  Tot=             24.0115
 Quadrupole moment (field-independent basis, Debye-Ang):
   XX=           -144.9136   YY=           -170.2949   ZZ=           -171.2138
   XY=            -27.0927   XZ=             61.8016   YZ=            -56.0905

 Normal termination of Gaussian 16 at Thu May 26 20:50:34 2022.
