 Gaussian 16, Revision C.01,
 Gaussian 16:  ES64L-G16RevC.01  3-Jul-2019

 -------------------------------------------------------------------
 # B3LYP/6-31G* guess=read geom=check nosymm integral(ultrafinegrid)
 -------------------------------------------------------------------

 ------------------------------------------------------
 Candidate Structure: Conf:156 Charge calc in gas phase
 ------------------------------------------------------
 Structure from the checkpoint file:  "conf-156.chk"
 Charge =  1 Multiplicity = 1

                          Input orientation:
 ---------------------------------------------------------------------
 Center     Atomic      Atomic             Coordinates (Angstroms)
 Number     Number       Type             X           Y           Z
 ---------------------------------------------------------------------
      1          7           0       -2.057128   -1.794939   -5.544607
      2          1           0       -1.913916   -2.743910   -5.200179
      3          1           0       -2.767502   -1.835844   -6.273669
      4          6           0       -2.537407   -0.977293   -4.435518
      5          1           0       -2.521184    0.073224   -4.755355
      6          6           0       -1.557207   -1.181669   -3.278756
      7          6           0       -3.976513   -1.304437   -3.921985
      8          1           0       -3.968849   -2.334771   -3.547331
      9          1           0       -4.202063   -0.651587   -3.067826
     10          8           0       -1.226526   -2.307087   -2.907517
     11          6           0       -5.030560   -1.133019   -4.991446
     12          6           0       -5.591267    0.126875   -5.248517
     13          1           0       -5.291588    0.979405   -4.642068
     14          6           0       -5.442761   -2.217292   -5.779464
     15          1           0       -5.033237   -3.205865   -5.583451
     16          6           0       -6.534008    0.299467   -6.261393
     17          1           0       -6.961200    1.282690   -6.439700
     18          6           0       -6.385930   -2.048647   -6.795852
     19          1           0       -6.696745   -2.903386   -7.390735
     20          6           0       -6.933431   -0.789077   -7.040421
     21          1           0       -7.670604   -0.656501   -7.827407
     22          7           0       -1.103026   -0.053980   -2.664839
     23          1           0       -1.372486    0.872418   -2.974696
     24          6           0       -0.233407   -0.114455   -1.512353
     25          1           0       -0.574027   -0.917258   -0.847985
     26          6           0       -0.287151    1.234602   -0.793976
     27          6           0        1.227442   -0.446218   -1.938747
     28          1           0        1.548875    0.284073   -2.692720
     29          1           0        1.211557   -1.437774   -2.395026
     30          8           0       -0.668157    2.256765   -1.343903
     31          8           0        2.131794   -0.483428   -0.837689
     32          1           0        2.370508    0.443903   -0.628726
     33          7           0        0.149955    1.187395    0.514544
     34          1           0        0.627869    0.325996    0.760930
     35          6           0        0.594688    2.391093    1.209780
     36          1           0        0.201336    3.233647    0.628607
     37          6           0        2.133639    2.464169    1.144535
     38          6           0       -0.029295    2.439646    2.619374
     39          1           0        0.230137    3.376256    3.123547
     40          1           0        0.366549    1.607541    3.227899
     41          8           0        2.736575    2.069721    0.128816
     42          8           0       -1.434002    2.420094    2.548153
     43          1           0       -1.680482    1.659815    1.995040
     44          7           0        2.784536    2.949749    2.218581
     45          1           0        2.265103    3.435126    2.948331
     46          6           0        4.235768    3.192937    2.228347
     47          1           0        4.507823    3.660286    1.274798
     48          6           0        5.004042    1.842255    2.365066
     49          6           0        4.644938    4.094418    3.408613
     50          1           0        4.665218    3.476039    4.314104
     51          1           0        5.663044    4.452537    3.245452
     52          8           0        5.430704    1.435975    3.438427
     53          6           0        3.719944    5.261541    3.675762
     54          8           0        2.510922    5.167147    3.809748
     55          8           0        4.375363    6.423165    3.799942
     56          7           0        5.156105    1.173138    1.188583
     57          1           0        4.567282    1.484457    0.417824
     58          6           0        5.669703   -0.183365    1.169091
     59          1           0        6.436680   -0.247921    1.949737
     60          6           0        6.366864   -0.488035   -0.149116
     61          6           0        4.549630   -1.210237    1.516355
     62          1           0        3.750372   -1.139312    0.768178
     63          1           0        4.136545   -0.848651    2.462081
     64          8           0        6.962383   -1.530881   -0.385336
     65          6           0        4.997118   -2.677095    1.697373
     66          1           0        4.466978   -3.113507    2.551976
     67          1           0        6.063571   -2.723034    1.946019
     68          6           0        4.709131   -3.543195    0.460001
     69          1           0        3.631882   -3.656710    0.312519
     70          1           0        5.102328   -3.090797   -0.452001
     71          7           0        5.267298   -4.903160    0.564871
     72          1           0        4.718187   -5.592732    1.061847
     73          7           0        7.414516   -4.331538   -0.131470
     74          1           0        8.278661   -4.621649   -0.567103
     75          1           0        7.227189   -3.324901   -0.099684
     76          7           0        6.884654   -6.541603    0.321409
     77          1           0        6.195448   -7.277876    0.369674
     78          1           0        7.850697   -6.820164    0.230102
     79          6           0        6.521577   -5.245125    0.250203
     80          8           0        6.270788    0.486360   -1.054108
     81          1           0        6.740230    0.195393   -1.860622
     82          1           0        3.714650    7.109146    4.020686
 ---------------------------------------------------------------------

 SCF Done:  E(RB3LYP) =  -2166.28698586     A.U. after    2 cycles

 Alpha  occ. eigenvalues --  -19.32457 -19.28874 -19.27359 -19.23553 -19.23153
 Alpha  occ. eigenvalues --  -19.22552 -19.21649 -19.21502 -19.20492 -19.17069
 Alpha  occ. eigenvalues --  -14.53043 -14.53027 -14.51935 -14.46727 -14.45454
 Alpha  occ. eigenvalues --  -14.44794 -14.42225 -14.35640 -10.49226 -10.45397
 Alpha  occ. eigenvalues --  -10.41862 -10.39791 -10.38657 -10.37257 -10.36107
 Alpha  occ. eigenvalues --  -10.35332 -10.34435 -10.34131 -10.32212 -10.31680
 Alpha  occ. eigenvalues --  -10.31216 -10.30844 -10.30551 -10.30293 -10.29689
 Alpha  occ. eigenvalues --  -10.27300 -10.23952 -10.23690 -10.23109 -10.23085
 Alpha  occ. eigenvalues --  -10.23054 -10.23027 -10.22894  -1.23814  -1.20010
 Alpha  occ. eigenvalues --   -1.17590  -1.14839  -1.14454  -1.13429  -1.12381
 Alpha  occ. eigenvalues --   -1.10951  -1.09599  -1.09384  -1.08968  -1.06918
 Alpha  occ. eigenvalues --   -1.05496  -1.03177  -1.02796  -1.01064  -0.98593
 Alpha  occ. eigenvalues --   -0.93391  -0.92121  -0.89489  -0.89404  -0.87231
 Alpha  occ. eigenvalues --   -0.85294  -0.82606  -0.82290  -0.81476  -0.79192
 Alpha  occ. eigenvalues --   -0.78534  -0.78437  -0.76028  -0.75210  -0.74812
 Alpha  occ. eigenvalues --   -0.74063  -0.72368  -0.71790  -0.71048  -0.70409
 Alpha  occ. eigenvalues --   -0.69818  -0.68244  -0.67755  -0.66678  -0.66501
 Alpha  occ. eigenvalues --   -0.65904  -0.64704  -0.64591  -0.64527  -0.62757
 Alpha  occ. eigenvalues --   -0.62020  -0.61650  -0.60852  -0.60420  -0.60171
 Alpha  occ. eigenvalues --   -0.59682  -0.59444  -0.59171  -0.58715  -0.57916
 Alpha  occ. eigenvalues --   -0.57573  -0.57152  -0.56723  -0.55719  -0.55431
 Alpha  occ. eigenvalues --   -0.55066  -0.54677  -0.54193  -0.54101  -0.53439
 Alpha  occ. eigenvalues --   -0.52849  -0.52159  -0.51811  -0.51502  -0.51097
 Alpha  occ. eigenvalues --   -0.50669  -0.50534  -0.50175  -0.50033  -0.49795
 Alpha  occ. eigenvalues --   -0.49306  -0.49124  -0.48878  -0.48086  -0.47662
 Alpha  occ. eigenvalues --   -0.47510  -0.47182  -0.46439  -0.46368  -0.46205
 Alpha  occ. eigenvalues --   -0.45978  -0.45949  -0.45758  -0.45247  -0.44893
 Alpha  occ. eigenvalues --   -0.44440  -0.43673  -0.43358  -0.42460  -0.41842
 Alpha  occ. eigenvalues --   -0.41638  -0.41151  -0.41028  -0.40797  -0.40688
 Alpha  occ. eigenvalues --   -0.39583  -0.38210  -0.38043  -0.37927  -0.37773
 Alpha  occ. eigenvalues --   -0.36885  -0.36704  -0.35579  -0.35312  -0.34151
 Alpha  occ. eigenvalues --   -0.34051  -0.33437  -0.31189  -0.31057  -0.29320
 Alpha  occ. eigenvalues --   -0.28941  -0.27382
 Alpha virt. eigenvalues --   -0.12949  -0.12262  -0.09586  -0.09248  -0.08848
 Alpha virt. eigenvalues --   -0.07485  -0.06373  -0.05223  -0.04761  -0.04449
 Alpha virt. eigenvalues --   -0.04263  -0.03825  -0.02530  -0.01861  -0.00752

 Mulliken charges:
               1
     1  N   -0.720545
     2  H    0.310055
     3  H    0.310366
     4  C   -0.058805
     5  H    0.138314
     6  C    0.642055
     7  C   -0.363710
     8  H    0.159703
     9  H    0.143171
    10  O   -0.549795
    11  C    0.169840
    12  C   -0.179089
    13  H    0.123575
    14  C   -0.196406
    15  H    0.125803
    16  C   -0.126761
    17  H    0.137293
    18  C   -0.126871
    19  H    0.136601
    20  C   -0.129481
    21  H    0.138167
    22  N   -0.625007
    23  H    0.354803
    24  C   -0.048088
    25  H    0.176933
    26  C    0.583440
    27  C   -0.054556
    28  H    0.151811
    29  H    0.186234
    30  O   -0.496658
    31  O   -0.683324
    32  H    0.444102
    33  N   -0.619345
    34  H    0.332034
    35  C   -0.096695
    36  H    0.234761
    37  C    0.626631
    38  C   -0.036948
    39  H    0.176358
    40  H    0.125504
    41  O   -0.571130
    42  O   -0.603280
    43  H    0.404124
    44  N   -0.633571
    45  H    0.401808
    46  C   -0.059227
    47  H    0.194253
    48  C    0.627606
    49  C   -0.396811
    50  H    0.232295
    51  H    0.203848
    52  O   -0.512771
    53  C    0.598626
    54  O   -0.476922
    55  O   -0.542411
    56  N   -0.616271
    57  H    0.382055
    58  C   -0.065493
    59  H    0.217604
    60  C    0.621926
    61  C   -0.317484
    62  H    0.200095
    63  H    0.189109
    64  O   -0.513700
    65  C   -0.272641
    66  H    0.164992
    67  H    0.158470
    68  C   -0.187172
    69  H    0.205296
    70  H    0.196659
    71  N   -0.595695
    72  H    0.364182
    73  N   -0.793024
    74  H    0.373969
    75  H    0.450584
    76  N   -0.768662
    77  H    0.383361
    78  H    0.383436
    79  C    0.824233
    80  O   -0.528810
    81  H    0.432583
    82  H    0.428492
 Sum of Mulliken charges =   1.00000

 Dipole moment (field-independent basis, Debye):
    X=             28.2978    Y=            -14.6535    Z=              2.3491  Tot=             31.9533
 Quadrupole moment (field-independent basis, Debye-Ang):
   XX=            -46.9036   YY=            -97.6210   ZZ=           -235.8616
   XY=           -104.7631   XZ=             19.7187   YZ=              6.8664

 Normal termination of Gaussian 16 at Thu May 26 20:31:22 2022.
