 Gaussian 16, Revision C.01,
 Gaussian 16:  ES64L-G16RevC.01  3-Jul-2019

 -------------------------------------------------------------------
 # B3LYP/6-31G* guess=read geom=check nosymm integral(ultrafinegrid)
 -------------------------------------------------------------------

 ------------------------------------------------------
 Candidate Structure: Conf:420 Charge calc in gas phase
 ------------------------------------------------------
 Structure from the checkpoint file:  "conf-420.chk"
 Charge =  1 Multiplicity = 1

                          Input orientation:
 ---------------------------------------------------------------------
 Center     Atomic      Atomic             Coordinates (Angstroms)
 Number     Number       Type             X           Y           Z
 ---------------------------------------------------------------------
      1          7           0       -4.808090   -0.882470   -3.867902
      2          1           0       -4.702897   -0.341234   -4.724230
      3          1           0       -4.165588   -1.671296   -3.946509
      4          6           0       -4.420324   -0.088301   -2.711075
      5          1           0       -4.902870    0.893792   -2.789994
      6          6           0       -2.897012    0.095248   -2.621913
      7          6           0       -4.913020   -0.769216   -1.399485
      8          1           0       -4.594909   -1.818790   -1.439484
      9          1           0       -4.393652   -0.315508   -0.545108
     10          8           0       -2.119476   -0.799726   -2.973368
     11          6           0       -6.407567   -0.660812   -1.187381
     12          6           0       -6.919757    0.259300   -0.263079
     13          1           0       -6.234297    0.876618    0.315658
     14          6           0       -7.307452   -1.457439   -1.909559
     15          1           0       -6.925088   -2.165726   -2.636866
     16          6           0       -8.295120    0.387320   -0.062727
     17          1           0       -8.672279    1.102746    0.663261
     18          6           0       -8.682349   -1.331273   -1.711385
     19          1           0       -9.366343   -1.957469   -2.277810
     20          6           0       -9.181133   -0.409208   -0.788630
     21          1           0      -10.252434   -0.316330   -0.633213
     22          7           0       -2.441640    1.267451   -2.095827
     23          1           0       -3.117999    1.968441   -1.820094
     24          6           0       -1.027946    1.644528   -2.080995
     25          1           0       -0.575663    1.281380   -3.011894
     26          6           0       -0.250406    0.986372   -0.915839
     27          6           0       -0.899420    3.176957   -2.036335
     28          1           0       -1.421793    3.557572   -1.141689
     29          1           0       -1.393885    3.596602   -2.917404
     30          8           0        0.354567    1.671205   -0.061425
     31          8           0        0.445402    3.592819   -2.075237
     32          1           0        0.837897    3.244170   -1.255807
     33          7           0       -0.242202   -0.353796   -0.920972
     34          1           0       -0.752458   -0.808296   -1.687576
     35          6           0        0.330068   -1.180539    0.142496
     36          1           0        0.214857   -0.640480    1.089295
     37          6           0        1.842543   -1.435003   -0.060268
     38          6           0       -0.433612   -2.515076    0.242489
     39          1           0       -0.345688   -3.056904   -0.712079
     40          1           0       -1.493456   -2.300239    0.411226
     41          8           0        2.329294   -2.565625   -0.057587
     42          8           0        0.020673   -3.279384    1.331687
     43          1           0        0.922143   -3.559924    1.091037
     44          7           0        2.595306   -0.316829   -0.215084
     45          1           0        2.158159    0.596489   -0.135800
     46          6           0        4.042119   -0.377943   -0.278929
     47          1           0        4.386246   -1.162230    0.405797
     48          6           0        4.579452    0.973863    0.222461
     49          6           0        4.522674   -0.765331   -1.701813
     50          1           0        3.831195   -1.516173   -2.094693
     51          1           0        4.484523    0.087002   -2.391409
     52          8           0        3.794302    1.912808    0.477242
     53          6           0        5.911340   -1.368066   -1.733160
     54          8           0        6.709995   -1.343951   -0.812716
     55          8           0        6.170511   -1.955638   -2.907172
     56          7           0        5.903557    1.091534    0.373860
     57          1           0        6.510414    0.309664    0.105051
     58          6           0        6.500214    2.357316    0.771188
     59          1           0        5.947962    3.158787    0.265746
     60          6           0        7.930418    2.392758    0.239912
     61          6           0        6.453056    2.610074    2.311973
     62          1           0        7.376161    2.237428    2.765800
     63          1           0        5.650201    1.988183    2.721906
     64          8           0        8.474200    1.484823   -0.341006
     65          6           0        6.232627    4.096572    2.694835
     66          1           0        6.400237    4.742535    1.826284
     67          1           0        6.968988    4.407347    3.442055
     68          6           0        4.850115    4.393267    3.292035
     69          1           0        4.741189    3.888388    4.261673
     70          1           0        4.768202    5.474414    3.463563
     71          7           0        3.775507    3.952155    2.392101
     72          1           0        4.009141    3.310258    1.624962
     73          7           0        2.023505    4.779005    3.684910
     74          1           0        1.040898    4.816334    3.911709
     75          1           0        2.622201    5.463604    4.120969
     76          7           0        1.610931    3.297887    1.942135
     77          1           0        1.939567    2.615421    1.264377
     78          1           0        0.611832    3.425288    1.999739
     79          6           0        2.472214    4.014793    2.670599
     80          8           0        8.512000    3.576413    0.517146
     81          1           0        9.423677    3.542028    0.167329
     82          1           0        7.078115   -2.315336   -2.861848
 ---------------------------------------------------------------------

 SCF Done:  E(RB3LYP) =  -2166.30818286     A.U. after    1 cycles

 Alpha  occ. eigenvalues --  -19.30565 -19.29315 -19.25518 -19.24993 -19.24353
 Alpha  occ. eigenvalues --  -19.23817 -19.22822 -19.21679 -19.21598 -19.20623
 Alpha  occ. eigenvalues --  -14.51751 -14.49983 -14.49942 -14.47803 -14.46650
 Alpha  occ. eigenvalues --  -14.46425 -14.45437 -14.38650 -10.47192 -10.43151
 Alpha  occ. eigenvalues --  -10.42521 -10.41784 -10.40062 -10.38456 -10.37996
 Alpha  occ. eigenvalues --  -10.35994 -10.35876 -10.34910 -10.33573 -10.33074
 Alpha  occ. eigenvalues --  -10.32564 -10.31269 -10.31244 -10.31161 -10.30729
 Alpha  occ. eigenvalues --  -10.30479 -10.26211 -10.24845 -10.24075 -10.23807
 Alpha  occ. eigenvalues --  -10.23587 -10.23505 -10.23348  -1.21547  -1.20640
 Alpha  occ. eigenvalues --   -1.16804  -1.15663  -1.15056  -1.13406  -1.13229
 Alpha  occ. eigenvalues --   -1.12782  -1.11655  -1.10593  -1.08471  -1.05027
 Alpha  occ. eigenvalues --   -1.04769  -1.03857  -1.03346  -1.02554  -1.01918
 Alpha  occ. eigenvalues --   -0.96344  -0.92502  -0.90290  -0.89826  -0.87469
 Alpha  occ. eigenvalues --   -0.86833  -0.84263  -0.83207  -0.81453  -0.79782
 Alpha  occ. eigenvalues --   -0.79069  -0.78138  -0.77816  -0.74745  -0.74253
 Alpha  occ. eigenvalues --   -0.73621  -0.72745  -0.72057  -0.71725  -0.70218
 Alpha  occ. eigenvalues --   -0.69962  -0.69298  -0.68322  -0.67879  -0.67663
 Alpha  occ. eigenvalues --   -0.65303  -0.65198  -0.64394  -0.64119  -0.63328
 Alpha  occ. eigenvalues --   -0.63054  -0.61441  -0.60986  -0.60770  -0.60286
 Alpha  occ. eigenvalues --   -0.60142  -0.59717  -0.59307  -0.58808  -0.58549
 Alpha  occ. eigenvalues --   -0.58472  -0.58233  -0.57911  -0.57156  -0.56561
 Alpha  occ. eigenvalues --   -0.55692  -0.55643  -0.55260  -0.55046  -0.54799
 Alpha  occ. eigenvalues --   -0.54619  -0.53727  -0.53329  -0.52746  -0.52514
 Alpha  occ. eigenvalues --   -0.51439  -0.51136  -0.50829  -0.50712  -0.50636
 Alpha  occ. eigenvalues --   -0.50549  -0.50152  -0.49479  -0.49191  -0.49001
 Alpha  occ. eigenvalues --   -0.48549  -0.48436  -0.48047  -0.47696  -0.47487
 Alpha  occ. eigenvalues --   -0.46956  -0.46863  -0.46656  -0.46188  -0.45414
 Alpha  occ. eigenvalues --   -0.45171  -0.43989  -0.43438  -0.43067  -0.42710
 Alpha  occ. eigenvalues --   -0.42294  -0.41810  -0.40902  -0.40252  -0.39809
 Alpha  occ. eigenvalues --   -0.39578  -0.39229  -0.38866  -0.38572  -0.38468
 Alpha  occ. eigenvalues --   -0.38333  -0.38211  -0.38076  -0.36347  -0.35800
 Alpha  occ. eigenvalues --   -0.35300  -0.34867  -0.34488  -0.33149  -0.31278
 Alpha  occ. eigenvalues --   -0.29566  -0.29147
 Alpha virt. eigenvalues --   -0.11120  -0.10855  -0.10196  -0.09645  -0.09139
 Alpha virt. eigenvalues --   -0.07845  -0.07272  -0.07112  -0.04875  -0.04710
 Alpha virt. eigenvalues --   -0.04114  -0.02732  -0.02234  -0.01664  -0.00968

 Mulliken charges:
               1
     1  N   -0.687513
     2  H    0.311067
     3  H    0.320232
     4  C   -0.072958
     5  H    0.148321
     6  C    0.608653
     7  C   -0.351883
     8  H    0.165996
     9  H    0.134649
    10  O   -0.548180
    11  C    0.170075
    12  C   -0.188265
    13  H    0.104162
    14  C   -0.154877
    15  H    0.145594
    16  C   -0.127418
    17  H    0.132126
    18  C   -0.132247
    19  H    0.139873
    20  C   -0.127546
    21  H    0.138868
    22  N   -0.610052
    23  H    0.342934
    24  C   -0.077242
    25  H    0.206341
    26  C    0.635326
    27  C   -0.047377
    28  H    0.120784
    29  H    0.171174
    30  O   -0.612819
    31  O   -0.620863
    32  H    0.402949
    33  N   -0.613464
    34  H    0.402532
    35  C   -0.088965
    36  H    0.188438
    37  C    0.632529
    38  C   -0.041953
    39  H    0.148840
    40  H    0.158188
    41  O   -0.535376
    42  O   -0.620936
    43  H    0.420972
    44  N   -0.647071
    45  H    0.382565
    46  C   -0.041355
    47  H    0.217236
    48  C    0.619558
    49  C   -0.373571
    50  H    0.230664
    51  H    0.201023
    52  O   -0.593775
    53  C    0.613222
    54  O   -0.475629
    55  O   -0.545235
    56  N   -0.627149
    57  H    0.420779
    58  C   -0.041618
    59  H    0.194867
    60  C    0.577534
    61  C   -0.300282
    62  H    0.188471
    63  H    0.172439
    64  O   -0.433780
    65  C   -0.299145
    66  H    0.183562
    67  H    0.184588
    68  C   -0.158017
    69  H    0.184256
    70  H    0.171411
    71  N   -0.647388
    72  H    0.425183
    73  N   -0.762244
    74  H    0.377363
    75  H    0.383285
    76  N   -0.800849
    77  H    0.434389
    78  H    0.369167
    79  C    0.821861
    80  O   -0.563538
    81  H    0.434577
    82  H    0.431954
 Sum of Mulliken charges =   1.00000

 Dipole moment (field-independent basis, Debye):
    X=             13.1651    Y=             17.0645    Z=              6.1626  Tot=             22.4164
 Quadrupole moment (field-independent basis, Debye-Ang):
   XX=           -117.7953   YY=           -184.3967   ZZ=           -202.3390
   XY=             43.5549   XZ=             30.0146   YZ=             58.8349

 Normal termination of Gaussian 16 at Thu May 26 20:31:09 2022.
