 Gaussian 16, Revision C.01,
 Gaussian 16:  ES64L-G16RevC.01  3-Jul-2019

 -------------------------------------------------------------------
 # B3LYP/6-31G* guess=read geom=check nosymm integral(ultrafinegrid)
 -------------------------------------------------------------------

 ------------------------------------------------------
 Candidate Structure: Conf:879 Charge calc in gas phase
 ------------------------------------------------------
 Structure from the checkpoint file:  "conf-879.chk"
 Charge =  1 Multiplicity = 1

                          Input orientation:
 ---------------------------------------------------------------------
 Center     Atomic      Atomic             Coordinates (Angstroms)
 Number     Number       Type             X           Y           Z
 ---------------------------------------------------------------------
      1          7           0       -4.950064   -1.321893   -4.141797
      2          1           0       -4.764972   -1.937195   -3.351571
      3          1           0       -5.926630   -1.038044   -4.099785
      4          6           0       -4.087694   -0.155278   -4.054221
      5          1           0       -4.145129    0.381403   -5.011191
      6          6           0       -2.659662   -0.654731   -3.840831
      7          6           0       -4.415480    0.873853   -2.915951
      8          1           0       -4.263312    0.383782   -1.947328
      9          1           0       -3.691927    1.699178   -2.970218
     10          8           0       -2.413194   -1.575245   -3.048680
     11          6           0       -5.821084    1.418428   -3.022732
     12          6           0       -6.105457    2.510715   -3.855341
     13          1           0       -5.296371    2.996127   -4.397900
     14          6           0       -6.879867    0.818223   -2.326067
     15          1           0       -6.676246   -0.019516   -1.662815
     16          6           0       -7.408271    2.989418   -3.990122
     17          1           0       -7.607094    3.839919   -4.636554
     18          6           0       -8.186301    1.293821   -2.459455
     19          1           0       -8.992630    0.817476   -1.908287
     20          6           0       -8.454129    2.380071   -3.292992
     21          1           0       -9.469300    2.752772   -3.396278
     22          7           0       -1.680462   -0.004432   -4.525872
     23          1           0       -1.938715    0.840593   -5.022227
     24          6           0       -0.246632   -0.228682   -4.280571
     25          1           0       -0.093888   -1.311006   -4.241895
     26          6           0        0.130594    0.398893   -2.928842
     27          6           0        0.592460    0.328874   -5.432978
     28          1           0        1.645811    0.242690   -5.155969
     29          1           0        0.374434    1.400213   -5.568789
     30          8           0        0.551654    1.554872   -2.821539
     31          8           0        0.427308   -0.412916   -6.625042
     32          1           0       -0.508831   -0.388323   -6.878545
     33          7           0       -0.093549   -0.419673   -1.874183
     34          1           0       -0.561045   -1.294655   -2.089667
     35          6           0       -0.160087    0.056012   -0.493094
     36          1           0       -0.544295    1.084075   -0.514213
     37          6           0        1.250193    0.071860    0.128291
     38          6           0       -1.141594   -0.825598    0.294081
     39          1           0       -1.158703   -0.488811    1.334033
     40          1           0       -0.778132   -1.863336    0.299813
     41          8           0        1.562975   -0.688665    1.056144
     42          8           0       -2.465388   -0.723088   -0.193551
     43          1           0       -2.530999   -1.180095   -1.053082
     44          7           0        2.082603    0.979103   -0.430260
     45          1           0        1.714819    1.464750   -1.252417
     46          6           0        3.541715    0.945359   -0.259795
     47          1           0        3.851166   -0.107095   -0.244282
     48          6           0        3.967552    1.592409    1.082413
     49          6           0        4.230695    1.666310   -1.416631
     50          1           0        3.865314    2.696150   -1.505911
     51          1           0        5.298551    1.767061   -1.200315
     52          8           0        4.565277    2.658452    1.151772
     53          6           0        4.070966    0.969374   -2.752128
     54          8           0        3.415619   -0.029484   -2.966945
     55          8           0        4.770962    1.610905   -3.710104
     56          7           0        3.613562    0.860118    2.176413
     57          1           0        3.106461   -0.009419    2.014049
     58          6           0        3.996976    1.261697    3.503923
     59          1           0        4.004722    2.357700    3.536593
     60          6           0        5.430569    0.811714    3.830787
     61          6           0        3.012205    0.716824    4.558556
     62          1           0        3.351519    1.066505    5.539988
     63          1           0        3.068180   -0.381171    4.570843
     64          8           0        6.111960    0.082118    3.157148
     65          6           0        1.562794    1.144989    4.293081
     66          1           0        1.230547    0.742426    3.329701
     67          1           0        1.512778    2.240716    4.207812
     68          6           0        0.574521    0.644164    5.353214
     69          1           0       -0.459163    0.889115    5.088376
     70          1           0        0.625117   -0.445096    5.437632
     71          7           0        0.820738    1.169656    6.714819
     72          1           0        1.470814    0.658390    7.298159
     73          7           0       -0.295850    3.189654    6.425830
     74          1           0       -0.861580    3.929559    6.817336
     75          1           0       -0.212713    3.148252    5.420354
     76          7           0        0.448215    2.569907    8.525857
     77          1           0        0.702571    1.849896    9.187488
     78          1           0        0.321333    3.505204    8.886477
     79          6           0        0.332561    2.305462    7.212995
     80          8           0        5.837723    1.345040    5.011385
     81          1           0        6.755541    1.041699    5.150095
     82          1           0        4.638752    1.114259   -4.539905
 ---------------------------------------------------------------------

 SCF Done:  E(RB3LYP) =  -2166.26976166     A.U. after    1 cycles

 Alpha  occ. eigenvalues --  -19.27825 -19.25950 -19.22001 -19.20974 -19.20888
 Alpha  occ. eigenvalues --  -19.20744 -19.20707 -19.20567 -19.20134 -19.18890
 Alpha  occ. eigenvalues --  -14.55146 -14.55133 -14.55025 -14.45405 -14.43864
 Alpha  occ. eigenvalues --  -14.43517 -14.42912 -14.37101 -10.51520 -10.39925
 Alpha  occ. eigenvalues --  -10.38935 -10.38054 -10.37323 -10.37032 -10.36822
 Alpha  occ. eigenvalues --  -10.35966 -10.32962 -10.31949 -10.31254 -10.31055
 Alpha  occ. eigenvalues --  -10.31023 -10.30906 -10.30905 -10.30297 -10.29452
 Alpha  occ. eigenvalues --  -10.27259 -10.25543 -10.25448 -10.24519 -10.24485
 Alpha  occ. eigenvalues --  -10.24421 -10.24413 -10.24238  -1.19852  -1.18527
 Alpha  occ. eigenvalues --   -1.17026  -1.12617  -1.11995  -1.11291  -1.10741
 Alpha  occ. eigenvalues --   -1.09646  -1.08993  -1.08543  -1.08376  -1.08049
 Alpha  occ. eigenvalues --   -1.08012  -1.01165  -1.00786  -1.00515  -0.99700
 Alpha  occ. eigenvalues --   -0.95119  -0.92975  -0.90837  -0.87826  -0.86528
 Alpha  occ. eigenvalues --   -0.85110  -0.83434  -0.83007  -0.82148  -0.79935
 Alpha  occ. eigenvalues --   -0.79831  -0.77654  -0.77465  -0.76865  -0.74591
 Alpha  occ. eigenvalues --   -0.73043  -0.72199  -0.71719  -0.70821  -0.69508
 Alpha  occ. eigenvalues --   -0.68688  -0.68111  -0.67155  -0.66664  -0.66448
 Alpha  occ. eigenvalues --   -0.65952  -0.65239  -0.65195  -0.63553  -0.63255
 Alpha  occ. eigenvalues --   -0.61520  -0.61218  -0.60391  -0.59700  -0.59360
 Alpha  occ. eigenvalues --   -0.58794  -0.58433  -0.57498  -0.57337  -0.56956
 Alpha  occ. eigenvalues --   -0.56797  -0.56252  -0.55867  -0.55459  -0.55246
 Alpha  occ. eigenvalues --   -0.54862  -0.54633  -0.52942  -0.52882  -0.52435
 Alpha  occ. eigenvalues --   -0.52175  -0.52141  -0.51774  -0.51451  -0.50663
 Alpha  occ. eigenvalues --   -0.50399  -0.50078  -0.49156  -0.48968  -0.48825
 Alpha  occ. eigenvalues --   -0.48457  -0.48215  -0.47727  -0.47359  -0.47296
 Alpha  occ. eigenvalues --   -0.47142  -0.46994  -0.46321  -0.46160  -0.46123
 Alpha  occ. eigenvalues --   -0.45948  -0.45460  -0.45188  -0.45076  -0.44970
 Alpha  occ. eigenvalues --   -0.44734  -0.44437  -0.43423  -0.43393  -0.42539
 Alpha  occ. eigenvalues --   -0.41076  -0.40143  -0.39892  -0.39791  -0.39482
 Alpha  occ. eigenvalues --   -0.39376  -0.38330  -0.36850  -0.36072  -0.35745
 Alpha  occ. eigenvalues --   -0.35641  -0.34649  -0.34363  -0.34130  -0.33948
 Alpha  occ. eigenvalues --   -0.33080  -0.32650  -0.31645  -0.31330  -0.30695
 Alpha  occ. eigenvalues --   -0.30312  -0.28866
 Alpha virt. eigenvalues --   -0.15402  -0.11199  -0.07737  -0.07724  -0.07247
 Alpha virt. eigenvalues --   -0.06903  -0.06782  -0.06384  -0.05751  -0.05660
 Alpha virt. eigenvalues --   -0.05243  -0.05017  -0.04893  -0.02209  -0.01011

 Mulliken charges:
               1
     1  N   -0.712890
     2  H    0.313867
     3  H    0.316263
     4  C   -0.062156
     5  H    0.144180
     6  C    0.656109
     7  C   -0.381824
     8  H    0.171682
     9  H    0.139682
    10  O   -0.564525
    11  C    0.171640
    12  C   -0.178594
    13  H    0.120354
    14  C   -0.196694
    15  H    0.129980
    16  C   -0.126643
    17  H    0.140741
    18  C   -0.127256
    19  H    0.139774
    20  C   -0.128842
    21  H    0.141967
    22  N   -0.610104
    23  H    0.342421
    24  C   -0.087739
    25  H    0.200758
    26  C    0.652527
    27  C   -0.053680
    28  H    0.181441
    29  H    0.141922
    30  O   -0.559566
    31  O   -0.601938
    32  H    0.397077
    33  N   -0.599016
    34  H    0.364491
    35  C   -0.082902
    36  H    0.180904
    37  C    0.646500
    38  C   -0.053230
    39  H    0.139809
    40  H    0.155944
    41  O   -0.567655
    42  O   -0.645741
    43  H    0.427644
    44  N   -0.619800
    45  H    0.390605
    46  C   -0.053560
    47  H    0.196814
    48  C    0.633780
    49  C   -0.394521
    50  H    0.209053
    51  H    0.219317
    52  O   -0.518756
    53  C    0.591800
    54  O   -0.470146
    55  O   -0.557766
    56  N   -0.625256
    57  H    0.375850
    58  C   -0.026909
    59  H    0.194413
    60  C    0.592680
    61  C   -0.308894
    62  H    0.155264
    63  H    0.167137
    64  O   -0.436193
    65  C   -0.280842
    66  H    0.208083
    67  H    0.140776
    68  C   -0.194331
    69  H    0.190950
    70  H    0.208391
    71  N   -0.583072
    72  H    0.372213
    73  N   -0.752102
    74  H    0.390318
    75  H    0.397990
    76  N   -0.759015
    77  H    0.389501
    78  H    0.389976
    79  C    0.827320
    80  O   -0.579831
    81  H    0.422959
    82  H    0.419121
 Sum of Mulliken charges =   1.00000

 Dipole moment (field-independent basis, Debye):
    X=             -2.1714    Y=             11.4693    Z=             27.7740  Tot=             30.1273
 Quadrupole moment (field-independent basis, Debye-Ang):
   XX=           -220.9494   YY=           -224.7082   ZZ=             23.7677
   XY=            -14.5300   XZ=             31.0214   YZ=             56.9375

 Normal termination of Gaussian 16 at Thu May 26 20:50:27 2022.
