 Gaussian 16, Revision C.01,
 Gaussian 16:  ES64L-G16RevC.01  3-Jul-2019

 -------------------------------------------------------------------
 # B3LYP/6-31G* guess=read geom=check nosymm integral(ultrafinegrid)
 -------------------------------------------------------------------

 ------------------------------------------------------
 Candidate Structure: Conf:883 Charge calc in gas phase
 ------------------------------------------------------
 Structure from the checkpoint file:  "conf-883.chk"
 Charge =  1 Multiplicity = 1

                          Input orientation:
 ---------------------------------------------------------------------
 Center     Atomic      Atomic             Coordinates (Angstroms)
 Number     Number       Type             X           Y           Z
 ---------------------------------------------------------------------
      1          7           0       -2.746046   -4.222670    0.273333
      2          1           0       -3.561161   -4.473491    0.830157
      3          1           0       -2.839318   -4.714896   -0.613818
      4          6           0       -2.734544   -2.771527    0.050579
      5          1           0       -3.709743   -2.376652   -0.284860
      6          6           0       -1.669404   -2.483149   -1.029992
      7          6           0       -2.306953   -2.022937    1.336941
      8          1           0       -1.228239   -2.191818    1.402662
      9          1           0       -2.452643   -0.948664    1.172378
     10          8           0       -0.465786   -2.533940   -0.780889
     11          6           0       -2.980104   -2.436329    2.629502
     12          6           0       -3.920878   -1.604005    3.251053
     13          1           0       -4.186918   -0.658023    2.785300
     14          6           0       -2.652485   -3.655329    3.257232
     15          1           0       -1.964788   -4.334956    2.759415
     16          6           0       -4.518730   -1.967130    4.460292
     17          1           0       -5.245036   -1.304137    4.921564
     18          6           0       -3.257448   -4.023976    4.464598
     19          1           0       -3.023507   -4.986988    4.913538
     20          6           0       -4.187993   -3.176140    5.073385
     21          1           0       -4.660248   -3.462844    6.008473
     22          7           0       -2.153999   -2.231465   -2.279147
     23          1           0       -3.125480   -1.953006   -2.363637
     24          6           0       -1.265657   -1.880052   -3.399766
     25          1           0       -0.365232   -2.485796   -3.275904
     26          6           0       -0.926257   -0.377584   -3.335540
     27          6           0       -1.928621   -2.247373   -4.732352
     28          1           0       -1.279585   -1.923090   -5.549426
     29          1           0       -2.876698   -1.699805   -4.839817
     30          8           0       -1.630653    0.466162   -3.882331
     31          8           0       -2.088913   -3.646169   -4.879471
     32          1           0       -2.705197   -3.950529   -4.195796
     33          7           0        0.183155   -0.090030   -2.608696
     34          1           0        0.672849   -0.825724   -2.107559
     35          6           0        0.640543    1.259828   -2.354768
     36          1           0        0.654379    1.830682   -3.289572
     37          6           0        2.039614    1.166470   -1.754356
     38          6           0       -0.310317    1.998268   -1.353109
     39          1           0       -0.447991    1.349679   -0.476434
     40          1           0       -1.272217    2.115988   -1.856972
     41          8           0        2.483848    0.116039   -1.288922
     42          8           0        0.152523    3.283553   -0.982359
     43          1           0        0.718490    3.174499   -0.191402
     44          7           0        2.721790    2.347870   -1.687864
     45          1           0        2.143876    3.173697   -1.828610
     46          6           0        3.794072    2.460592   -0.709897
     47          1           0        4.558144    1.718675   -0.957732
     48          6           0        3.225045    2.175572    0.694910
     49          6           0        4.433421    3.854158   -0.772032
     50          1           0        3.678646    4.646309   -0.763311
     51          1           0        5.062202    4.009548    0.114280
     52          8           0        2.095298    2.540417    1.030044
     53          6           0        5.339008    3.984860   -1.987798
     54          8           0        5.998633    3.082530   -2.450493
     55          8           0        5.346513    5.244459   -2.464725
     56          7           0        4.048121    1.499028    1.536385
     57          1           0        4.942774    1.178722    1.189327
     58          6           0        3.625453    1.099688    2.866654
     59          1           0        2.751657    1.725134    3.088104
     60          6           0        4.669916    1.409143    3.941093
     61          6           0        3.204022   -0.383698    2.959211
     62          1           0        2.873176   -0.539255    3.992381
     63          1           0        4.095202   -1.012657    2.806423
     64          8           0        4.716725    0.836092    5.006893
     65          6           0        2.116231   -0.781958    1.955355
     66          1           0        2.478209   -0.648540    0.930469
     67          1           0        1.248114   -0.118273    2.055315
     68          6           0        1.652438   -2.238155    2.080758
     69          1           0        1.052150   -2.512034    1.207283
     70          1           0        2.497547   -2.933825    2.117879
     71          7           0        0.800479   -2.491965    3.265728
     72          1           0       -0.184211   -2.272536    3.162067
     73          7           0        2.428933   -3.277137    4.737436
     74          1           0        2.681245   -3.866143    5.517527
     75          1           0        3.166702   -2.755160    4.287538
     76          7           0        0.182216   -3.508249    5.249396
     77          1           0       -0.794032   -3.516890    4.963847
     78          1           0        0.385313   -3.673071    6.224839
     79          6           0        1.140711   -3.079841    4.410071
     80          8           0        5.513273    2.395850    3.583906
     81          1           0        6.112515    2.542297    4.341858
     82          1           0        5.974954    5.263260   -3.212530
 ---------------------------------------------------------------------

 SCF Done:  E(RB3LYP) =  -2166.27889326     A.U. after    3 cycles

 Alpha  occ. eigenvalues --  -19.29932 -19.27374 -19.24177 -19.22739 -19.21789
 Alpha  occ. eigenvalues --  -19.21659 -19.21518 -19.21393 -19.21146 -19.18614
 Alpha  occ. eigenvalues --  -14.52507 -14.52201 -14.51935 -14.47277 -14.46287
 Alpha  occ. eigenvalues --  -14.44476 -14.43122 -14.41572 -10.48720 -10.42487
 Alpha  occ. eigenvalues --  -10.40162 -10.39502 -10.38573 -10.37541 -10.35954
 Alpha  occ. eigenvalues --  -10.35097 -10.34869 -10.33245 -10.32820 -10.30951
 Alpha  occ. eigenvalues --  -10.30886 -10.30842 -10.30681 -10.30430 -10.30371
 Alpha  occ. eigenvalues --  -10.29764 -10.29677 -10.29515 -10.29397 -10.29348
 Alpha  occ. eigenvalues --  -10.29171 -10.29144 -10.29067  -1.20880  -1.18286
 Alpha  occ. eigenvalues --   -1.17043  -1.14652  -1.13465  -1.12722  -1.11863
 Alpha  occ. eigenvalues --   -1.10503  -1.09364  -1.08927  -1.08852  -1.06199
 Alpha  occ. eigenvalues --   -1.05171  -1.03722  -1.01845  -1.01603  -0.99680
 Alpha  occ. eigenvalues --   -0.98847  -0.95626  -0.91736  -0.88839  -0.87935
 Alpha  occ. eigenvalues --   -0.86752  -0.85348  -0.84702  -0.82649  -0.81706
 Alpha  occ. eigenvalues --   -0.81319  -0.78821  -0.77627  -0.74919  -0.74471
 Alpha  occ. eigenvalues --   -0.73279  -0.73159  -0.71446  -0.70734  -0.70524
 Alpha  occ. eigenvalues --   -0.70228  -0.69965  -0.68978  -0.67817  -0.67204
 Alpha  occ. eigenvalues --   -0.66928  -0.65953  -0.65274  -0.65066  -0.63793
 Alpha  occ. eigenvalues --   -0.62226  -0.61508  -0.61158  -0.60823  -0.60490
 Alpha  occ. eigenvalues --   -0.59600  -0.59207  -0.58601  -0.58233  -0.58015
 Alpha  occ. eigenvalues --   -0.57573  -0.57142  -0.56640  -0.56577  -0.56197
 Alpha  occ. eigenvalues --   -0.55796  -0.55675  -0.55304  -0.54652  -0.54442
 Alpha  occ. eigenvalues --   -0.54174  -0.53745  -0.53321  -0.53283  -0.52063
 Alpha  occ. eigenvalues --   -0.51723  -0.51716  -0.51511  -0.51106  -0.50570
 Alpha  occ. eigenvalues --   -0.50379  -0.49938  -0.49138  -0.49055  -0.48717
 Alpha  occ. eigenvalues --   -0.48126  -0.48007  -0.47848  -0.47273  -0.47029
 Alpha  occ. eigenvalues --   -0.46808  -0.46634  -0.46379  -0.45998  -0.45611
 Alpha  occ. eigenvalues --   -0.45427  -0.45303  -0.45155  -0.44064  -0.43824
 Alpha  occ. eigenvalues --   -0.43479  -0.43385  -0.41943  -0.40698  -0.40577
 Alpha  occ. eigenvalues --   -0.40149  -0.39462  -0.38897  -0.37403  -0.37138
 Alpha  occ. eigenvalues --   -0.36447  -0.35882  -0.35772  -0.35501  -0.35473
 Alpha  occ. eigenvalues --   -0.35123  -0.34607  -0.34504  -0.33847  -0.33656
 Alpha  occ. eigenvalues --   -0.31819  -0.31253
 Alpha virt. eigenvalues --   -0.12601  -0.11327  -0.11055  -0.09582  -0.08873
 Alpha virt. eigenvalues --   -0.08369  -0.07846  -0.07607  -0.06138  -0.05059
 Alpha virt. eigenvalues --   -0.04382  -0.04043  -0.02458  -0.02381  -0.01989

 Mulliken charges:
               1
     1  N   -0.719936
     2  H    0.320120
     3  H    0.316723
     4  C   -0.047875
     5  H    0.129907
     6  C    0.623281
     7  C   -0.364581
     8  H    0.155115
     9  H    0.160007
    10  O   -0.525062
    11  C    0.137096
    12  C   -0.183869
    13  H    0.149928
    14  C   -0.250490
    15  H    0.174305
    16  C   -0.124680
    17  H    0.161622
    18  C   -0.159762
    19  H    0.151567
    20  C   -0.126475
    21  H    0.158593
    22  N   -0.617308
    23  H    0.341078
    24  C   -0.085247
    25  H    0.191293
    26  C    0.625106
    27  C   -0.049464
    28  H    0.181367
    29  H    0.150869
    30  O   -0.526764
    31  O   -0.601254
    32  H    0.388163
    33  N   -0.625973
    34  H    0.368321
    35  C   -0.055786
    36  H    0.196859
    37  C    0.607296
    38  C   -0.048345
    39  H    0.124584
    40  H    0.191827
    41  O   -0.541761
    42  O   -0.645268
    43  H    0.432241
    44  N   -0.590504
    45  H    0.354256
    46  C   -0.067465
    47  H    0.203781
    48  C    0.651865
    49  C   -0.386297
    50  H    0.199458
    51  H    0.204842
    52  O   -0.555225
    53  C    0.595672
    54  O   -0.446685
    55  O   -0.554717
    56  N   -0.595001
    57  H    0.349794
    58  C   -0.065786
    59  H    0.226306
    60  C    0.595131
    61  C   -0.288395
    62  H    0.159694
    63  H    0.140166
    64  O   -0.461568
    65  C   -0.287994
    66  H    0.223075
    67  H    0.161230
    68  C   -0.215697
    69  H    0.250413
    70  H    0.172142
    71  N   -0.599213
    72  H    0.375502
    73  N   -0.758609
    74  H    0.381930
    75  H    0.393638
    76  N   -0.778410
    77  H    0.390204
    78  H    0.375622
    79  C    0.812666
    80  O   -0.556687
    81  H    0.429102
    82  H    0.424395
 Sum of Mulliken charges =   1.00000

 Dipole moment (field-independent basis, Debye):
    X=              4.2939    Y=             -9.0894    Z=             18.5206  Tot=             21.0730
 Quadrupole moment (field-independent basis, Debye-Ang):
   XX=           -168.2655   YY=           -192.8282   ZZ=           -164.3209
   XY=             37.3414   XZ=             15.1809   YZ=            -59.9387

 Normal termination of Gaussian 16 at Thu May 26 20:51:02 2022.
