 Gaussian 16, Revision C.01,
 Gaussian 16:  ES64L-G16RevC.01  3-Jul-2019

 -------------------------------------------------------------------
 # B3LYP/6-31G* guess=read geom=check nosymm integral(ultrafinegrid)
 -------------------------------------------------------------------

 ------------------------------------------------------
 Candidate Structure: Conf:474 Charge calc in gas phase
 ------------------------------------------------------
 Structure from the checkpoint file:  "conf-474.chk"
 Charge =  1 Multiplicity = 1

                          Input orientation:
 ---------------------------------------------------------------------
 Center     Atomic      Atomic             Coordinates (Angstroms)
 Number     Number       Type             X           Y           Z
 ---------------------------------------------------------------------
      1          7           0       -5.382199   -0.577172   -5.402124
      2          1           0       -5.085049   -1.308127   -6.047208
      3          1           0       -5.890228   -1.074741   -4.670707
      4          6           0       -4.202708    0.030894   -4.803878
      5          1           0       -3.571825    0.407062   -5.621661
      6          6           0       -3.352279   -0.989420   -4.012100
      7          6           0       -4.605841    1.268197   -3.951608
      8          1           0       -3.703632    1.809433   -3.639477
      9          1           0       -5.152363    1.933090   -4.628294
     10          8           0       -3.693433   -2.156138   -3.871623
     11          6           0       -5.453717    0.957339   -2.735137
     12          6           0       -6.836317    0.752199   -2.860285
     13          1           0       -7.297928    0.833933   -3.840697
     14          6           0       -4.878698    0.869831   -1.459398
     15          1           0       -3.811995    1.049302   -1.339970
     16          6           0       -7.617905    0.452717   -1.743879
     17          1           0       -8.687348    0.299337   -1.860736
     18          6           0       -5.659803    0.574597   -0.340938
     19          1           0       -5.198144    0.520139    0.641948
     20          6           0       -7.031890    0.361396   -0.480039
     21          1           0       -7.641811    0.135434    0.390342
     22          7           0       -2.154945   -0.524432   -3.513954
     23          1           0       -1.980093    0.471967   -3.468289
     24          6           0       -1.363773   -1.341350   -2.618362
     25          1           0       -2.005646   -2.148315   -2.251043
     26          6           0       -0.887178   -0.492064   -1.442903
     27          6           0       -0.166692   -1.986480   -3.369920
     28          1           0        0.357443   -1.207829   -3.935608
     29          1           0       -0.581064   -2.708248   -4.080631
     30          8           0       -0.850693    0.745947   -1.489635
     31          8           0        0.720559   -2.660859   -2.483878
     32          1           0        1.527206   -2.121772   -2.431691
     33          7           0       -0.498651   -1.189928   -0.343095
     34          1           0       -0.281311   -2.171637   -0.489127
     35          6           0       -0.108836   -0.549535    0.907359
     36          1           0       -0.733418    0.342996    1.024441
     37          6           0        1.360742   -0.077369    0.874716
     38          6           0       -0.375362   -1.495617    2.088635
     39          1           0        0.200505   -2.426775    1.949770
     40          1           0       -1.435406   -1.759741    2.093692
     41          8           0        2.218186   -0.475012    1.702148
     42          8           0       -0.093243   -0.880330    3.328026
     43          1           0        0.843047   -0.628438    3.286017
     44          7           0        1.660498    0.769149   -0.110643
     45          1           0        0.883406    1.086244   -0.698171
     46          6           0        3.025712    1.176081   -0.399390
     47          1           0        3.650871    0.276966   -0.366560
     48          6           0        3.521248    2.186159    0.657976
     49          6           0        3.108469    1.791541   -1.800929
     50          1           0        2.397822    2.620341   -1.906817
     51          1           0        4.101049    2.228227   -1.963876
     52          8           0        2.784238    3.035076    1.137598
     53          6           0        2.857779    0.773007   -2.898472
     54          8           0        2.633909   -0.409303   -2.719340
     55          8           0        2.928907    1.339158   -4.109620
     56          7           0        4.833090    2.033876    0.999326
     57          1           0        5.391748    1.351550    0.504159
     58          6           0        5.541942    2.970334    1.864274
     59          1           0        4.946724    3.891595    1.883381
     60          6           0        6.913638    3.352248    1.303007
     61          6           0        5.685001    2.430120    3.303907
     62          1           0        6.441598    3.026951    3.820372
     63          1           0        6.078429    1.406788    3.237364
     64          8           0        7.737245    3.974487    1.927635
     65          6           0        4.354035    2.450270    4.090978
     66          1           0        3.498191    2.565819    3.415961
     67          1           0        4.328396    3.325518    4.748516
     68          6           0        4.132343    1.212606    4.964253
     69          1           0        5.048543    0.986461    5.525091
     70          1           0        3.324402    1.395787    5.683915
     71          7           0        3.785984    0.051631    4.126759
     72          1           0        3.416802    0.225789    3.190925
     73          7           0        4.097639   -1.544132    5.793392
     74          1           0        4.119081   -2.506851    6.095864
     75          1           0        4.411356   -0.847199    6.451109
     76          7           0        3.335588   -2.172115    3.689068
     77          1           0        2.898516   -1.881842    2.812924
     78          1           0        3.138366   -3.103358    4.026395
     79          6           0        3.732796   -1.214387    4.543489
     80          8           0        7.104676    2.922411    0.032898
     81          1           0        7.994182    3.228507   -0.232153
     82          1           0        2.778852    0.643713   -4.779119
 ---------------------------------------------------------------------

 SCF Done:  E(RB3LYP) =  -2166.29340197     A.U. after    1 cycles

 Alpha  occ. eigenvalues --  -19.31232 -19.30634 -19.26371 -19.26345 -19.24424
 Alpha  occ. eigenvalues --  -19.24338 -19.23097 -19.23063 -19.23037 -19.17766
 Alpha  occ. eigenvalues --  -14.52876 -14.51750 -14.51268 -14.48470 -14.48089
 Alpha  occ. eigenvalues --  -14.46957 -14.42639 -14.36040 -10.48551 -10.44577
 Alpha  occ. eigenvalues --  -10.42860 -10.42089 -10.40480 -10.39486 -10.36609
 Alpha  occ. eigenvalues --  -10.36222 -10.35316 -10.34688 -10.34428 -10.34012
 Alpha  occ. eigenvalues --  -10.32882 -10.31651 -10.31241 -10.30899 -10.30445
 Alpha  occ. eigenvalues --  -10.28031 -10.24687 -10.24408 -10.23717 -10.23623
 Alpha  occ. eigenvalues --  -10.23446 -10.23389 -10.23182  -1.22521  -1.21312
 Alpha  occ. eigenvalues --   -1.17395  -1.16877  -1.15113  -1.14581  -1.13613
 Alpha  occ. eigenvalues --   -1.12317  -1.12038  -1.10262  -1.09643  -1.06282
 Alpha  occ. eigenvalues --   -1.05601  -1.05094  -1.04494  -1.03260  -0.99160
 Alpha  occ. eigenvalues --   -0.93935  -0.92763  -0.91541  -0.89861  -0.87729
 Alpha  occ. eigenvalues --   -0.87494  -0.83569  -0.82308  -0.81935  -0.80799
 Alpha  occ. eigenvalues --   -0.78919  -0.78865  -0.76552  -0.75836  -0.74840
 Alpha  occ. eigenvalues --   -0.73715  -0.73449  -0.72821  -0.71200  -0.71070
 Alpha  occ. eigenvalues --   -0.70461  -0.69914  -0.69766  -0.67941  -0.65669
 Alpha  occ. eigenvalues --   -0.65517  -0.65241  -0.65112  -0.65023  -0.64431
 Alpha  occ. eigenvalues --   -0.63271  -0.62660  -0.61995  -0.61640  -0.61045
 Alpha  occ. eigenvalues --   -0.60627  -0.60457  -0.59932  -0.58927  -0.58729
 Alpha  occ. eigenvalues --   -0.58575  -0.58218  -0.57702  -0.57103  -0.56593
 Alpha  occ. eigenvalues --   -0.56191  -0.55460  -0.55234  -0.54940  -0.54770
 Alpha  occ. eigenvalues --   -0.54478  -0.53873  -0.53246  -0.52660  -0.52456
 Alpha  occ. eigenvalues --   -0.52165  -0.51834  -0.51370  -0.51135  -0.50493
 Alpha  occ. eigenvalues --   -0.50436  -0.50167  -0.49968  -0.49626  -0.48888
 Alpha  occ. eigenvalues --   -0.48369  -0.48209  -0.47867  -0.47607  -0.47011
 Alpha  occ. eigenvalues --   -0.46504  -0.46492  -0.46159  -0.46106  -0.45528
 Alpha  occ. eigenvalues --   -0.44431  -0.43813  -0.43691  -0.43408  -0.42625
 Alpha  occ. eigenvalues --   -0.42331  -0.42201  -0.41400  -0.41087  -0.40749
 Alpha  occ. eigenvalues --   -0.40209  -0.39834  -0.39339  -0.39078  -0.38494
 Alpha  occ. eigenvalues --   -0.37918  -0.37770  -0.37110  -0.36820  -0.36648
 Alpha  occ. eigenvalues --   -0.36161  -0.35354  -0.31976  -0.31531  -0.29571
 Alpha  occ. eigenvalues --   -0.29512  -0.28498
 Alpha virt. eigenvalues --   -0.12295  -0.12036  -0.11108  -0.09819  -0.09512
 Alpha virt. eigenvalues --   -0.08734  -0.08261  -0.04993  -0.04931  -0.04897
 Alpha virt. eigenvalues --   -0.04245  -0.03570  -0.03259  -0.02898  -0.02593

 Mulliken charges:
               1
     1  N   -0.692981
     2  H    0.309587
     3  H    0.316820
     4  C   -0.085116
     5  H    0.153780
     6  C    0.588060
     7  C   -0.354451
     8  H    0.133588
     9  H    0.177483
    10  O   -0.508530
    11  C    0.160188
    12  C   -0.189855
    13  H    0.153246
    14  C   -0.194210
    15  H    0.120038
    16  C   -0.126582
    17  H    0.140124
    18  C   -0.127061
    19  H    0.120647
    20  C   -0.127579
    21  H    0.134754
    22  N   -0.618708
    23  H    0.344938
    24  C   -0.064200
    25  H    0.206394
    26  C    0.619427
    27  C   -0.039764
    28  H    0.130446
    29  H    0.185196
    30  O   -0.564797
    31  O   -0.651940
    32  H    0.431959
    33  N   -0.593005
    34  H    0.361892
    35  C   -0.098742
    36  H    0.222208
    37  C    0.650270
    38  C   -0.041718
    39  H    0.118335
    40  H    0.187471
    41  O   -0.619392
    42  O   -0.619212
    43  H    0.393037
    44  N   -0.584272
    45  H    0.398818
    46  C   -0.046055
    47  H    0.175767
    48  C    0.621360
    49  C   -0.404108
    50  H    0.229622
    51  H    0.217188
    52  O   -0.505404
    53  C    0.606704
    54  O   -0.480535
    55  O   -0.541226
    56  N   -0.607756
    57  H    0.345420
    58  C   -0.070086
    59  H    0.229343
    60  C    0.589607
    61  C   -0.273471
    62  H    0.201456
    63  H    0.144304
    64  O   -0.434360
    65  C   -0.329861
    66  H    0.202238
    67  H    0.187063
    68  C   -0.160965
    69  H    0.171262
    70  H    0.193247
    71  N   -0.632161
    72  H    0.401495
    73  N   -0.765878
    74  H    0.382792
    75  H    0.390089
    76  N   -0.784535
    77  H    0.413656
    78  H    0.370295
    79  C    0.822497
    80  O   -0.578801
    81  H    0.431785
    82  H    0.431426
 Sum of Mulliken charges =   1.00000

 Dipole moment (field-independent basis, Debye):
    X=             20.2923    Y=             -2.0870    Z=             11.3354  Tot=             23.3372
 Quadrupole moment (field-independent basis, Debye-Ang):
   XX=           -158.9066   YY=           -242.0312   ZZ=           -138.9597
   XY=             -5.2977   XZ=             46.5491   YZ=            -32.8740

 Normal termination of Gaussian 16 at Thu May 26 20:50:43 2022.
