 Gaussian 16, Revision C.01,
 Gaussian 16:  ES64L-G16RevC.01  3-Jul-2019

 -------------------------------------------------------------------
 # B3LYP/6-31G* guess=read geom=check nosymm integral(ultrafinegrid)
 -------------------------------------------------------------------

 ------------------------------------------------------
 Candidate Structure: Conf:112 Charge calc in gas phase
 ------------------------------------------------------
 Structure from the checkpoint file:  "conf-112.chk"
 Charge =  1 Multiplicity = 1

                          Input orientation:
 ---------------------------------------------------------------------
 Center     Atomic      Atomic             Coordinates (Angstroms)
 Number     Number       Type             X           Y           Z
 ---------------------------------------------------------------------
      1          7           0       -2.781132   -4.542854   -3.352439
      2          1           0       -1.952469   -4.420305   -3.932829
      3          1           0       -2.523643   -5.203855   -2.619635
      4          6           0       -3.155191   -3.278163   -2.727358
      5          1           0       -3.273631   -2.529726   -3.520431
      6          6           0       -2.110267   -2.784396   -1.719143
      7          6           0       -4.517824   -3.452490   -2.007739
      8          1           0       -5.212568   -3.841165   -2.759447
      9          1           0       -4.396761   -4.231354   -1.245353
     10          8           0       -1.627266   -3.571305   -0.882034
     11          6           0       -5.050328   -2.184055   -1.376398
     12          6           0       -4.918847   -1.953079   -0.000245
     13          1           0       -4.454285   -2.712803    0.624788
     14          6           0       -5.667038   -1.199937   -2.162492
     15          1           0       -5.795139   -1.369101   -3.229868
     16          6           0       -5.388080   -0.770690    0.575820
     17          1           0       -5.290159   -0.615662    1.647335
     18          6           0       -6.134512   -0.015890   -1.591331
     19          1           0       -6.616610    0.731206   -2.215918
     20          6           0       -5.995311    0.202738   -0.218976
     21          1           0       -6.367811    1.120263    0.228062
     22          7           0       -1.754675   -1.485419   -1.781157
     23          1           0       -2.152265   -0.864116   -2.478892
     24          6           0       -0.916515   -0.847251   -0.783664
     25          1           0       -1.377698   -0.960823    0.207849
     26          6           0       -0.830421    0.651060   -1.119768
     27          6           0        0.505708   -1.467310   -0.690075
     28          1           0        1.227930   -0.714579   -0.366848
     29          1           0        0.801516   -1.821802   -1.686115
     30          8           0       -1.104322    1.088538   -2.226252
     31          8           0        0.535565   -2.522228    0.272963
     32          1           0       -0.228781   -3.109602    0.019386
     33          7           0       -0.423137    1.414004   -0.057953
     34          1           0       -0.087981    0.891626    0.742604
     35          6           0        0.232490    2.698861   -0.213788
     36          1           0       -0.126125    3.156639   -1.139105
     37          6           0        1.754113    2.486842   -0.280131
     38          6           0       -0.147741    3.597623    1.009002
     39          1           0       -0.084265    2.982902    1.919000
     40          1           0       -1.190134    3.903419    0.886940
     41          8           0        2.273195    1.398711   -0.012518
     42          8           0        0.636961    4.765364    1.133809
     43          1           0        1.446917    4.523584    1.630041
     44          7           0        2.487737    3.595262   -0.568492
     45          1           0        1.976871    4.471213   -0.481691
     46          6           0        3.890935    3.615991   -0.172142
     47          1           0        4.427366    2.875445   -0.771661
     48          6           0        3.982813    3.236556    1.323816
     49          6           0        4.503064    4.994944   -0.445014
     50          1           0        3.880872    5.802193   -0.045851
     51          1           0        5.474480    5.072863    0.060308
     52          8           0        3.126434    3.589083    2.141052
     53          6           0        4.759759    5.199545   -1.931211
     54          8           0        5.021046    4.313209   -2.711813
     55          8           0        4.697166    6.503035   -2.264180
     56          7           0        5.045661    2.468003    1.650877
     57          1           0        5.746279    2.255146    0.950135
     58          6           0        5.286399    1.914070    2.971823
     59          1           0        4.738592    2.515662    3.701872
     60          6           0        6.784468    2.003562    3.250405
     61          6           0        4.833682    0.428586    3.050706
     62          1           0        5.240452   -0.008362    3.970296
     63          1           0        5.305724   -0.099823    2.211741
     64          8           0        7.625882    2.144204    2.391875
     65          6           0        3.301543    0.260349    2.990478
     66          1           0        2.860598    1.065460    2.398996
     67          1           0        2.872671    0.348181    3.998095
     68          6           0        2.827526   -1.032458    2.325227
     69          1           0        1.733177   -1.053181    2.272790
     70          1           0        3.208763   -1.081028    1.300608
     71          7           0        3.304658   -2.231159    3.040137
     72          1           0        3.498665   -2.136651    4.028850
     73          7           0        2.743744   -3.754385    1.371971
     74          1           0        2.935595   -4.646354    0.936064
     75          1           0        1.960650   -3.200275    0.961830
     76          7           0        3.976186   -4.437074    3.218699
     77          1           0        4.669567   -4.209278    3.916153
     78          1           0        3.853245   -5.412036    2.987846
     79          6           0        3.325404   -3.471053    2.534536
     80          8           0        7.055496    1.853964    4.559899
     81          1           0        8.026320    1.897872    4.662047
     82          1           0        4.915874    6.567153   -3.214160
 ---------------------------------------------------------------------

 SCF Done:  E(RB3LYP) =  -2166.30240347     A.U. after    1 cycles

 Alpha  occ. eigenvalues --  -19.30112 -19.27660 -19.25072 -19.24546 -19.22797
 Alpha  occ. eigenvalues --  -19.22638 -19.22234 -19.22006 -19.21696 -19.21309
 Alpha  occ. eigenvalues --  -14.52211 -14.52093 -14.50424 -14.46983 -14.45569
 Alpha  occ. eigenvalues --  -14.45295 -14.45201 -14.38587 -10.48100 -10.42584
 Alpha  occ. eigenvalues --  -10.40494 -10.39601 -10.38714 -10.38472 -10.37385
 Alpha  occ. eigenvalues --  -10.35375 -10.34868 -10.33613 -10.33274 -10.33097
 Alpha  occ. eigenvalues --  -10.32598 -10.32470 -10.31003 -10.30535 -10.30130
 Alpha  occ. eigenvalues --  -10.29956 -10.25695 -10.25471 -10.24950 -10.24837
 Alpha  occ. eigenvalues --  -10.24805 -10.24736 -10.24692  -1.21082  -1.18599
 Alpha  occ. eigenvalues --   -1.16471  -1.14849  -1.13943  -1.13266  -1.12820
 Alpha  occ. eigenvalues --   -1.12230  -1.11213  -1.10290  -1.09694  -1.05960
 Alpha  occ. eigenvalues --   -1.04193  -1.03617  -1.02546  -1.02174  -1.01586
 Alpha  occ. eigenvalues --   -0.96083  -0.92030  -0.91333  -0.89328  -0.87310
 Alpha  occ. eigenvalues --   -0.86682  -0.84208  -0.82925  -0.81161  -0.80194
 Alpha  occ. eigenvalues --   -0.78722  -0.78120  -0.77975  -0.75313  -0.74176
 Alpha  occ. eigenvalues --   -0.73725  -0.72808  -0.72233  -0.70640  -0.69929
 Alpha  occ. eigenvalues --   -0.69351  -0.68461  -0.68204  -0.67457  -0.67181
 Alpha  occ. eigenvalues --   -0.66379  -0.65687  -0.64725  -0.64421  -0.63621
 Alpha  occ. eigenvalues --   -0.62472  -0.61356  -0.60735  -0.60607  -0.60171
 Alpha  occ. eigenvalues --   -0.59353  -0.59193  -0.58850  -0.58670  -0.58120
 Alpha  occ. eigenvalues --   -0.57378  -0.57124  -0.56830  -0.56425  -0.55920
 Alpha  occ. eigenvalues --   -0.55616  -0.55264  -0.54774  -0.54357  -0.54114
 Alpha  occ. eigenvalues --   -0.53556  -0.53328  -0.52969  -0.52736  -0.51919
 Alpha  occ. eigenvalues --   -0.51812  -0.51430  -0.51371  -0.50916  -0.50445
 Alpha  occ. eigenvalues --   -0.50354  -0.49546  -0.49359  -0.49160  -0.48778
 Alpha  occ. eigenvalues --   -0.48081  -0.47687  -0.47514  -0.47467  -0.47176
 Alpha  occ. eigenvalues --   -0.46903  -0.46628  -0.46194  -0.45805  -0.45750
 Alpha  occ. eigenvalues --   -0.44941  -0.44662  -0.44111  -0.42785  -0.42775
 Alpha  occ. eigenvalues --   -0.42163  -0.41860  -0.41070  -0.40791  -0.39802
 Alpha  occ. eigenvalues --   -0.39768  -0.39691  -0.38463  -0.38381  -0.37677
 Alpha  occ. eigenvalues --   -0.36916  -0.36607  -0.36041  -0.35897  -0.35804
 Alpha  occ. eigenvalues --   -0.35565  -0.35000  -0.34710  -0.33834  -0.31211
 Alpha  occ. eigenvalues --   -0.30876  -0.30038
 Alpha virt. eigenvalues --   -0.12469  -0.09724  -0.09213  -0.08403  -0.08145
 Alpha virt. eigenvalues --   -0.07907  -0.06808  -0.06657  -0.06210  -0.05822
 Alpha virt. eigenvalues --   -0.04611  -0.04040  -0.03161  -0.02245  -0.01154

 Mulliken charges:
               1
     1  N   -0.691328
     2  H    0.303834
     3  H    0.313163
     4  C   -0.072432
     5  H    0.147925
     6  C    0.637889
     7  C   -0.347680
     8  H    0.181549
     9  H    0.158847
    10  O   -0.593199
    11  C    0.157687
    12  C   -0.190017
    13  H    0.129880
    14  C   -0.192396
    15  H    0.135380
    16  C   -0.132088
    17  H    0.131107
    18  C   -0.126097
    19  H    0.143276
    20  C   -0.130285
    21  H    0.139012
    22  N   -0.610815
    23  H    0.367132
    24  C   -0.058026
    25  H    0.184018
    26  C    0.589560
    27  C   -0.070427
    28  H    0.193755
    29  H    0.162921
    30  O   -0.493533
    31  O   -0.689031
    32  H    0.446586
    33  N   -0.576859
    34  H    0.328081
    35  C   -0.121697
    36  H    0.215194
    37  C    0.620452
    38  C   -0.033825
    39  H    0.132448
    40  H    0.183578
    41  O   -0.551147
    42  O   -0.641219
    43  H    0.433235
    44  N   -0.582608
    45  H    0.358906
    46  C   -0.056923
    47  H    0.202920
    48  C    0.649397
    49  C   -0.394485
    50  H    0.200997
    51  H    0.208475
    52  O   -0.561488
    53  C    0.595189
    54  O   -0.445495
    55  O   -0.554762
    56  N   -0.589976
    57  H    0.358042
    58  C   -0.057231
    59  H    0.214183
    60  C    0.585671
    61  C   -0.268138
    62  H    0.158660
    63  H    0.155232
    64  O   -0.451092
    65  C   -0.328814
    66  H    0.216195
    67  H    0.158016
    68  C   -0.149380
    69  H    0.188525
    70  H    0.201880
    71  N   -0.607965
    72  H    0.357682
    73  N   -0.789740
    74  H    0.365742
    75  H    0.453325
    76  N   -0.766547
    77  H    0.377145
    78  H    0.379854
    79  C    0.809445
    80  O   -0.560138
    81  H    0.429942
    82  H    0.424951
 Sum of Mulliken charges =   1.00000

 Dipole moment (field-independent basis, Debye):
    X=             16.1706    Y=             -7.5623    Z=             10.8901  Tot=             20.9110
 Quadrupole moment (field-independent basis, Debye-Ang):
   XX=           -157.9450   YY=           -171.4212   ZZ=           -197.4615
   XY=            -24.8300   XZ=             58.4134   YZ=            -35.3523

 Normal termination of Gaussian 16 at Thu May 26 20:31:11 2022.
