 Gaussian 16, Revision C.01,
 Gaussian 16:  ES64L-G16RevC.01  3-Jul-2019

 -------------------------------------------------------------------
 # B3LYP/6-31G* guess=read geom=check nosymm integral(ultrafinegrid)
 -------------------------------------------------------------------

 ------------------------------------------------------
 Candidate Structure: Conf:549 Charge calc in gas phase
 ------------------------------------------------------
 Structure from the checkpoint file:  "conf-549.chk"
 Charge =  1 Multiplicity = 1

                          Input orientation:
 ---------------------------------------------------------------------
 Center     Atomic      Atomic             Coordinates (Angstroms)
 Number     Number       Type             X           Y           Z
 ---------------------------------------------------------------------
      1          7           0       -3.817156    0.647802   -6.011241
      2          1           0       -4.397480    1.324859   -6.504940
      3          1           0       -3.087508    1.175398   -5.535411
      4          6           0       -4.648938   -0.066869   -5.030250
      5          1           0       -5.094890    0.605777   -4.271510
      6          6           0       -3.743559   -1.072772   -4.295492
      7          6           0       -5.792077   -0.808399   -5.746862
      8          1           0       -5.338251   -1.514078   -6.447935
      9          1           0       -6.332642   -1.402881   -5.001756
     10          8           0       -3.707815   -2.269527   -4.553084
     11          6           0       -6.745968    0.127158   -6.458576
     12          6           0       -7.807401    0.731932   -5.768742
     13          1           0       -7.960128    0.499687   -4.716517
     14          6           0       -6.579924    0.431258   -7.817934
     15          1           0       -5.767615   -0.035866   -8.369548
     16          6           0       -8.674537    1.614226   -6.413326
     17          1           0       -9.494660    2.066080   -5.861075
     18          6           0       -7.445156    1.314897   -8.467024
     19          1           0       -7.301608    1.532197   -9.522394
     20          6           0       -8.495312    1.909771   -7.766578
     21          1           0       -9.172953    2.592904   -8.271675
     22          7           0       -2.943362   -0.508164   -3.339680
     23          1           0       -3.092964    0.441407   -3.016138
     24          6           0       -2.063157   -1.304019   -2.511413
     25          1           0       -2.537121   -2.269425   -2.299086
     26          6           0       -1.810291   -0.539058   -1.216420
     27          6           0       -0.716659   -1.599277   -3.241354
     28          1           0       -0.271075   -0.645309   -3.554709
     29          1           0       -0.962056   -2.177668   -4.135459
     30          8           0       -2.079068    0.653941   -1.088960
     31          8           0        0.180100   -2.365801   -2.454922
     32          1           0        0.714065   -1.741135   -1.924938
     33          7           0       -1.234751   -1.284558   -0.222402
     34          1           0       -0.823769   -2.167768   -0.515797
     35          6           0       -0.562493   -0.614247    0.866216
     36          1           0       -1.173531    0.247614    1.154020
     37          6           0        0.817319   -0.085511    0.398585
     38          6           0       -0.436230   -1.561183    2.061295
     39          1           0       -1.445594   -1.884477    2.348327
     40          1           0        0.010904   -1.032953    2.918523
     41          8           0        1.313634   -0.379398   -0.690369
     42          8           0        0.372425   -2.654238    1.649047
     43          1           0        0.218255   -3.400416    2.246849
     44          7           0        1.446711    0.750736    1.258483
     45          1           0        1.062167    0.992785    2.165268
     46          6           0        2.764380    1.286348    0.979566
     47          1           0        3.394804    0.487041    0.575120
     48          6           0        3.334509    1.773217    2.323137
     49          6           0        2.685506    2.421966   -0.076141
     50          1           0        1.947944    2.132543   -0.829589
     51          1           0        2.333149    3.358004    0.374335
     52          8           0        2.621385    1.902525    3.314720
     53          6           0        3.983789    2.702448   -0.798148
     54          8           0        5.094157    2.315505   -0.466333
     55          8           0        3.785779    3.444677   -1.895246
     56          7           0        4.673298    2.036294    2.320062
     57          1           0        5.109366    2.093983    1.395963
     58          6           0        5.253368    2.804346    3.399022
     59          1           0        4.653042    2.596382    4.291739
     60          6           0        5.101838    4.305226    3.102163
     61          6           0        6.719256    2.370032    3.642108
     62          1           0        7.365438    2.785433    2.857055
     63          1           0        6.738748    1.280892    3.515233
     64          8           0        4.627131    4.768394    2.094237
     65          6           0        7.275404    2.735042    5.026590
     66          1           0        6.610396    2.333197    5.805032
     67          1           0        7.283276    3.820583    5.160400
     68          6           0        8.695093    2.182876    5.211831
     69          1           0        8.726739    1.092482    5.113074
     70          1           0        9.365775    2.581485    4.445044
     71          7           0        9.301147    2.534768    6.511790
     72          1           0        9.742654    3.443433    6.581243
     73          7           0        8.413780    0.757986    7.726136
     74          1           0        8.520812    0.077130    8.465163
     75          1           0        7.661478    0.615377    7.068020
     76          7           0       10.002382    2.138079    8.685014
     77          1           0       10.796774    2.754947    8.586855
     78          1           0        9.809276    1.776556    9.608730
     79          6           0        9.231795    1.815379    7.632781
     80          8           0        5.558945    5.073025    4.123621
     81          1           0        5.395298    6.001368    3.865457
     82          1           0        4.658526    3.595067   -2.306919
 ---------------------------------------------------------------------

 SCF Done:  E(RB3LYP) =  -2166.26590583     A.U. after    1 cycles

 Alpha  occ. eigenvalues --  -19.30146 -19.27770 -19.24259 -19.22908 -19.21636
 Alpha  occ. eigenvalues --  -19.21092 -19.19127 -19.17067 -19.16734 -19.13597
 Alpha  occ. eigenvalues --  -14.56101 -14.56024 -14.55836 -14.44420 -14.43258
 Alpha  occ. eigenvalues --  -14.40264 -14.38434 -14.34069 -10.52409 -10.42169
 Alpha  occ. eigenvalues --  -10.40967 -10.39147 -10.37909 -10.35904 -10.34526
 Alpha  occ. eigenvalues --  -10.33300 -10.33133 -10.32043 -10.31947 -10.30783
 Alpha  occ. eigenvalues --  -10.30677 -10.29589 -10.28229 -10.26269 -10.26243
 Alpha  occ. eigenvalues --  -10.24728 -10.21547 -10.21031 -10.20964 -10.20859
 Alpha  occ. eigenvalues --  -10.20826 -10.20653 -10.20339  -1.20819  -1.20727
 Alpha  occ. eigenvalues --   -1.19112  -1.13128  -1.11836  -1.10960  -1.10003
 Alpha  occ. eigenvalues --   -1.09929  -1.08974  -1.08851  -1.08407  -1.05499
 Alpha  occ. eigenvalues --   -1.04417  -1.02075  -0.99934  -0.97409  -0.94899
 Alpha  occ. eigenvalues --   -0.94298  -0.91236  -0.88942  -0.87172  -0.86761
 Alpha  occ. eigenvalues --   -0.83778  -0.82907  -0.80805  -0.79487  -0.78576
 Alpha  occ. eigenvalues --   -0.78230  -0.77389  -0.76232  -0.75465  -0.74206
 Alpha  occ. eigenvalues --   -0.73558  -0.71578  -0.70460  -0.69586  -0.69094
 Alpha  occ. eigenvalues --   -0.68863  -0.68246  -0.67506  -0.65565  -0.65303
 Alpha  occ. eigenvalues --   -0.64069  -0.63166  -0.62754  -0.62334  -0.61787
 Alpha  occ. eigenvalues --   -0.61519  -0.60751  -0.59793  -0.59449  -0.59179
 Alpha  occ. eigenvalues --   -0.58655  -0.57718  -0.57539  -0.56615  -0.56197
 Alpha  occ. eigenvalues --   -0.55859  -0.55095  -0.54827  -0.53882  -0.53603
 Alpha  occ. eigenvalues --   -0.53237  -0.52976  -0.52749  -0.52237  -0.51906
 Alpha  occ. eigenvalues --   -0.51581  -0.50971  -0.50687  -0.50210  -0.49943
 Alpha  occ. eigenvalues --   -0.49425  -0.48701  -0.48420  -0.48122  -0.47763
 Alpha  occ. eigenvalues --   -0.47336  -0.47240  -0.47171  -0.46720  -0.46658
 Alpha  occ. eigenvalues --   -0.46346  -0.46097  -0.45869  -0.45418  -0.44955
 Alpha  occ. eigenvalues --   -0.44194  -0.43801  -0.43537  -0.42842  -0.42676
 Alpha  occ. eigenvalues --   -0.42114  -0.41582  -0.40753  -0.40555  -0.40300
 Alpha  occ. eigenvalues --   -0.40280  -0.39005  -0.38290  -0.37830  -0.37015
 Alpha  occ. eigenvalues --   -0.36711  -0.36128  -0.35743  -0.35586  -0.35396
 Alpha  occ. eigenvalues --   -0.34761  -0.34288  -0.33035  -0.32764  -0.31971
 Alpha  occ. eigenvalues --   -0.30935  -0.29709  -0.28448  -0.27180  -0.26956
 Alpha  occ. eigenvalues --   -0.26037  -0.25602
 Alpha virt. eigenvalues --   -0.16277  -0.12071  -0.09666  -0.08372  -0.07584
 Alpha virt. eigenvalues --   -0.07497  -0.06959  -0.06505  -0.04734  -0.03234
 Alpha virt. eigenvalues --   -0.02720  -0.02338  -0.02214  -0.02040  -0.01105

 Mulliken charges:
               1
     1  N   -0.719678
     2  H    0.311766
     3  H    0.294092
     4  C   -0.070911
     5  H    0.114980
     6  C    0.641725
     7  C   -0.335198
     8  H    0.178748
     9  H    0.150620
    10  O   -0.521283
    11  C    0.143590
    12  C   -0.179951
    13  H    0.121351
    14  C   -0.190438
    15  H    0.141906
    16  C   -0.128623
    17  H    0.128930
    18  C   -0.129035
    19  H    0.131411
    20  C   -0.131323
    21  H    0.129885
    22  N   -0.636128
    23  H    0.343248
    24  C   -0.050985
    25  H    0.186075
    26  C    0.590421
    27  C   -0.044658
    28  H    0.133355
    29  H    0.187026
    30  O   -0.540335
    31  O   -0.651239
    32  H    0.433883
    33  N   -0.595982
    34  H    0.357075
    35  C   -0.090413
    36  H    0.196274
    37  C    0.664064
    38  C   -0.045454
    39  H    0.159633
    40  H    0.129079
    41  O   -0.548952
    42  O   -0.614535
    43  H    0.408708
    44  N   -0.627431
    45  H    0.358142
    46  C   -0.037994
    47  H    0.202018
    48  C    0.599484
    49  C   -0.375464
    50  H    0.234313
    51  H    0.211897
    52  O   -0.527852
    53  C    0.620715
    54  O   -0.497555
    55  O   -0.542432
    56  N   -0.624154
    57  H    0.385321
    58  C   -0.058434
    59  H    0.206173
    60  C    0.598243
    61  C   -0.288990
    62  H    0.168858
    63  H    0.172892
    64  O   -0.441776
    65  C   -0.281209
    66  H    0.142712
    67  H    0.192933
    68  C   -0.184132
    69  H    0.187632
    70  H    0.206189
    71  N   -0.588903
    72  H    0.372746
    73  N   -0.752172
    74  H    0.392077
    75  H    0.396773
    76  N   -0.757656
    77  H    0.390858
    78  H    0.391415
    79  C    0.828852
    80  O   -0.576598
    81  H    0.426120
    82  H    0.423663
 Sum of Mulliken charges =   1.00000

 Dipole moment (field-independent basis, Debye):
    X=             45.4182    Y=             14.0575    Z=             39.5573  Tot=             61.8483
 Quadrupole moment (field-independent basis, Debye-Ang):
   XX=            166.2398   YY=           -209.1167   ZZ=             20.7104
   XY=             94.0535   XZ=            315.5350   YZ=             34.0136

 Normal termination of Gaussian 16 at Thu May 26 20:50:35 2022.
