 Gaussian 16, Revision C.01,
 Gaussian 16:  ES64L-G16RevC.01  3-Jul-2019

 -------------------------------------------------------------------
 # B3LYP/6-31G* guess=read geom=check nosymm integral(ultrafinegrid)
 -------------------------------------------------------------------

 ------------------------------------------------------
 Candidate Structure: Conf:641 Charge calc in gas phase
 ------------------------------------------------------
 Structure from the checkpoint file:  "conf-641.chk"
 Charge =  1 Multiplicity = 1

                          Input orientation:
 ---------------------------------------------------------------------
 Center     Atomic      Atomic             Coordinates (Angstroms)
 Number     Number       Type             X           Y           Z
 ---------------------------------------------------------------------
      1          7           0       -2.447961   -4.430523   -3.246531
      2          1           0       -2.571515   -4.386839   -4.258028
      3          1           0       -1.456297   -4.230556   -3.104520
      4          6           0       -3.205620   -3.345004   -2.630771
      5          1           0       -4.234752   -3.392016   -3.007139
      6          6           0       -2.606898   -1.963056   -2.975436
      7          6           0       -3.247740   -3.563207   -1.089834
      8          1           0       -3.423836   -4.635688   -0.954901
      9          1           0       -2.255486   -3.344151   -0.676081
     10          8           0       -1.436384   -1.853907   -3.340037
     11          6           0       -4.308700   -2.762799   -0.363662
     12          6           0       -3.979613   -1.622028    0.382883
     13          1           0       -2.936763   -1.320285    0.450233
     14          6           0       -5.658572   -3.140950   -0.442133
     15          1           0       -5.932108   -4.030422   -1.006143
     16          6           0       -4.971423   -0.876174    1.025452
     17          1           0       -4.699823    0.011307    1.591583
     18          6           0       -6.650337   -2.400166    0.201359
     19          1           0       -7.688736   -2.712825    0.131414
     20          6           0       -6.309513   -1.262376    0.936626
     21          1           0       -7.081020   -0.682634    1.435651
     22          7           0       -3.439736   -0.882599   -2.871120
     23          1           0       -4.273484   -0.988300   -2.302030
     24          6           0       -2.973534    0.485822   -3.129789
     25          1           0       -2.255902    0.404367   -3.952178
     26          6           0       -2.258364    1.118089   -1.917527
     27          6           0       -4.156491    1.342460   -3.592199
     28          1           0       -3.823343    2.370724   -3.744306
     29          1           0       -4.926732    1.367427   -2.804866
     30          8           0       -2.717038    2.092051   -1.321273
     31          8           0       -4.674356    0.889085   -4.830208
     32          1           0       -4.859697   -0.058978   -4.733555
     33          7           0       -1.080091    0.533181   -1.577286
     34          1           0       -0.708419   -0.246446   -2.119358
     35          6           0       -0.248436    1.095920   -0.535714
     36          1           0       -0.242361    2.189484   -0.644879
     37          6           0        1.180727    0.566266   -0.736101
     38          6           0       -0.778885    0.811178    0.878501
     39          1           0       -1.820516    1.149839    0.911695
     40          1           0       -0.206862    1.404162    1.611622
     41          8           0        1.454591   -0.285768   -1.573175
     42          8           0       -0.655283   -0.581940    1.143037
     43          1           0       -1.180426   -0.786315    1.931343
     44          7           0        2.136165    1.135915    0.054215
     45          1           0        1.894509    1.714066    0.851138
     46          6           0        3.487497    0.613603    0.056532
     47          1           0        3.438501   -0.482759   -0.003404
     48          6           0        4.122334    0.994880    1.403789
     49          6           0        4.279439    1.088548   -1.180306
     50          1           0        5.228069    0.542486   -1.282271
     51          1           0        3.697875    0.842942   -2.071634
     52          8           0        3.480430    1.545558    2.292011
     53          6           0        4.601547    2.568643   -1.145260
     54          8           0        4.743741    3.226858   -0.135066
     55          8           0        4.751493    3.075661   -2.383066
     56          7           0        5.427355    0.614221    1.579867
     57          1           0        5.944570    0.316752    0.763502
     58          6           0        6.213577    1.234393    2.637496
     59          1           0        5.699375    2.164720    2.912931
     60          6           0        7.608643    1.649328    2.168677
     61          6           0        6.353956    0.365317    3.905640
     62          1           0        7.055975    0.884757    4.567537
     63          1           0        6.821415   -0.591392    3.636396
     64          8           0        8.457535    2.072992    2.919003
     65          6           0        5.019204    0.104853    4.614481
     66          1           0        4.372524   -0.517082    3.988476
     67          1           0        4.464323    1.040657    4.757696
     68          6           0        5.181219   -0.609147    5.959070
     69          1           0        4.197893   -0.881621    6.362422
     70          1           0        5.777579   -1.521218    5.840614
     71          7           0        5.879537    0.264810    6.926000
     72          1           0        5.822164    1.262320    6.757665
     73          7           0        6.376086   -1.390844    8.475212
     74          1           0        6.998536   -1.766373    9.176829
     75          1           0        5.660165   -2.003505    8.112360
     76          7           0        7.275107    0.728634    8.719503
     77          1           0        7.578844    1.601675    8.311150
     78          1           0        7.564533    0.536143    9.668120
     79          6           0        6.501983   -0.131175    8.034527
     80          8           0        7.797285    1.493189    0.841392
     81          1           0        8.703046    1.800031    0.642072
     82          1           0        4.980207    4.019594   -2.280163
 ---------------------------------------------------------------------

 SCF Done:  E(RB3LYP) =  -2166.25835255     A.U. after    1 cycles

 Alpha  occ. eigenvalues --  -19.30423 -19.27089 -19.24226 -19.21656 -19.21533
 Alpha  occ. eigenvalues --  -19.21522 -19.18325 -19.17870 -19.16875 -19.15929
 Alpha  occ. eigenvalues --  -14.55292 -14.55070 -14.54992 -14.45718 -14.42734
 Alpha  occ. eigenvalues --  -14.41374 -14.39813 -14.35397 -10.51510 -10.42683
 Alpha  occ. eigenvalues --  -10.39904 -10.38596 -10.38243 -10.35465 -10.34570
 Alpha  occ. eigenvalues --  -10.33365 -10.32986 -10.32310 -10.31782 -10.30824
 Alpha  occ. eigenvalues --  -10.29912 -10.29259 -10.28390 -10.27437 -10.27089
 Alpha  occ. eigenvalues --  -10.26953 -10.24478 -10.23839 -10.23727 -10.23610
 Alpha  occ. eigenvalues --  -10.23605 -10.23597 -10.23512  -1.21153  -1.19897
 Alpha  occ. eigenvalues --   -1.18121  -1.13581  -1.12090  -1.10530  -1.09103
 Alpha  occ. eigenvalues --   -1.09054  -1.08760  -1.08554  -1.08073  -1.07520
 Alpha  occ. eigenvalues --   -1.05397  -1.02643  -0.99638  -0.97287  -0.96411
 Alpha  occ. eigenvalues --   -0.93375  -0.93050  -0.90101  -0.88697  -0.86390
 Alpha  occ. eigenvalues --   -0.82962  -0.82837  -0.82187  -0.80803  -0.79677
 Alpha  occ. eigenvalues --   -0.79054  -0.77505  -0.77100  -0.75567  -0.75090
 Alpha  occ. eigenvalues --   -0.72682  -0.71570  -0.70611  -0.69638  -0.69021
 Alpha  occ. eigenvalues --   -0.68732  -0.68465  -0.68101  -0.66333  -0.65193
 Alpha  occ. eigenvalues --   -0.64909  -0.64110  -0.63584  -0.63235  -0.62479
 Alpha  occ. eigenvalues --   -0.62241  -0.61823  -0.60329  -0.58851  -0.58418
 Alpha  occ. eigenvalues --   -0.58193  -0.58000  -0.57531  -0.57135  -0.56183
 Alpha  occ. eigenvalues --   -0.56135  -0.55778  -0.54991  -0.54785  -0.54082
 Alpha  occ. eigenvalues --   -0.53537  -0.53287  -0.53170  -0.52620  -0.52141
 Alpha  occ. eigenvalues --   -0.51741  -0.51367  -0.50893  -0.50363  -0.50188
 Alpha  occ. eigenvalues --   -0.49747  -0.49471  -0.49183  -0.48630  -0.48179
 Alpha  occ. eigenvalues --   -0.48113  -0.47455  -0.47037  -0.46794  -0.46562
 Alpha  occ. eigenvalues --   -0.46464  -0.46237  -0.46094  -0.45826  -0.45377
 Alpha  occ. eigenvalues --   -0.45297  -0.44959  -0.44147  -0.43889  -0.43608
 Alpha  occ. eigenvalues --   -0.43503  -0.42591  -0.42083  -0.41939  -0.41089
 Alpha  occ. eigenvalues --   -0.40593  -0.40164  -0.39393  -0.39131  -0.38592
 Alpha  occ. eigenvalues --   -0.38467  -0.38273  -0.36955  -0.35720  -0.35465
 Alpha  occ. eigenvalues --   -0.35020  -0.33997  -0.32988  -0.32807  -0.32005
 Alpha  occ. eigenvalues --   -0.31073  -0.30605  -0.29841  -0.29751  -0.29318
 Alpha  occ. eigenvalues --   -0.28228  -0.27981
 Alpha virt. eigenvalues --   -0.15315  -0.11062  -0.09462  -0.07572  -0.07419
 Alpha virt. eigenvalues --   -0.06583  -0.06372  -0.05673  -0.05257  -0.04950
 Alpha virt. eigenvalues --   -0.04398  -0.03462  -0.02999  -0.02596  -0.01943

 Mulliken charges:
               1
     1  N   -0.693862
     2  H    0.305217
     3  H    0.314375
     4  C   -0.084737
     5  H    0.148176
     6  C    0.593151
     7  C   -0.345863
     8  H    0.177723
     9  H    0.158284
    10  O   -0.527695
    11  C    0.133177
    12  C   -0.218469
    13  H    0.146469
    14  C   -0.187198
    15  H    0.137604
    16  C   -0.133724
    17  H    0.130023
    18  C   -0.128854
    19  H    0.141195
    20  C   -0.131232
    21  H    0.139110
    22  N   -0.620349
    23  H    0.345593
    24  C   -0.095424
    25  H    0.196339
    26  C    0.622769
    27  C   -0.031082
    28  H    0.172777
    29  H    0.136141
    30  O   -0.539942
    31  O   -0.614139
    32  H    0.391375
    33  N   -0.630248
    34  H    0.394064
    35  C   -0.050985
    36  H    0.184289
    37  C    0.627142
    38  C   -0.054554
    39  H    0.178681
    40  H    0.121452
    41  O   -0.515631
    42  O   -0.606168
    43  H    0.402990
    44  N   -0.625913
    45  H    0.360092
    46  C   -0.045206
    47  H    0.198261
    48  C    0.638313
    49  C   -0.385558
    50  H    0.175529
    51  H    0.235449
    52  O   -0.537072
    53  C    0.600445
    54  O   -0.469331
    55  O   -0.551850
    56  N   -0.620625
    57  H    0.354667
    58  C   -0.051731
    59  H    0.218333
    60  C    0.601536
    61  C   -0.265944
    62  H    0.155406
    63  H    0.156185
    64  O   -0.457453
    65  C   -0.314178
    66  H    0.197679
    67  H    0.183418
    68  C   -0.159160
    69  H    0.193873
    70  H    0.184010
    71  N   -0.596474
    72  H    0.371284
    73  N   -0.753346
    74  H    0.390380
    75  H    0.396958
    76  N   -0.760521
    77  H    0.391686
    78  H    0.389421
    79  C    0.835132
    80  O   -0.574133
    81  H    0.432643
    82  H    0.419829
 Sum of Mulliken charges =   1.00000

 Dipole moment (field-independent basis, Debye):
    X=             30.8634    Y=             -1.6485    Z=             35.1980  Tot=             46.8419
 Quadrupole moment (field-independent basis, Debye-Ang):
   XX=            -10.4284   YY=           -242.0945   ZZ=             32.3515
   XY=             13.5981   XZ=            210.3343   YZ=            -13.7015

 Normal termination of Gaussian 16 at Thu May 26 20:50:27 2022.
