 Gaussian 16, Revision C.01,
 Gaussian 16:  ES64L-G16RevC.01  3-Jul-2019

 -------------------------------------------------------------------
 # B3LYP/6-31G* guess=read geom=check nosymm integral(ultrafinegrid)
 -------------------------------------------------------------------

 ------------------------------------------------------
 Candidate Structure: Conf:234 Charge calc in gas phase
 ------------------------------------------------------
 Structure from the checkpoint file:  "conf-234.chk"
 Charge =  1 Multiplicity = 1

                          Input orientation:
 ---------------------------------------------------------------------
 Center     Atomic      Atomic             Coordinates (Angstroms)
 Number     Number       Type             X           Y           Z
 ---------------------------------------------------------------------
      1          7           0       -2.279587   -3.159775   -3.613735
      2          1           0       -2.735878   -2.663331   -4.378178
      3          1           0       -1.288533   -3.205147   -3.853310
      4          6           0       -2.432520   -2.406683   -2.357824
      5          1           0       -3.508209   -2.277372   -2.186540
      6          6           0       -1.739955   -1.039896   -2.488703
      7          6           0       -1.817652   -3.239863   -1.223503
      8          1           0       -2.052114   -4.286933   -1.442814
      9          1           0       -0.726166   -3.136511   -1.301798
     10          8           0       -0.515001   -0.926858   -2.429755
     11          6           0       -2.257640   -2.925654    0.193759
     12          6           0       -2.104592   -3.920076    1.179615
     13          1           0       -1.705997   -4.891394    0.892137
     14          6           0       -2.815805   -1.700017    0.582241
     15          1           0       -2.932873   -0.891165   -0.132113
     16          6           0       -2.498459   -3.702763    2.502334
     17          1           0       -2.394102   -4.498090    3.236049
     18          6           0       -3.231081   -1.484244    1.902930
     19          1           0       -3.683894   -0.532732    2.169275
     20          6           0       -3.071827   -2.479292    2.870322
     21          1           0       -3.406678   -2.314336    3.890427
     22          7           0       -2.539906    0.020159   -2.806198
     23          1           0       -3.531003    0.001653   -2.595257
     24          6           0       -1.955562    1.337088   -2.970788
     25          1           0       -1.208392    1.285085   -3.770570
     26          6           0       -1.245949    1.785773   -1.676556
     27          6           0       -3.048874    2.318897   -3.414060
     28          1           0       -3.323288    2.080702   -4.452457
     29          1           0       -2.645544    3.341533   -3.393116
     30          8           0       -1.774742    1.616941   -0.570194
     31          8           0       -4.155268    2.163172   -2.539188
     32          1           0       -4.880889    2.721609   -2.857014
     33          7           0       -0.048739    2.376814   -1.876837
     34          1           0        0.407385    2.260698   -2.780901
     35          6           0        0.904423    2.763866   -0.843950
     36          1           0        0.599783    3.700838   -0.358975
     37          6           0        2.252908    2.957637   -1.582222
     38          6           0        1.090839    1.691401    0.262150
     39          1           0        2.048833    1.855002    0.763185
     40          1           0        1.112602    0.705437   -0.226092
     41          8           0        2.397768    2.565037   -2.734942
     42          8           0        0.097379    1.759012    1.278189
     43          1           0       -0.765607    1.764812    0.781702
     44          7           0        3.245865    3.527492   -0.847772
     45          1           0        3.080814    3.720747    0.136146
     46          6           0        4.652498    3.253518   -1.140410
     47          1           0        4.682860    2.591505   -2.007705
     48          6           0        5.191630    2.533442    0.119260
     49          6           0        5.435124    4.535906   -1.470547
     50          1           0        4.850088    5.144892   -2.169034
     51          1           0        5.594658    5.154266   -0.579110
     52          8           0        4.733611    2.831181    1.226916
     53          6           0        6.770180    4.225479   -2.115834
     54          8           0        7.189062    3.107588   -2.345255
     55          8           0        7.445261    5.343327   -2.428587
     56          7           0        6.094272    1.545895   -0.078055
     57          1           0        6.594738    1.513288   -0.966333
     58          6           0        6.679209    0.815661    1.040658
     59          1           0        6.715850    1.480615    1.910964
     60          6           0        8.105835    0.436060    0.656162
     61          6           0        5.879550   -0.458603    1.433389
     62          1           0        6.408974   -0.937737    2.264920
     63          1           0        5.891175   -1.160675    0.589425
     64          8           0        8.570302    0.548152   -0.454537
     65          6           0        4.435806   -0.133148    1.829872
     66          1           0        3.908513    0.280359    0.965227
     67          1           0        4.442668    0.651011    2.596451
     68          6           0        3.624533   -1.326615    2.346644
     69          1           0        3.523274   -2.097938    1.575169
     70          1           0        4.105001   -1.779596    3.223699
     71          7           0        2.280256   -0.840900    2.697330
     72          1           0        2.209207    0.134115    2.962410
     73          7           0        1.077099   -2.815787    2.403122
     74          1           0        0.196479   -3.271737    2.184671
     75          1           0        1.834334   -3.388479    2.746089
     76          7           0       -0.014668   -0.765433    2.512398
     77          1           0        0.003531    0.214964    2.174241
     78          1           0       -0.914967   -1.235751    2.514705
     79          6           0        1.109380   -1.478329    2.537737
     80          8           0        8.778066   -0.066888    1.709511
     81          1           0        9.671519   -0.303648    1.393480
     82          1           0        8.282454    5.067186   -2.849609
 ---------------------------------------------------------------------

 SCF Done:  E(RB3LYP) =  -2166.30623787     A.U. after    2 cycles

 Alpha  occ. eigenvalues --  -19.28953 -19.28034 -19.24448 -19.24093 -19.23408
 Alpha  occ. eigenvalues --  -19.22884 -19.22275 -19.22110 -19.21707 -19.20101
 Alpha  occ. eigenvalues --  -14.50251 -14.50138 -14.47627 -14.45786 -14.45528
 Alpha  occ. eigenvalues --  -14.45518 -14.44663 -14.39875 -10.45938 -10.41486
 Alpha  occ. eigenvalues --  -10.41094 -10.39299 -10.38774 -10.38680 -10.36710
 Alpha  occ. eigenvalues --  -10.35185 -10.33914 -10.33834 -10.33778 -10.33360
 Alpha  occ. eigenvalues --  -10.33265 -10.32791 -10.30740 -10.29971 -10.29810
 Alpha  occ. eigenvalues --  -10.29524 -10.29517 -10.28959 -10.28629 -10.28591
 Alpha  occ. eigenvalues --  -10.28550 -10.28182 -10.27147  -1.19964  -1.19222
 Alpha  occ. eigenvalues --   -1.14693  -1.14476  -1.13894  -1.13343  -1.12038
 Alpha  occ. eigenvalues --   -1.11351  -1.11130  -1.11096  -1.10260  -1.04225
 Alpha  occ. eigenvalues --   -1.02666  -1.02241  -1.02104  -1.01958  -1.00876
 Alpha  occ. eigenvalues --   -0.97135  -0.94967  -0.91200  -0.89136  -0.86998
 Alpha  occ. eigenvalues --   -0.86718  -0.85977  -0.84198  -0.83935  -0.80143
 Alpha  occ. eigenvalues --   -0.80089  -0.78265  -0.76382  -0.76276  -0.74406
 Alpha  occ. eigenvalues --   -0.72527  -0.72127  -0.71062  -0.70307  -0.69764
 Alpha  occ. eigenvalues --   -0.69211  -0.68286  -0.68243  -0.67887  -0.67311
 Alpha  occ. eigenvalues --   -0.66881  -0.66077  -0.64573  -0.63742  -0.62673
 Alpha  occ. eigenvalues --   -0.62064  -0.61233  -0.60938  -0.60612  -0.60383
 Alpha  occ. eigenvalues --   -0.59807  -0.59405  -0.59072  -0.58336  -0.58012
 Alpha  occ. eigenvalues --   -0.57551  -0.57004  -0.56810  -0.56594  -0.56467
 Alpha  occ. eigenvalues --   -0.55452  -0.54807  -0.54629  -0.54496  -0.54330
 Alpha  occ. eigenvalues --   -0.54181  -0.54072  -0.53257  -0.52938  -0.52435
 Alpha  occ. eigenvalues --   -0.52291  -0.52082  -0.51425  -0.51030  -0.50909
 Alpha  occ. eigenvalues --   -0.50658  -0.50199  -0.49955  -0.49458  -0.49137
 Alpha  occ. eigenvalues --   -0.48818  -0.48613  -0.48057  -0.47638  -0.47094
 Alpha  occ. eigenvalues --   -0.46954  -0.46458  -0.46331  -0.46017  -0.45664
 Alpha  occ. eigenvalues --   -0.45259  -0.45101  -0.44481  -0.44122  -0.43918
 Alpha  occ. eigenvalues --   -0.43245  -0.42871  -0.42102  -0.41070  -0.41008
 Alpha  occ. eigenvalues --   -0.40428  -0.38999  -0.38079  -0.37456  -0.37288
 Alpha  occ. eigenvalues --   -0.36928  -0.36657  -0.36449  -0.35869  -0.35434
 Alpha  occ. eigenvalues --   -0.35400  -0.35177  -0.35011  -0.34601  -0.33987
 Alpha  occ. eigenvalues --   -0.33805  -0.30988
 Alpha virt. eigenvalues --   -0.10553  -0.10312  -0.09763  -0.09142  -0.08452
 Alpha virt. eigenvalues --   -0.08083  -0.07677  -0.07190  -0.06420  -0.05002
 Alpha virt. eigenvalues --   -0.03160  -0.01963  -0.01478  -0.00887   0.00098

 Mulliken charges:
               1
     1  N   -0.698229
     2  H    0.310684
     3  H    0.314505
     4  C   -0.067818
     5  H    0.144385
     6  C    0.612698
     7  C   -0.356018
     8  H    0.182757
     9  H    0.174595
    10  O   -0.549287
    11  C    0.177728
    12  C   -0.224709
    13  H    0.148164
    14  C   -0.194208
    15  H    0.164460
    16  C   -0.149054
    17  H    0.155395
    18  C   -0.174412
    19  H    0.162692
    20  C   -0.150842
    21  H    0.158181
    22  N   -0.604797
    23  H    0.357691
    24  C   -0.056900
    25  H    0.178338
    26  C    0.666370
    27  C   -0.059479
    28  H    0.156408
    29  H    0.156827
    30  O   -0.566017
    31  O   -0.613240
    32  H    0.415547
    33  N   -0.626381
    34  H    0.375122
    35  C   -0.053599
    36  H    0.193977
    37  C    0.585850
    38  C   -0.063390
    39  H    0.156365
    40  H    0.166779
    41  O   -0.503809
    42  O   -0.668100
    43  H    0.447519
    44  N   -0.601693
    45  H    0.356195
    46  C   -0.064150
    47  H    0.210214
    48  C    0.602946
    49  C   -0.369193
    50  H    0.215536
    51  H    0.204305
    52  O   -0.546718
    53  C    0.598427
    54  O   -0.465536
    55  O   -0.552439
    56  N   -0.616791
    57  H    0.397337
    58  C   -0.040022
    59  H    0.205005
    60  C    0.579724
    61  C   -0.275828
    62  H    0.175887
    63  H    0.160639
    64  O   -0.442003
    65  C   -0.303736
    66  H    0.169852
    67  H    0.177720
    68  C   -0.137534
    69  H    0.178086
    70  H    0.178800
    71  N   -0.608746
    72  H    0.370799
    73  N   -0.766030
    74  H    0.382176
    75  H    0.373475
    76  N   -0.801863
    77  H    0.415580
    78  H    0.382326
    79  C    0.780800
    80  O   -0.562964
    81  H    0.429699
    82  H    0.426976
 Sum of Mulliken charges =   1.00000

 Dipole moment (field-independent basis, Debye):
    X=              7.3193    Y=             -0.5872    Z=              3.1786  Tot=              8.0013
 Quadrupole moment (field-independent basis, Debye-Ang):
   XX=           -139.4212   YY=           -197.6414   ZZ=           -207.3658
   XY=              4.2874   XZ=             31.3858   YZ=            -39.9723

 Normal termination of Gaussian 16 at Thu May 26 20:31:30 2022.
