 Gaussian 16, Revision C.01,
 Gaussian 16:  ES64L-G16RevC.01  3-Jul-2019

 -------------------------------------------------------------------
 # B3LYP/6-31G* guess=read geom=check nosymm integral(ultrafinegrid)
 -------------------------------------------------------------------

 -----------------------------------------------------
 Candidate Structure: Conf:90 Charge calc in gas phase
 -----------------------------------------------------
 Structure from the checkpoint file:  "conf-90.chk"
 Charge =  1 Multiplicity = 1

                          Input orientation:
 ---------------------------------------------------------------------
 Center     Atomic      Atomic             Coordinates (Angstroms)
 Number     Number       Type             X           Y           Z
 ---------------------------------------------------------------------
      1          7           0       -2.630559   -3.115297   -0.688492
      2          1           0       -3.595220   -3.342261   -0.446725
      3          1           0       -2.301056   -3.879482   -1.279365
      4          6           0       -2.641286   -1.858588   -1.466228
      5          1           0       -3.326168   -1.925194   -2.324609
      6          6           0       -1.229987   -1.592730   -2.026703
      7          6           0       -3.135050   -0.703291   -0.555970
      8          1           0       -4.050438   -1.059479   -0.063064
      9          1           0       -2.394788   -0.539674    0.235201
     10          8           0       -0.202629   -1.993524   -1.465137
     11          6           0       -3.421354    0.586087   -1.297466
     12          6           0       -2.610090    1.712883   -1.120893
     13          1           0       -1.776768    1.666543   -0.423339
     14          6           0       -4.504493    0.671446   -2.186823
     15          1           0       -5.165678   -0.183442   -2.319602
     16          6           0       -2.859611    2.895547   -1.820637
     17          1           0       -2.199136    3.747108   -1.689274
     18          6           0       -4.759996    1.851622   -2.886334
     19          1           0       -5.606828    1.903911   -3.564985
     20          6           0       -3.935029    2.964413   -2.706911
     21          1           0       -4.131206    3.881531   -3.254519
     22          7           0       -1.192016   -0.925584   -3.208017
     23          1           0       -2.021989   -0.411462   -3.489630
     24          6           0        0.070679   -0.549952   -3.855513
     25          1           0        0.821031   -1.249044   -3.483931
     26          6           0        0.425918    0.901790   -3.502062
     27          6           0       -0.048759   -0.722076   -5.380565
     28          1           0        0.894836   -0.417932   -5.843044
     29          1           0       -0.833544   -0.054824   -5.764554
     30          8           0       -0.289385    1.819066   -3.920738
     31          8           0       -0.254898   -2.072351   -5.743405
     32          1           0       -1.145438   -2.324553   -5.454915
     33          7           0        1.524373    1.046891   -2.737263
     34          1           0        1.990831    0.221990   -2.366358
     35          6           0        2.089323    2.288684   -2.213781
     36          1           0        2.525805    2.881804   -3.029704
     37          6           0        3.213735    1.831673   -1.261269
     38          6           0        1.052216    3.200768   -1.496589
     39          1           0        1.579882    3.882123   -0.823538
     40          1           0        0.416152    2.553628   -0.870419
     41          8           0        3.423521    0.631801   -1.052678
     42          8           0        0.318026    4.003258   -2.383033
     43          1           0       -0.069710    3.400422   -3.054065
     44          7           0        3.919473    2.803147   -0.650891
     45          1           0        3.873735    3.771857   -0.957072
     46          6           0        4.925241    2.482881    0.350315
     47          1           0        5.779819    1.980324   -0.123920
     48          6           0        4.302492    1.566306    1.432478
     49          6           0        5.399334    3.765746    1.067901
     50          1           0        4.553488    4.162624    1.643330
     51          1           0        6.195075    3.516067    1.773161
     52          8           0        3.220468    1.832561    1.935822
     53          6           0        5.862048    4.864201    0.131008
     54          8           0        5.242292    5.243160   -0.846000
     55          8           0        7.026492    5.408547    0.515007
     56          7           0        5.073709    0.511295    1.820854
     57          1           0        5.944557    0.326389    1.342444
     58          6           0        4.640653   -0.393764    2.868763
     59          1           0        3.787734    0.108172    3.341827
     60          6           0        5.686754   -0.595703    3.966174
     61          6           0        4.170671   -1.768761    2.343306
     62          1           0        3.872442   -2.353477    3.221244
     63          1           0        5.026056   -2.294708    1.894635
     64          8           0        5.592446   -1.446864    4.821172
     65          6           0        3.038178   -1.665571    1.314840
     66          1           0        3.380175   -1.100015    0.443009
     67          1           0        2.194075   -1.099658    1.729130
     68          6           0        2.545786   -3.033231    0.824758
     69          1           0        1.943936   -2.929375   -0.080837
     70          1           0        3.389638   -3.679748    0.560543
     71          7           0        1.748954   -3.770421    1.822953
     72          1           0        2.258806   -4.188304    2.589911
     73          7           0       -0.349211   -3.054856    1.091005
     74          1           0       -1.335161   -3.273176    0.902525
     75          1           0        0.025313   -2.558709    0.278002
     76          7           0       -0.181948   -4.528044    2.863237
     77          1           0        0.369173   -5.044054    3.533268
     78          1           0       -1.139942   -4.339937    3.120577
     79          6           0        0.410879   -3.765860    1.913001
     80          8           0        6.717045    0.272488    3.889415
     81          1           0        7.305871    0.068178    4.641998
     82          1           0        7.228191    6.133188   -0.109508
 ---------------------------------------------------------------------

 SCF Done:  E(RB3LYP) =  -2166.30097024     A.U. after    3 cycles

 Alpha  occ. eigenvalues --  -19.28803 -19.28783 -19.23543 -19.23355 -19.22791
 Alpha  occ. eigenvalues --  -19.22565 -19.21848 -19.20894 -19.20512 -19.19558
 Alpha  occ. eigenvalues --  -14.50818 -14.50631 -14.47652 -14.47055 -14.45698
 Alpha  occ. eigenvalues --  -14.45207 -14.44928 -14.44701 -10.46465 -10.41692
 Alpha  occ. eigenvalues --  -10.41133 -10.40270 -10.38579 -10.38075 -10.37968
 Alpha  occ. eigenvalues --  -10.34438 -10.33994 -10.33945 -10.33368 -10.32267
 Alpha  occ. eigenvalues --  -10.32198 -10.31720 -10.30856 -10.30046 -10.29248
 Alpha  occ. eigenvalues --  -10.29125 -10.28412 -10.27780 -10.26717 -10.26398
 Alpha  occ. eigenvalues --  -10.26334 -10.25890 -10.25776  -1.19851  -1.19620
 Alpha  occ. eigenvalues --   -1.15063  -1.14746  -1.14054  -1.12677  -1.12289
 Alpha  occ. eigenvalues --   -1.10817  -1.10554  -1.10099  -1.07472  -1.04516
 Alpha  occ. eigenvalues --   -1.02975  -1.02320  -1.02177  -1.02168  -1.01245
 Alpha  occ. eigenvalues --   -1.00842  -0.93190  -0.90503  -0.89056  -0.87636
 Alpha  occ. eigenvalues --   -0.85894  -0.85612  -0.83337  -0.81724  -0.80284
 Alpha  occ. eigenvalues --   -0.80143  -0.78010  -0.76660  -0.75202  -0.74022
 Alpha  occ. eigenvalues --   -0.72340  -0.71811  -0.71642  -0.70682  -0.69469
 Alpha  occ. eigenvalues --   -0.69192  -0.68875  -0.68540  -0.67942  -0.67309
 Alpha  occ. eigenvalues --   -0.66275  -0.66005  -0.63907  -0.63531  -0.62425
 Alpha  occ. eigenvalues --   -0.61940  -0.60893  -0.60576  -0.59908  -0.59831
 Alpha  occ. eigenvalues --   -0.59445  -0.59046  -0.58611  -0.57986  -0.57793
 Alpha  occ. eigenvalues --   -0.57629  -0.57180  -0.56893  -0.56612  -0.56337
 Alpha  occ. eigenvalues --   -0.56000  -0.55392  -0.55147  -0.54466  -0.54268
 Alpha  occ. eigenvalues --   -0.53902  -0.52895  -0.52595  -0.52542  -0.52290
 Alpha  occ. eigenvalues --   -0.51975  -0.51291  -0.50741  -0.50654  -0.49986
 Alpha  occ. eigenvalues --   -0.49603  -0.49318  -0.49128  -0.48986  -0.48627
 Alpha  occ. eigenvalues --   -0.48506  -0.48116  -0.47824  -0.47753  -0.47416
 Alpha  occ. eigenvalues --   -0.47304  -0.46983  -0.46656  -0.46459  -0.45617
 Alpha  occ. eigenvalues --   -0.44364  -0.44245  -0.44055  -0.42929  -0.41625
 Alpha  occ. eigenvalues --   -0.41412  -0.41336  -0.41060  -0.40875  -0.40806
 Alpha  occ. eigenvalues --   -0.40620  -0.39208  -0.37969  -0.37583  -0.37484
 Alpha  occ. eigenvalues --   -0.37325  -0.36866  -0.36113  -0.35973  -0.35628
 Alpha  occ. eigenvalues --   -0.34678  -0.34263  -0.33818  -0.33301  -0.32582
 Alpha  occ. eigenvalues --   -0.32242  -0.31856
 Alpha virt. eigenvalues --   -0.10475  -0.09820  -0.08969  -0.08107  -0.08053
 Alpha virt. eigenvalues --   -0.07844  -0.07557  -0.07044  -0.06774  -0.06115
 Alpha virt. eigenvalues --   -0.03664  -0.03248  -0.01698  -0.01057  -0.00644

 Mulliken charges:
               1
     1  N   -0.757146
     2  H    0.326048
     3  H    0.327139
     4  C   -0.067700
     5  H    0.153200
     6  C    0.632783
     7  C   -0.352279
     8  H    0.162113
     9  H    0.163929
    10  O   -0.559134
    11  C    0.150148
    12  C   -0.194609
    13  H    0.133727
    14  C   -0.204230
    15  H    0.125717
    16  C   -0.128829
    17  H    0.172726
    18  C   -0.126105
    19  H    0.148136
    20  C   -0.127372
    21  H    0.153386
    22  N   -0.603446
    23  H    0.361043
    24  C   -0.086537
    25  H    0.185365
    26  C    0.653347
    27  C   -0.049273
    28  H    0.175355
    29  H    0.159884
    30  O   -0.556499
    31  O   -0.599630
    32  H    0.393228
    33  N   -0.635514
    34  H    0.366396
    35  C   -0.065715
    36  H    0.198136
    37  C    0.632878
    38  C   -0.022414
    39  H    0.159332
    40  H    0.132090
    41  O   -0.552504
    42  O   -0.638517
    43  H    0.437279
    44  N   -0.627710
    45  H    0.382875
    46  C   -0.023748
    47  H    0.162220
    48  C    0.646321
    49  C   -0.397958
    50  H    0.224579
    51  H    0.200028
    52  O   -0.524097
    53  C    0.598839
    54  O   -0.465346
    55  O   -0.544789
    56  N   -0.603563
    57  H    0.339326
    58  C   -0.066343
    59  H    0.222949
    60  C    0.595452
    61  C   -0.273695
    62  H    0.156597
    63  H    0.145695
    64  O   -0.456295
    65  C   -0.290534
    66  H    0.218206
    67  H    0.162348
    68  C   -0.192050
    69  H    0.200948
    70  H    0.182435
    71  N   -0.595534
    72  H    0.354827
    73  N   -0.798334
    74  H    0.385066
    75  H    0.424923
    76  N   -0.761764
    77  H    0.370709
    78  H    0.377195
    79  C    0.805562
    80  O   -0.564915
    81  H    0.425800
    82  H    0.427842
 Sum of Mulliken charges =   1.00000

 Dipole moment (field-independent basis, Debye):
    X=              5.7335    Y=            -10.3930    Z=              4.4541  Tot=             12.6778
 Quadrupole moment (field-independent basis, Debye-Ang):
   XX=           -137.9956   YY=           -180.9366   ZZ=           -224.8120
   XY=             39.2315   XZ=             27.4368   YZ=            -22.6883

 Normal termination of Gaussian 16 at Thu May 26 20:31:45 2022.
