 Gaussian 16, Revision C.01,
 Gaussian 16:  ES64L-G16RevC.01  3-Jul-2019

 -------------------------------------------------------------------
 # B3LYP/6-31G* guess=read geom=check nosymm integral(ultrafinegrid)
 -------------------------------------------------------------------

 ------------------------------------------------------
 Candidate Structure: Conf:304 Charge calc in gas phase
 ------------------------------------------------------
 Structure from the checkpoint file:  "conf-304.chk"
 Charge =  1 Multiplicity = 1

                          Input orientation:
 ---------------------------------------------------------------------
 Center     Atomic      Atomic             Coordinates (Angstroms)
 Number     Number       Type             X           Y           Z
 ---------------------------------------------------------------------
      1          7           0       -3.010214    0.757987   -5.248332
      2          1           0       -3.121840    0.195283   -6.092471
      3          1           0       -3.234029    1.713621   -5.519331
      4          6           0       -3.960294    0.305443   -4.222995
      5          1           0       -3.986511    1.090830   -3.455062
      6          6           0       -3.424201   -0.936804   -3.492199
      7          6           0       -5.412379    0.063774   -4.705340
      8          1           0       -5.393598   -0.694720   -5.499812
      9          1           0       -5.972298   -0.369096   -3.870740
     10          8           0       -4.117586   -1.613560   -2.741417
     11          6           0       -6.076798    1.327636   -5.204178
     12          6           0       -6.668724    2.223060   -4.300828
     13          1           0       -6.682765    1.979832   -3.240196
     14          6           0       -6.086160    1.656109   -6.566766
     15          1           0       -5.650560    0.966017   -7.286665
     16          6           0       -7.249976    3.410577   -4.744738
     17          1           0       -7.710861    4.086558   -4.029346
     18          6           0       -6.667565    2.843795   -7.016336
     19          1           0       -6.671530    3.074847   -8.078272
     20          6           0       -7.249780    3.725822   -6.105571
     21          1           0       -7.707461    4.647795   -6.453256
     22          7           0       -2.107795   -1.218811   -3.738845
     23          1           0       -1.588039   -0.489429   -4.217627
     24          6           0       -1.429603   -2.213191   -2.951996
     25          1           0       -2.144154   -3.029751   -2.787913
     26          6           0       -1.043557   -1.651252   -1.564549
     27          6           0       -0.222483   -2.791073   -3.716277
     28          1           0       -0.582707   -3.136589   -4.689440
     29          1           0        0.182932   -3.654860   -3.176273
     30          8           0       -1.043178   -0.440231   -1.335520
     31          8           0        0.815357   -1.841026   -3.963691
     32          1           0        1.494284   -1.912843   -3.261879
     33          7           0       -0.661668   -2.576491   -0.635550
     34          1           0       -0.983345   -3.528964   -0.781649
     35          6           0       -0.536629   -2.238344    0.790299
     36          1           0       -1.364665   -1.570791    1.064503
     37          6           0        0.797061   -1.513536    1.089898
     38          6           0       -0.627467   -3.531079    1.606400
     39          1           0       -0.709372   -3.273371    2.671024
     40          1           0        0.292280   -4.114634    1.469900
     41          8           0        1.701774   -2.069724    1.744611
     42          8           0       -1.770721   -4.228136    1.134891
     43          1           0       -1.830908   -5.077108    1.598372
     44          7           0        0.876898   -0.264307    0.610771
     45          1           0        0.077459    0.020774    0.031610
     46          6           0        2.117493    0.480939    0.474239
     47          1           0        2.937755   -0.244779    0.449588
     48          6           0        2.353460    1.446821    1.658624
     49          6           0        2.089038    1.231146   -0.875225
     50          1           0        1.251588    1.934604   -0.916146
     51          1           0        3.001793    1.821131   -1.018100
     52          8           0        1.508003    1.666926    2.517233
     53          6           0        1.962122    0.233895   -2.017474
     54          8           0        2.403846   -0.905795   -1.941847
     55          8           0        1.311049    0.726199   -3.061596
     56          7           0        3.605648    2.001233    1.681254
     57          1           0        4.206257    1.834194    0.884037
     58          6           0        3.935268    3.187666    2.474812
     59          1           0        2.983888    3.641005    2.779328
     60          6           0        4.658971    4.245117    1.633398
     61          6           0        4.760305    2.880572    3.747447
     62          1           0        5.179384    3.825548    4.101757
     63          1           0        5.610550    2.250994    3.454300
     64          8           0        5.121670    5.258204    2.094907
     65          6           0        3.925570    2.210137    4.865393
     66          1           0        2.912740    2.022821    4.494532
     67          1           0        3.802128    2.904023    5.704944
     68          6           0        4.528688    0.921876    5.452373
     69          1           0        5.478355    1.135913    5.949453
     70          1           0        3.862216    0.498402    6.211701
     71          7           0        4.824598   -0.128568    4.462887
     72          1           0        5.778479   -0.208071    4.140080
     73          7           0        2.603100   -0.747065    4.086463
     74          1           0        1.985966   -1.279374    3.470307
     75          1           0        2.241862    0.154806    4.367815
     76          7           0        4.295297   -1.812199    2.945815
     77          1           0        5.248849   -2.137331    2.889937
     78          1           0        3.583395   -2.228456    2.347004
     79          6           0        3.912203   -0.878578    3.829734
     80          8           0        4.727000    3.924950    0.316922
     81          1           0        5.193363    4.660391   -0.126673
     82          1           0        1.098220   -0.019478   -3.680453
 ---------------------------------------------------------------------

 SCF Done:  E(RB3LYP) =  -2166.30060393     A.U. after    2 cycles

 Alpha  occ. eigenvalues --  -19.31202 -19.28354 -19.24859 -19.24846 -19.24580
 Alpha  occ. eigenvalues --  -19.24263 -19.24039 -19.23837 -19.22193 -19.17145
 Alpha  occ. eigenvalues --  -14.51929 -14.50570 -14.49669 -14.48228 -14.47038
 Alpha  occ. eigenvalues --  -14.46035 -14.41630 -14.38589 -10.47280 -10.43306
 Alpha  occ. eigenvalues --  -10.42558 -10.41081 -10.40966 -10.38542 -10.36097
 Alpha  occ. eigenvalues --  -10.35786 -10.35727 -10.34114 -10.34107 -10.33760
 Alpha  occ. eigenvalues --  -10.32745 -10.31740 -10.31443 -10.30882 -10.30739
 Alpha  occ. eigenvalues --  -10.28277 -10.24294 -10.23861 -10.23514 -10.23461
 Alpha  occ. eigenvalues --  -10.23454 -10.23362 -10.23275  -1.21784  -1.20197
 Alpha  occ. eigenvalues --   -1.16280  -1.15690  -1.15317  -1.13789  -1.12800
 Alpha  occ. eigenvalues --   -1.12223  -1.11302  -1.10911  -1.09089  -1.05661
 Alpha  occ. eigenvalues --   -1.04672  -1.04328  -1.03366  -1.02205  -0.98907
 Alpha  occ. eigenvalues --   -0.95270  -0.92402  -0.90643  -0.89865  -0.87422
 Alpha  occ. eigenvalues --   -0.86820  -0.83446  -0.82421  -0.81810  -0.80259
 Alpha  occ. eigenvalues --   -0.78816  -0.77790  -0.76931  -0.74837  -0.74257
 Alpha  occ. eigenvalues --   -0.73883  -0.73152  -0.71531  -0.71089  -0.70646
 Alpha  occ. eigenvalues --   -0.69590  -0.68777  -0.68381  -0.67874  -0.65343
 Alpha  occ. eigenvalues --   -0.65001  -0.64696  -0.64282  -0.63831  -0.62847
 Alpha  occ. eigenvalues --   -0.62543  -0.62378  -0.61446  -0.60839  -0.60679
 Alpha  occ. eigenvalues --   -0.59850  -0.59455  -0.59220  -0.59134  -0.58606
 Alpha  occ. eigenvalues --   -0.58237  -0.58124  -0.57491  -0.56864  -0.56254
 Alpha  occ. eigenvalues --   -0.56027  -0.55377  -0.54846  -0.54356  -0.53955
 Alpha  occ. eigenvalues --   -0.53632  -0.53315  -0.53228  -0.52782  -0.52473
 Alpha  occ. eigenvalues --   -0.51896  -0.51625  -0.51528  -0.50513  -0.50358
 Alpha  occ. eigenvalues --   -0.50192  -0.49866  -0.49402  -0.48946  -0.48564
 Alpha  occ. eigenvalues --   -0.48146  -0.48067  -0.47671  -0.47243  -0.46779
 Alpha  occ. eigenvalues --   -0.46746  -0.46562  -0.46364  -0.46062  -0.45730
 Alpha  occ. eigenvalues --   -0.44051  -0.43854  -0.43193  -0.42825  -0.42716
 Alpha  occ. eigenvalues --   -0.41974  -0.41369  -0.40672  -0.40539  -0.39921
 Alpha  occ. eigenvalues --   -0.39836  -0.39160  -0.38589  -0.38509  -0.38336
 Alpha  occ. eigenvalues --   -0.38169  -0.37352  -0.37038  -0.36920  -0.36791
 Alpha  occ. eigenvalues --   -0.35780  -0.35085  -0.32642  -0.31848  -0.30375
 Alpha  occ. eigenvalues --   -0.29452  -0.28383
 Alpha virt. eigenvalues --   -0.12022  -0.11059  -0.10422  -0.10261  -0.08897
 Alpha virt. eigenvalues --   -0.07846  -0.07462  -0.04954  -0.04592  -0.04223
 Alpha virt. eigenvalues --   -0.03576  -0.03410  -0.02627  -0.02164  -0.01063

 Mulliken charges:
               1
     1  N   -0.749137
     2  H    0.307300
     3  H    0.325631
     4  C   -0.077606
     5  H    0.178977
     6  C    0.624287
     7  C   -0.365090
     8  H    0.142605
     9  H    0.184519
    10  O   -0.532988
    11  C    0.168722
    12  C   -0.184056
    13  H    0.129936
    14  C   -0.195454
    15  H    0.119347
    16  C   -0.127408
    17  H    0.136473
    18  C   -0.127469
    19  H    0.136935
    20  C   -0.130461
    21  H    0.138031
    22  N   -0.599857
    23  H    0.361700
    24  C   -0.072541
    25  H    0.192546
    26  C    0.641963
    27  C   -0.055850
    28  H    0.183404
    29  H    0.146622
    30  O   -0.544836
    31  O   -0.663813
    32  H    0.437825
    33  N   -0.610623
    34  H    0.364193
    35  C   -0.073422
    36  H    0.205200
    37  C    0.644570
    38  C   -0.057290
    39  H    0.151083
    40  H    0.157957
    41  O   -0.597182
    42  O   -0.620875
    43  H    0.417972
    44  N   -0.580558
    45  H    0.403209
    46  C   -0.072307
    47  H    0.189514
    48  C    0.614760
    49  C   -0.404196
    50  H    0.216503
    51  H    0.199672
    52  O   -0.518098
    53  C    0.629966
    54  O   -0.507011
    55  O   -0.567457
    56  N   -0.607076
    57  H    0.350207
    58  C   -0.072154
    59  H    0.225306
    60  C    0.591294
    61  C   -0.263982
    62  H    0.205900
    63  H    0.129152
    64  O   -0.429404
    65  C   -0.310626
    66  H    0.182196
    67  H    0.186505
    68  C   -0.180294
    69  H    0.192751
    70  H    0.198170
    71  N   -0.592776
    72  H    0.357041
    73  N   -0.759194
    74  H    0.402894
    75  H    0.386321
    76  N   -0.788435
    77  H    0.367816
    78  H    0.420192
    79  C    0.789907
    80  O   -0.585214
    81  H    0.434994
    82  H    0.452670
 Sum of Mulliken charges =   1.00000

 Dipole moment (field-independent basis, Debye):
    X=             16.1848    Y=             -2.1965    Z=              8.2157  Tot=             18.2830
 Quadrupole moment (field-independent basis, Debye-Ang):
   XX=           -160.9819   YY=           -206.9847   ZZ=           -162.1157
   XY=             -2.7028   XZ=             64.0459   YZ=            -14.0918

 Normal termination of Gaussian 16 at Thu May 26 20:31:27 2022.
