 Gaussian 16, Revision C.01,
 Gaussian 16:  ES64L-G16RevC.01  3-Jul-2019

 -------------------------------------------------------------------
 # B3LYP/6-31G* guess=read geom=check nosymm integral(ultrafinegrid)
 -------------------------------------------------------------------

 ------------------------------------------------------
 Candidate Structure: Conf:217 Charge calc in gas phase
 ------------------------------------------------------
 Structure from the checkpoint file:  "conf-217.chk"
 Charge =  1 Multiplicity = 1

                          Input orientation:
 ---------------------------------------------------------------------
 Center     Atomic      Atomic             Coordinates (Angstroms)
 Number     Number       Type             X           Y           Z
 ---------------------------------------------------------------------
      1          7           0       -2.914757    2.082622   -4.235839
      2          1           0       -2.521693    3.021910   -4.190636
      3          1           0       -2.191471    1.516408   -4.679812
      4          6           0       -3.137326    1.581268   -2.888309
      5          1           0       -3.775105    2.301023   -2.360985
      6          6           0       -1.826188    1.411735   -2.096063
      7          6           0       -3.896768    0.221849   -2.960335
      8          1           0       -4.669754    0.366095   -3.723023
      9          1           0       -3.209253   -0.546531   -3.334629
     10          8           0       -0.728290    1.367592   -2.659181
     11          6           0       -4.520816   -0.234910   -1.656029
     12          6           0       -4.040625   -1.364960   -0.975895
     13          1           0       -3.212805   -1.930399   -1.397448
     14          6           0       -5.596681    0.475365   -1.097188
     15          1           0       -5.997759    1.341230   -1.620363
     16          6           0       -4.619314   -1.770503    0.230018
     17          1           0       -4.239897   -2.653808    0.736984
     18          6           0       -6.173769    0.072032    0.107750
     19          1           0       -7.013032    0.628219    0.516697
     20          6           0       -5.685014   -1.053239    0.776406
     21          1           0       -6.140152   -1.374219    1.709412
     22          7           0       -1.942582    1.284635   -0.740719
     23          1           0       -2.865932    1.074045   -0.375876
     24          6           0       -0.802022    1.053139    0.140767
     25          1           0        0.014370    1.700541   -0.200353
     26          6           0       -0.272063   -0.405640    0.112318
     27          6           0       -1.230115    1.452690    1.565559
     28          1           0       -2.172083    0.944886    1.816273
     29          1           0       -1.395946    2.531484    1.610504
     30          8           0       -0.140729   -1.064373    1.158654
     31          8           0       -0.236328    1.117373    2.543460
     32          1           0       -0.080498    0.149245    2.359442
     33          7           0        0.071754   -0.875186   -1.100570
     34          1           0       -0.076538   -0.256116   -1.900723
     35          6           0        0.551123   -2.237354   -1.308437
     36          1           0        0.104621   -2.870523   -0.537033
     37          6           0        2.081164   -2.396569   -1.155054
     38          6           0        0.122110   -2.759048   -2.680968
     39          1           0        0.506639   -3.780710   -2.776993
     40          1           0        0.577851   -2.144478   -3.474373
     41          8           0        2.594080   -3.509427   -1.168367
     42          8           0       -1.298654   -2.708541   -2.748453
     43          1           0       -1.581743   -3.200563   -3.534232
     44          7           0        2.779036   -1.242545   -1.026052
     45          1           0        2.306533   -0.346621   -1.003576
     46          6           0        4.192923   -1.199841   -0.717146
     47          1           0        4.432099   -2.023380   -0.037173
     48          6           0        4.423243    0.154467   -0.020969
     49          6           0        5.050931   -1.361256   -2.000505
     50          1           0        4.802048   -2.344080   -2.419132
     51          1           0        4.783713   -0.600881   -2.738153
     52          8           0        3.640285    1.092177   -0.182705
     53          6           0        6.552452   -1.301609   -1.805970
     54          8           0        7.333277   -0.773956   -2.558154
     55          8           0        6.947830   -1.936224   -0.662505
     56          7           0        5.514563    0.229855    0.781732
     57          1           0        6.191740   -0.529110    0.757285
     58          6           0        5.981011    1.498472    1.317777
     59          1           0        5.649062    2.299424    0.647164
     60          6           0        7.508122    1.464873    1.313511
     61          6           0        5.449789    1.802787    2.741891
     62          1           0        5.860216    2.771006    3.051544
     63          1           0        5.839950    1.046589    3.436264
     64          8           0        8.172071    0.482920    1.062111
     65          6           0        3.917436    1.824172    2.806235
     66          1           0        3.528440    0.831316    2.556507
     67          1           0        3.521109    2.515681    2.054952
     68          6           0        3.402165    2.218804    4.191464
     69          1           0        3.824948    1.555639    4.958036
     70          1           0        3.703655    3.249024    4.426998
     71          7           0        1.937033    2.109121    4.221835
     72          1           0        1.437711    1.884210    3.357959
     73          7           0        1.728456    2.538860    6.498352
     74          1           0        1.211756    2.455509    7.361091
     75          1           0        2.675283    2.880913    6.554707
     76          7           0       -0.106213    1.832588    5.256464
     77          1           0       -0.471746    1.504895    4.354768
     78          1           0       -0.742119    2.050090    6.009140
     79          6           0        1.188357    2.166336    5.323694
     80          8           0        8.028861    2.658192    1.646112
     81          1           0        9.001444    2.567357    1.624729
     82          1           0        7.917002   -1.823648   -0.602802
 ---------------------------------------------------------------------

 SCF Done:  E(RB3LYP) =  -2166.31016739     A.U. after    2 cycles

 Alpha  occ. eigenvalues --  -19.29735 -19.27412 -19.27356 -19.24323 -19.23439
 Alpha  occ. eigenvalues --  -19.22755 -19.21719 -19.21363 -19.21327 -19.18981
 Alpha  occ. eigenvalues --  -14.52155 -14.50872 -14.50294 -14.45956 -14.45590
 Alpha  occ. eigenvalues --  -14.45476 -14.43778 -14.38405 -10.47681 -10.42358
 Alpha  occ. eigenvalues --  -10.39711 -10.39291 -10.38629 -10.37711 -10.36538
 Alpha  occ. eigenvalues --  -10.36058 -10.35276 -10.34227 -10.34193 -10.32646
 Alpha  occ. eigenvalues --  -10.32094 -10.31696 -10.30507 -10.30361 -10.30327
 Alpha  occ. eigenvalues --  -10.28261 -10.26874 -10.26311 -10.26071 -10.26003
 Alpha  occ. eigenvalues --  -10.25938 -10.25882 -10.25567  -1.20799  -1.17881
 Alpha  occ. eigenvalues --   -1.16304  -1.15343  -1.13691  -1.13134  -1.12696
 Alpha  occ. eigenvalues --   -1.11911  -1.11088  -1.10422  -1.09021  -1.05452
 Alpha  occ. eigenvalues --   -1.04297  -1.02815  -1.02518  -1.01895  -1.00254
 Alpha  occ. eigenvalues --   -0.96203  -0.92419  -0.91902  -0.88290  -0.87311
 Alpha  occ. eigenvalues --   -0.86067  -0.84810  -0.84105  -0.81260  -0.80763
 Alpha  occ. eigenvalues --   -0.78677  -0.78052  -0.77637  -0.76077  -0.74080
 Alpha  occ. eigenvalues --   -0.72928  -0.72186  -0.71606  -0.70507  -0.70135
 Alpha  occ. eigenvalues --   -0.68728  -0.68357  -0.68120  -0.67635  -0.67271
 Alpha  occ. eigenvalues --   -0.66332  -0.65369  -0.64582  -0.64441  -0.64054
 Alpha  occ. eigenvalues --   -0.62630  -0.61852  -0.61114  -0.60713  -0.60232
 Alpha  occ. eigenvalues --   -0.60019  -0.59208  -0.58802  -0.58057  -0.57713
 Alpha  occ. eigenvalues --   -0.57551  -0.57533  -0.56897  -0.56468  -0.55947
 Alpha  occ. eigenvalues --   -0.54915  -0.54882  -0.54650  -0.54193  -0.53796
 Alpha  occ. eigenvalues --   -0.53079  -0.52901  -0.52655  -0.52479  -0.51923
 Alpha  occ. eigenvalues --   -0.51772  -0.51473  -0.51300  -0.50983  -0.50538
 Alpha  occ. eigenvalues --   -0.49909  -0.49617  -0.49168  -0.48792  -0.48658
 Alpha  occ. eigenvalues --   -0.48388  -0.48266  -0.47757  -0.47349  -0.47001
 Alpha  occ. eigenvalues --   -0.46607  -0.46379  -0.46279  -0.45871  -0.45521
 Alpha  occ. eigenvalues --   -0.45320  -0.44669  -0.43628  -0.43179  -0.42692
 Alpha  occ. eigenvalues --   -0.42220  -0.42004  -0.41863  -0.40701  -0.40380
 Alpha  occ. eigenvalues --   -0.40255  -0.40088  -0.39645  -0.38259  -0.37966
 Alpha  occ. eigenvalues --   -0.37503  -0.36021  -0.35737  -0.35545  -0.35177
 Alpha  occ. eigenvalues --   -0.34937  -0.34249  -0.33037  -0.32097  -0.32050
 Alpha  occ. eigenvalues --   -0.31776  -0.30926
 Alpha virt. eigenvalues --   -0.11290  -0.09270  -0.09114  -0.07839  -0.07823
 Alpha virt. eigenvalues --   -0.07606  -0.07212  -0.06843  -0.06644  -0.05005
 Alpha virt. eigenvalues --   -0.04283  -0.02623  -0.02072  -0.01579  -0.01300

 Mulliken charges:
               1
     1  N   -0.684338
     2  H    0.309771
     3  H    0.312653
     4  C   -0.091101
     5  H    0.157995
     6  C    0.596619
     7  C   -0.350952
     8  H    0.191535
     9  H    0.159150
    10  O   -0.543606
    11  C    0.118344
    12  C   -0.216409
    13  H    0.176341
    14  C   -0.191507
    15  H    0.141414
    16  C   -0.137097
    17  H    0.143411
    18  C   -0.131691
    19  H    0.143745
    20  C   -0.135492
    21  H    0.140719
    22  N   -0.601671
    23  H    0.354884
    24  C   -0.089120
    25  H    0.209460
    26  C    0.638067
    27  C   -0.061496
    28  H    0.161809
    29  H    0.175553
    30  O   -0.565979
    31  O   -0.680958
    32  H    0.447883
    33  N   -0.640079
    34  H    0.396528
    35  C   -0.047118
    36  H    0.212736
    37  C    0.615818
    38  C   -0.058986
    39  H    0.182543
    40  H    0.141660
    41  O   -0.522074
    42  O   -0.615618
    43  H    0.413252
    44  N   -0.626439
    45  H    0.358228
    46  C   -0.039988
    47  H    0.200623
    48  C    0.602702
    49  C   -0.350698
    50  H    0.224090
    51  H    0.192517
    52  O   -0.546213
    53  C    0.568623
    54  O   -0.433612
    55  O   -0.579368
    56  N   -0.625196
    57  H    0.384526
    58  C   -0.044161
    59  H    0.208870
    60  C    0.590956
    61  C   -0.275492
    62  H    0.173919
    63  H    0.156860
    64  O   -0.463251
    65  C   -0.308206
    66  H    0.174941
    67  H    0.186951
    68  C   -0.137696
    69  H    0.175176
    70  H    0.174981
    71  N   -0.638971
    72  H    0.398287
    73  N   -0.767316
    74  H    0.380146
    75  H    0.386866
    76  N   -0.790468
    77  H    0.414853
    78  H    0.366624
    79  C    0.826361
    80  O   -0.558814
    81  H    0.432120
    82  H    0.430073
 Sum of Mulliken charges =   1.00000

 Dipole moment (field-independent basis, Debye):
    X=              5.6320    Y=              9.4298    Z=             18.4033  Tot=             21.4318
 Quadrupole moment (field-independent basis, Debye-Ang):
   XX=           -170.9388   YY=           -225.4760   ZZ=           -123.2014
   XY=             22.7894   XZ=             43.0601   YZ=             59.3306

 Normal termination of Gaussian 16 at Thu May 26 20:31:27 2022.
