 Gaussian 16, Revision C.01,
 Gaussian 16:  ES64L-G16RevC.01  3-Jul-2019

 -------------------------------------------------------------------
 # B3LYP/6-31G* guess=read geom=check nosymm integral(ultrafinegrid)
 -------------------------------------------------------------------

 ------------------------------------------------------
 Candidate Structure: Conf:962 Charge calc in gas phase
 ------------------------------------------------------
 Structure from the checkpoint file:  "conf-962.chk"
 Charge =  1 Multiplicity = 1

                          Input orientation:
 ---------------------------------------------------------------------
 Center     Atomic      Atomic             Coordinates (Angstroms)
 Number     Number       Type             X           Y           Z
 ---------------------------------------------------------------------
      1          7           0       -0.649647   -5.741096    0.373499
      2          1           0        0.231323   -6.085176   -0.003753
      3          1           0       -0.418204   -5.134518    1.156737
      4          6           0       -1.374369   -4.987062   -0.636956
      5          1           0       -1.521245   -5.654091   -1.495926
      6          6           0       -0.639988   -3.729958   -1.143818
      7          6           0       -2.799313   -4.619096   -0.123722
      8          1           0       -3.331689   -4.092110   -0.922932
      9          1           0       -3.314977   -5.569230    0.046588
     10          8           0        0.150386   -3.074998   -0.437281
     11          6           0       -2.834372   -3.789940    1.143842
     12          6           0       -2.841564   -4.413506    2.401499
     13          1           0       -2.825292   -5.498705    2.455889
     14          6           0       -2.875501   -2.386799    1.088328
     15          1           0       -2.875396   -1.883897    0.123672
     16          6           0       -2.888402   -3.657869    3.576946
     17          1           0       -2.932336   -4.161555    4.539930
     18          6           0       -2.923366   -1.627912    2.260956
     19          1           0       -2.972041   -0.544187    2.199182
     20          6           0       -2.929161   -2.259847    3.511050
     21          1           0       -3.000825   -1.668552    4.420381
     22          7           0       -0.935275   -3.352490   -2.398910
     23          1           0       -1.437768   -3.983696   -3.012828
     24          6           0       -0.372306   -2.176258   -3.049101
     25          1           0        0.710945   -2.308386   -3.163255
     26          6           0       -0.692545   -0.894240   -2.245664
     27          6           0       -1.023103   -2.049364   -4.432083
     28          1           0       -0.495303   -1.273064   -5.002750
     29          1           0       -2.067508   -1.738264   -4.297535
     30          8           0       -1.850721   -0.611565   -1.952472
     31          8           0       -0.930640   -3.324963   -5.057198
     32          1           0       -1.423333   -3.294139   -5.891564
     33          7           0        0.384059   -0.117030   -1.988071
     34          1           0        1.320541   -0.490418   -2.111265
     35          6           0        0.354877    1.141069   -1.262776
     36          1           0       -0.205363    1.899146   -1.823193
     37          6           0        1.814026    1.563268   -1.089662
     38          6           0       -0.314011    1.001852    0.147914
     39          1           0        0.169438    0.167597    0.675395
     40          1           0       -1.359387    0.742958   -0.022913
     41          8           0        2.740489    0.763337   -1.249760
     42          8           0       -0.272249    2.200762    0.892481
     43          1           0        0.559820    2.207434    1.408440
     44          7           0        2.019361    2.837267   -0.661451
     45          1           0        1.192043    3.357274   -0.380521
     46          6           0        3.263186    3.143640    0.036406
     47          1           0        4.098396    2.946139   -0.641414
     48          6           0        3.356222    2.236333    1.284270
     49          6           0        3.274958    4.622420    0.473707
     50          1           0        2.482635    4.795198    1.207046
     51          1           0        4.240620    4.851708    0.933564
     52          8           0        2.363946    2.042765    1.995467
     53          6           0        3.027003    5.539360   -0.710417
     54          8           0        1.949987    5.999886   -1.008634
     55          8           0        4.157611    5.745427   -1.421474
     56          7           0        4.559089    1.680220    1.549810
     57          1           0        5.336271    1.846393    0.924273
     58          6           0        4.752170    0.788852    2.685971
     59          1           0        3.951544    1.029978    3.392089
     60          6           0        6.071073    1.027815    3.416029
     61          6           0        4.640958   -0.715882    2.326222
     62          1           0        4.703519   -1.260017    3.276117
     63          1           0        5.516206   -1.018525    1.735029
     64          8           0        6.390865    0.414432    4.406848
     65          6           0        3.358362   -1.063466    1.557246
     66          1           0        3.418732   -0.667406    0.538517
     67          1           0        2.494117   -0.572440    2.018973
     68          6           0        3.078881   -2.569733    1.464013
     69          1           0        2.365066   -2.778701    0.664028
     70          1           0        3.986429   -3.133741    1.228282
     71          7           0        2.555526   -3.139790    2.723210
     72          1           0        3.221667   -3.515898    3.384004
     73          7           0        0.302795   -2.705488    2.312258
     74          1           0       -0.619888   -2.496871    2.684350
     75          1           0        0.347671   -2.846105    1.288476
     76          7           0        1.005003   -3.244364    4.447587
     77          1           0        1.711168   -3.159169    5.163914
     78          1           0        0.041443   -3.312581    4.745449
     79          6           0        1.287170   -3.020434    3.146162
     80          8           0        6.846787    1.961949    2.825285
     81          1           0        7.665069    2.027950    3.355313
     82          1           0        3.917423    6.314466   -2.178188
 ---------------------------------------------------------------------

 SCF Done:  E(RB3LYP) =  -2166.30429314     A.U. after    3 cycles

 Alpha  occ. eigenvalues --  -19.29879 -19.27716 -19.24417 -19.23689 -19.23072
 Alpha  occ. eigenvalues --  -19.23006 -19.22230 -19.21977 -19.21839 -19.20125
 Alpha  occ. eigenvalues --  -14.50998 -14.50970 -14.48598 -14.47495 -14.46324
 Alpha  occ. eigenvalues --  -14.45560 -14.44723 -14.41129 -10.46800 -10.42163
 Alpha  occ. eigenvalues --  -10.40412 -10.39925 -10.39033 -10.38671 -10.37669
 Alpha  occ. eigenvalues --  -10.34617 -10.34566 -10.34511 -10.33007 -10.32944
 Alpha  occ. eigenvalues --  -10.32408 -10.32167 -10.31426 -10.30016 -10.29930
 Alpha  occ. eigenvalues --  -10.29087 -10.29023 -10.28765 -10.28690 -10.28359
 Alpha  occ. eigenvalues --  -10.28326 -10.28215 -10.27907  -1.20610  -1.18535
 Alpha  occ. eigenvalues --   -1.15238  -1.15098  -1.14252  -1.13734  -1.12028
 Alpha  occ. eigenvalues --   -1.11591  -1.11503  -1.09640  -1.09367  -1.04819
 Alpha  occ. eigenvalues --   -1.03778  -1.02910  -1.02611  -1.02384  -1.01158
 Alpha  occ. eigenvalues --   -0.98666  -0.94751  -0.91180  -0.89219  -0.87626
 Alpha  occ. eigenvalues --   -0.86598  -0.86300  -0.83647  -0.83563  -0.80916
 Alpha  occ. eigenvalues --   -0.80803  -0.78245  -0.76946  -0.74964  -0.74197
 Alpha  occ. eigenvalues --   -0.72868  -0.72447  -0.72083  -0.70537  -0.70307
 Alpha  occ. eigenvalues --   -0.69680  -0.69595  -0.68811  -0.68715  -0.67698
 Alpha  occ. eigenvalues --   -0.66829  -0.66005  -0.64602  -0.63787  -0.63283
 Alpha  occ. eigenvalues --   -0.62566  -0.61732  -0.61075  -0.60860  -0.60547
 Alpha  occ. eigenvalues --   -0.60029  -0.59749  -0.59662  -0.58506  -0.58361
 Alpha  occ. eigenvalues --   -0.58090  -0.57277  -0.56996  -0.56367  -0.55784
 Alpha  occ. eigenvalues --   -0.55681  -0.55371  -0.55070  -0.54532  -0.54294
 Alpha  occ. eigenvalues --   -0.53831  -0.53488  -0.53198  -0.52947  -0.52457
 Alpha  occ. eigenvalues --   -0.52300  -0.52036  -0.51592  -0.51360  -0.51087
 Alpha  occ. eigenvalues --   -0.50846  -0.50741  -0.50100  -0.49310  -0.48690
 Alpha  occ. eigenvalues --   -0.48574  -0.48376  -0.48298  -0.47977  -0.47369
 Alpha  occ. eigenvalues --   -0.47155  -0.46877  -0.46787  -0.46522  -0.46027
 Alpha  occ. eigenvalues --   -0.45156  -0.44972  -0.44724  -0.44671  -0.43302
 Alpha  occ. eigenvalues --   -0.42887  -0.42440  -0.41639  -0.41548  -0.40943
 Alpha  occ. eigenvalues --   -0.39880  -0.39420  -0.38577  -0.37902  -0.37395
 Alpha  occ. eigenvalues --   -0.37206  -0.36864  -0.36752  -0.36255  -0.35804
 Alpha  occ. eigenvalues --   -0.35553  -0.34624  -0.34473  -0.34399  -0.33846
 Alpha  occ. eigenvalues --   -0.33076  -0.32691
 Alpha virt. eigenvalues --   -0.11299  -0.10265  -0.10002  -0.09811  -0.08948
 Alpha virt. eigenvalues --   -0.08691  -0.08560  -0.07129  -0.07037  -0.06198
 Alpha virt. eigenvalues --   -0.03575  -0.02560  -0.02224  -0.01295  -0.01073

 Mulliken charges:
               1
     1  N   -0.697706
     2  H    0.311181
     3  H    0.299395
     4  C   -0.091937
     5  H    0.160491
     6  C    0.632798
     7  C   -0.340347
     8  H    0.169986
     9  H    0.182752
    10  O   -0.585694
    11  C    0.136349
    12  C   -0.180639
    13  H    0.161676
    14  C   -0.199713
    15  H    0.188144
    16  C   -0.161076
    17  H    0.148514
    18  C   -0.157468
    19  H    0.166954
    20  C   -0.173994
    21  H    0.152353
    22  N   -0.585571
    23  H    0.361686
    24  C   -0.034994
    25  H    0.166739
    26  C    0.643226
    27  C   -0.071996
    28  H    0.160243
    29  H    0.173982
    30  O   -0.534108
    31  O   -0.629321
    32  H    0.417407
    33  N   -0.633672
    34  H    0.357661
    35  C   -0.035466
    36  H    0.193479
    37  C    0.599419
    38  C   -0.062217
    39  H    0.130061
    40  H    0.197164
    41  O   -0.546752
    42  O   -0.647790
    43  H    0.434742
    44  N   -0.597197
    45  H    0.365959
    46  C   -0.058553
    47  H    0.191685
    48  C    0.658330
    49  C   -0.370022
    50  H    0.203519
    51  H    0.194130
    52  O   -0.561079
    53  C    0.581759
    54  O   -0.440116
    55  O   -0.560091
    56  N   -0.593847
    57  H    0.356360
    58  C   -0.067518
    59  H    0.217562
    60  C    0.599343
    61  C   -0.271321
    62  H    0.155087
    63  H    0.156545
    64  O   -0.449067
    65  C   -0.298336
    66  H    0.205497
    67  H    0.171123
    68  C   -0.192620
    69  H    0.209602
    70  H    0.179425
    71  N   -0.596690
    72  H    0.357480
    73  N   -0.807739
    74  H    0.384599
    75  H    0.441205
    76  N   -0.766040
    77  H    0.373143
    78  H    0.376622
    79  C    0.791257
    80  O   -0.570879
    81  H    0.430763
    82  H    0.424181
 Sum of Mulliken charges =   1.00000

 Dipole moment (field-independent basis, Debye):
    X=             10.2825    Y=             -9.5472    Z=              5.5274  Tot=             15.0808
 Quadrupole moment (field-independent basis, Debye-Ang):
   XX=           -183.4460   YY=           -187.5985   ZZ=           -169.1836
   XY=             26.6504   XZ=             23.0351   YZ=            -20.5212

 Normal termination of Gaussian 16 at Thu May 26 20:51:10 2022.
