 Gaussian 16, Revision C.01,
 Gaussian 16:  ES64L-G16RevC.01  3-Jul-2019

 -------------------------------------------------------------------
 # B3LYP/6-31G* guess=read geom=check nosymm integral(ultrafinegrid)
 -------------------------------------------------------------------

 ------------------------------------------------------
 Candidate Structure: Conf:797 Charge calc in gas phase
 ------------------------------------------------------
 Structure from the checkpoint file:  "conf-797.chk"
 Charge =  1 Multiplicity = 1

                          Input orientation:
 ---------------------------------------------------------------------
 Center     Atomic      Atomic             Coordinates (Angstroms)
 Number     Number       Type             X           Y           Z
 ---------------------------------------------------------------------
      1          7           0       -3.841136   -0.875541   -5.208933
      2          1           0       -2.895288   -1.251431   -5.264768
      3          1           0       -4.485763   -1.629355   -5.440481
      4          6           0       -4.086751   -0.419957   -3.845151
      5          1           0       -5.062196    0.083459   -3.829774
      6          6           0       -2.981539    0.582453   -3.515364
      7          6           0       -4.095803   -1.525595   -2.741598
      8          1           0       -3.100959   -1.985443   -2.723446
      9          1           0       -4.248177   -1.045642   -1.765124
     10          8           0       -1.792776    0.262146   -3.619933
     11          6           0       -5.165338   -2.567287   -2.975760
     12          6           0       -6.478137   -2.358943   -2.527797
     13          1           0       -6.715963   -1.455070   -1.970026
     14          6           0       -4.882706   -3.744750   -3.683068
     15          1           0       -3.867041   -3.932465   -4.024256
     16          6           0       -7.479130   -3.296988   -2.778484
     17          1           0       -8.488811   -3.119278   -2.418058
     18          6           0       -5.882468   -4.686336   -3.937220
     19          1           0       -5.641695   -5.594957   -4.482457
     20          6           0       -7.183998   -4.464316   -3.486505
     21          1           0       -7.962209   -5.197120   -3.680331
     22          7           0       -3.373423    1.803467   -3.053834
     23          1           0       -4.324218    2.082898   -3.272976
     24          6           0       -2.445698    2.940453   -2.993490
     25          1           0       -1.805437    2.910922   -3.885949
     26          6           0       -1.526851    2.910787   -1.754776
     27          6           0       -3.263324    4.236135   -2.991017
     28          1           0       -2.581334    5.086031   -3.115247
     29          1           0       -3.767277    4.350460   -2.022115
     30          8           0       -1.531259    3.849880   -0.938140
     31          8           0       -4.195195    4.131890   -4.059967
     32          1           0       -4.753967    4.923486   -4.057024
     33          7           0       -0.705305    1.850679   -1.642145
     34          1           0       -0.802673    1.079402   -2.316035
     35          6           0        0.273017    1.790349   -0.573760
     36          1           0        0.923265    2.673772   -0.642077
     37          6           0        1.118803    0.517232   -0.690596
     38          6           0       -0.369102    1.823851    0.848024
     39          1           0        0.212628    1.213690    1.544850
     40          1           0       -1.381082    1.407287    0.794652
     41          8           0        0.640514   -0.571003   -0.971069
     42          8           0       -0.377496    3.147641    1.387817
     43          1           0       -0.819911    3.690980    0.683919
     44          7           0        2.427880    0.708223   -0.348561
     45          1           0        2.755367    1.628957   -0.083729
     46          6           0        3.304660   -0.376888    0.051295
     47          1           0        2.679418   -1.215240    0.376323
     48          6           0        4.115553    0.150617    1.259995
     49          6           0        4.177997   -0.875296   -1.124385
     50          1           0        3.553456   -0.900285   -2.023479
     51          1           0        5.004845   -0.188190   -1.341739
     52          8           0        4.099783    1.364891    1.540806
     53          6           0        4.730705   -2.269097   -0.908193
     54          8           0        4.644198   -2.905161    0.127722
     55          8           0        5.322509   -2.744409   -2.009997
     56          7           0        4.799100   -0.748745    1.979794
     57          1           0        4.862101   -1.707780    1.626720
     58          6           0        5.630931   -0.357147    3.110066
     59          1           0        5.866337    0.704797    2.995142
     60          6           0        6.940509   -1.140924    3.033382
     61          6           0        4.939351   -0.597708    4.479028
     62          1           0        5.638491   -0.298257    5.267966
     63          1           0        4.779195   -1.676299    4.594880
     64          8           0        7.157342   -2.043414    2.259741
     65          6           0        3.586010    0.108730    4.663562
     66          1           0        3.093565   -0.329639    5.541090
     67          1           0        2.934597   -0.107808    3.808813
     68          6           0        3.671279    1.631325    4.866994
     69          1           0        4.234998    1.870045    5.774451
     70          1           0        4.183668    2.123008    4.038057
     71          7           0        2.340369    2.241965    5.012880
     72          1           0        1.851914    2.040333    5.875826
     73          7           0        2.073642    2.890223    2.778007
     74          1           0        1.415768    3.250231    2.082075
     75          1           0        2.896123    2.385190    2.440154
     76          7           0        0.325473    3.124040    4.244640
     77          1           0       -0.052860    3.189512    5.177226
     78          1           0       -0.266175    3.352447    3.446217
     79          6           0        1.591433    2.736753    4.010225
     80          8           0        7.817777   -0.703001    3.956446
     81          1           0        8.624389   -1.247672    3.871797
     82          1           0        5.658395   -3.638104   -1.801302
 ---------------------------------------------------------------------

 SCF Done:  E(RB3LYP) =  -2166.31623184     A.U. after    1 cycles

 Alpha  occ. eigenvalues --  -19.29804 -19.29296 -19.26289 -19.24578 -19.24333
 Alpha  occ. eigenvalues --  -19.24250 -19.22996 -19.22022 -19.21736 -19.19917
 Alpha  occ. eigenvalues --  -14.51078 -14.49677 -14.48238 -14.47521 -14.46299
 Alpha  occ. eigenvalues --  -14.44745 -14.44065 -14.36910 -10.46443 -10.42530
 Alpha  occ. eigenvalues --  -10.42412 -10.41347 -10.39136 -10.38496 -10.36331
 Alpha  occ. eigenvalues --  -10.35382 -10.35037 -10.34971 -10.34552 -10.33810
 Alpha  occ. eigenvalues --  -10.32009 -10.31663 -10.30946 -10.30787 -10.30684
 Alpha  occ. eigenvalues --  -10.28825 -10.24978 -10.24866 -10.24091 -10.24050
 Alpha  occ. eigenvalues --  -10.24017 -10.23986 -10.23822  -1.20814  -1.20615
 Alpha  occ. eigenvalues --   -1.16194  -1.14967  -1.14310  -1.13487  -1.12371
 Alpha  occ. eigenvalues --   -1.12020  -1.11630  -1.11494  -1.10278  -1.04815
 Alpha  occ. eigenvalues --   -1.04313  -1.03103  -1.02146  -1.01750  -1.00186
 Alpha  occ. eigenvalues --   -0.94728  -0.92168  -0.90405  -0.89900  -0.86964
 Alpha  occ. eigenvalues --   -0.86416  -0.84156  -0.82792  -0.81511  -0.79731
 Alpha  occ. eigenvalues --   -0.79406  -0.77323  -0.76559  -0.76170  -0.73347
 Alpha  occ. eigenvalues --   -0.72643  -0.72390  -0.71984  -0.71059  -0.69860
 Alpha  occ. eigenvalues --   -0.69627  -0.68458  -0.68349  -0.67008  -0.66134
 Alpha  occ. eigenvalues --   -0.65511  -0.64916  -0.64122  -0.63244  -0.63091
 Alpha  occ. eigenvalues --   -0.61826  -0.61297  -0.60871  -0.60406  -0.59909
 Alpha  occ. eigenvalues --   -0.59625  -0.59512  -0.58816  -0.58327  -0.57887
 Alpha  occ. eigenvalues --   -0.57778  -0.57646  -0.57341  -0.57108  -0.56321
 Alpha  occ. eigenvalues --   -0.55980  -0.55738  -0.55198  -0.54897  -0.54344
 Alpha  occ. eigenvalues --   -0.53221  -0.52909  -0.52679  -0.52258  -0.51830
 Alpha  occ. eigenvalues --   -0.51476  -0.51405  -0.51165  -0.50402  -0.50378
 Alpha  occ. eigenvalues --   -0.49916  -0.49655  -0.49341  -0.49064  -0.48496
 Alpha  occ. eigenvalues --   -0.48152  -0.47883  -0.47639  -0.47609  -0.47191
 Alpha  occ. eigenvalues --   -0.46902  -0.46718  -0.46596  -0.46482  -0.45729
 Alpha  occ. eigenvalues --   -0.45409  -0.44768  -0.44255  -0.42019  -0.41919
 Alpha  occ. eigenvalues --   -0.41912  -0.41760  -0.40642  -0.40601  -0.39559
 Alpha  occ. eigenvalues --   -0.39460  -0.39048  -0.38936  -0.38790  -0.38231
 Alpha  occ. eigenvalues --   -0.37952  -0.37551  -0.36762  -0.35901  -0.35799
 Alpha  occ. eigenvalues --   -0.35340  -0.34567  -0.34085  -0.33146  -0.30357
 Alpha  occ. eigenvalues --   -0.29919  -0.28548
 Alpha virt. eigenvalues --   -0.10722  -0.10088  -0.09166  -0.09156  -0.08565
 Alpha virt. eigenvalues --   -0.07255  -0.06487  -0.06364  -0.05232  -0.04666
 Alpha virt. eigenvalues --   -0.03129  -0.02186  -0.01746  -0.01297  -0.00737

 Mulliken charges:
               1
     1  N   -0.713899
     2  H    0.314681
     3  H    0.315919
     4  C   -0.059210
     5  H    0.142482
     6  C    0.648540
     7  C   -0.365347
     8  H    0.166606
     9  H    0.139524
    10  O   -0.553350
    11  C    0.167650
    12  C   -0.179150
    13  H    0.119690
    14  C   -0.196012
    15  H    0.128096
    16  C   -0.126620
    17  H    0.138209
    18  C   -0.126792
    19  H    0.139939
    20  C   -0.129040
    21  H    0.141067
    22  N   -0.612065
    23  H    0.362858
    24  C   -0.067542
    25  H    0.199879
    26  C    0.648544
    27  C   -0.056718
    28  H    0.161125
    29  H    0.154251
    30  O   -0.579487
    31  O   -0.625102
    32  H    0.414419
    33  N   -0.640904
    34  H    0.414913
    35  C   -0.037046
    36  H    0.164404
    37  C    0.569872
    38  C   -0.048463
    39  H    0.149374
    40  H    0.186327
    41  O   -0.492775
    42  O   -0.677110
    43  H    0.452472
    44  N   -0.614024
    45  H    0.344867
    46  C   -0.057305
    47  H    0.212926
    48  C    0.605639
    49  C   -0.368126
    50  H    0.230239
    51  H    0.204309
    52  O   -0.579109
    53  C    0.614028
    54  O   -0.477059
    55  O   -0.545032
    56  N   -0.604651
    57  H    0.409798
    58  C   -0.062544
    59  H    0.206203
    60  C    0.588440
    61  C   -0.279311
    62  H    0.182015
    63  H    0.173069
    64  O   -0.442528
    65  C   -0.268684
    66  H    0.159721
    67  H    0.154722
    68  C   -0.176772
    69  H    0.188996
    70  H    0.198537
    71  N   -0.601689
    72  H    0.352665
    73  N   -0.820393
    74  H    0.395255
    75  H    0.429269
    76  N   -0.786754
    77  H    0.366555
    78  H    0.407627
    79  C    0.801900
    80  O   -0.561280
    81  H    0.432268
    82  H    0.432006
 Sum of Mulliken charges =   1.00000

 Dipole moment (field-independent basis, Debye):
    X=              7.6372    Y=              6.6452    Z=             12.6926  Tot=             16.2354
 Quadrupole moment (field-independent basis, Debye-Ang):
   XX=           -138.4914   YY=           -205.2972   ZZ=           -163.1725
   XY=            -14.5357   XZ=             49.1387   YZ=             24.1779

 Normal termination of Gaussian 16 at Thu May 26 20:50:27 2022.
