 Gaussian 16, Revision C.01,
 Gaussian 16:  ES64L-G16RevC.01  3-Jul-2019

 ----------------------------------------------------------------------
 # B3LYP/6-31G* empiricaldispersion=gd3 guess=read geom=check nosymm in
 tegral(ultrafinegrid)
 ----------------------------------------------------------------------

 ------------------------------------------------------
 Candidate Structure: Conf:796 Charge calc in gas phase
 ------------------------------------------------------
 Structure from the checkpoint file:  "conf-796.chk"
 Charge =  1 Multiplicity = 1

                          Input orientation:
 ---------------------------------------------------------------------
 Center     Atomic      Atomic             Coordinates (Angstroms)
 Number     Number       Type             X           Y           Z
 ---------------------------------------------------------------------
      1          7           0       -1.671876   -6.183744   -1.546078
      2          1           0       -2.244339   -5.932232   -0.730132
      3          1           0       -2.316878   -6.332655   -2.338293
      4          1           0       -1.084731   -7.016960   -1.368015
      5          6           0       -0.728429   -5.075184   -1.933701
      6          1           0       -0.260828   -4.698117   -1.013404
      7          6           0       -1.583929   -4.022382   -2.609009
      8          6           0        0.317274   -5.732229   -2.858102
      9          1           0       -0.224039   -6.233008   -3.673673
     10          8           0       -2.464045   -4.364171   -3.402518
     11          6           0        1.293568   -4.732954   -3.469021
     12          1           0        0.767183   -3.982888   -4.069029
     13          1           0        1.988058   -5.275124   -4.117055
     14          1           0        1.876592   -4.242786   -2.688154
     15          8           0        0.938460   -6.754000   -2.092793
     16          1           0        1.435539   -6.261147   -1.392976
     17          7           0       -1.284036   -2.757151   -2.260674
     18          1           0       -0.580462   -2.598420   -1.542438
     19          6           0       -2.139127   -1.648949   -2.643798
     20          1           0       -2.574923   -1.902801   -3.612879
     21          6           0       -1.263771   -0.394023   -2.730513
     22          6           0       -3.278539   -1.423600   -1.595859
     23          1           0       -2.832977   -0.929869   -0.726938
     24          1           0       -4.000285   -0.714999   -2.015223
     25          8           0       -0.299295   -0.255292   -1.965525
     26          6           0       -3.924359   -2.716813   -1.154773
     27          6           0       -4.963142   -3.304294   -1.886695
     28          1           0       -5.358262   -2.791227   -2.759784
     29          6           0       -3.420762   -3.401172   -0.039204
     30          1           0       -2.616845   -2.958218    0.542238
     31          6           0       -5.479185   -4.549042   -1.526045
     32          1           0       -6.282938   -4.988889   -2.109384
     33          6           0       -3.939146   -4.646304    0.333747
     34          1           0       -3.566044   -5.140753    1.229033
     35          6           0       -4.966920   -5.228285   -0.416380
     36          1           0       -5.382827   -6.189010   -0.124288
     37          7           0       -1.595199    0.487344   -3.693363
     38          1           0       -2.506168    0.411981   -4.130032
     39          6           0       -0.756371    1.626557   -4.085249
     40          1           0        0.278175    1.294649   -3.938680
     41          6           0       -0.988734    2.849008   -3.165394
     42          6           0       -1.008767    1.982022   -5.544596
     43          1           0       -0.354482    2.803312   -5.845953
     44          1           0       -2.038933    2.324523   -5.682901
     45          1           0       -0.819140    1.117841   -6.187692
     46          8           0       -1.456931    3.904407   -3.577872
     47          7           0       -0.671315    2.597202   -1.868402
     48          1           0       -0.198141    1.715899   -1.679768
     49          6           0       -0.720097    3.582066   -0.814215
     50          1           0       -0.924828    4.539439   -1.304248
     51          6           0        0.690561    3.628581   -0.186530
     52          6           0       -1.844564    3.299038    0.239627
     53          1           0       -2.286724    4.251220    0.548823
     54          1           0       -1.415299    2.835182    1.134970
     55          8           0        1.642261    3.044581   -0.707722
     56          6           0       -2.948569    2.355903   -0.261717
     57          1           0       -2.566926    1.342718   -0.386784
     58          1           0       -3.747259    2.309442    0.490182
     59          6           0       -3.565264    2.742997   -1.589098
     60          8           0       -3.913981    1.958002   -2.449884
     61          8           0       -3.672541    4.078126   -1.717697
     62          7           0        0.819351    4.331193    0.970771
     63          1           0       -0.014435    4.701639    1.408349
     64          6           0        2.008186    4.230479    1.835390
     65          1           0        2.875233    4.285124    1.169962
     66          6           0        1.976088    2.847630    2.542834
     67          6           0        2.019342    5.369264    2.845118
     68          1           0        2.936672    5.333150    3.438795
     69          1           0        1.181374    5.268908    3.542704
     70          1           0        1.965954    6.336715    2.338003
     71          8           0        1.538916    2.695841    3.676481
     72          7           0        2.389532    1.812261    1.746688
     73          1           0        2.489489    2.028496    0.755063
     74          6           0        1.897070    0.465691    2.021517
     75          1           0        2.083678    0.251320    3.077369
     76          6           0        2.694387   -0.503358    1.147504
     77          6           0        0.367878    0.389457    1.744395
     78          1           0       -0.041356    1.316900    2.163151
     79          1           0        0.196295    0.411782    0.660165
     80          8           0        3.536609   -0.103645    0.319170
     81          6           0       -0.426305   -0.776790    2.368543
     82          1           0       -0.197723   -1.701339    1.824181
     83          6           0       -0.126849   -0.955791    3.864478
     84          1           0       -0.226264   -0.001795    4.397221
     85          1           0        0.888929   -1.326016    4.049896
     86          1           0       -0.816020   -1.678676    4.314012
     87          6           0       -1.918999   -0.505933    2.143554
     88          1           0       -2.239207    0.409356    2.657912
     89          1           0       -2.536971   -1.330739    2.512938
     90          1           0       -2.117505   -0.379982    1.075724
     91          7           0        2.453423   -1.810417    1.325359
     92          1           0        1.670504   -2.086467    1.903296
     93          6           0        2.931317   -2.841258    0.403336
     94          1           0        3.136792   -2.339189   -0.550129
     95          6           0        1.771879   -3.847278    0.101557
     96          6           0        4.227472   -3.527512    0.856258
     97          1           0        4.371248   -4.362057    0.165853
     98          1           0        4.095494   -3.975993    1.851372
     99          8           0        0.593355   -3.442060    0.305982
    100          6           0        5.473763   -2.618515    0.824703
    101          1           0        5.416333   -1.939777   -0.033831
    102          1           0        6.366398   -3.241977    0.683027
    103          6           0        5.688007   -1.795566    2.102722
    104          1           0        5.796582   -2.455958    2.968626
    105          1           0        4.849166   -1.136395    2.318525
    106          7           0        6.907329   -0.968220    2.054004
    107          1           0        7.782289   -1.466577    2.160148
    108          7           0        5.965172    0.924314    1.057631
    109          1           0        6.018607    1.921335    0.906233
    110          1           0        5.058698    0.483197    0.815066
    111          7           0        8.210296    0.889634    1.643372
    112          1           0        8.904921    0.586422    2.310641
    113          1           0        8.364142    1.785432    1.205091
    114          6           0        7.002027    0.280656    1.577258
    115          8           0        2.144559   -4.940062   -0.394262
    116          1           0       -3.900643    4.266820   -2.647902
 ---------------------------------------------------------------------

 SCF Done:  E(RB3LYP) =  -2782.49533728     A.U. after    1 cycles

 Alpha  occ. eigenvalues --  -19.25955 -19.21160 -19.20927 -19.20623 -19.20604
 Alpha  occ. eigenvalues --  -19.20453 -19.20236 -19.19227 -19.18194 -19.16291
 Alpha  occ. eigenvalues --  -19.16057 -14.54166 -14.50652 -14.50537 -14.48960
 Alpha  occ. eigenvalues --  -14.44858 -14.44704 -14.44380 -14.44353 -14.42462
 Alpha  occ. eigenvalues --  -14.41936 -10.46672 -10.38901 -10.37829 -10.37465
 Alpha  occ. eigenvalues --  -10.37450 -10.37247 -10.35910 -10.35192 -10.34291
 Alpha  occ. eigenvalues --  -10.33611 -10.32200 -10.32111 -10.31885 -10.31479
 Alpha  occ. eigenvalues --  -10.31186 -10.31033 -10.30709 -10.29319 -10.27865
 Alpha  occ. eigenvalues --  -10.27646 -10.27457 -10.27436 -10.27207 -10.27175
 Alpha  occ. eigenvalues --  -10.27073 -10.26826 -10.26630 -10.26552 -10.26071
 Alpha  occ. eigenvalues --  -10.26013 -10.25895 -10.25557 -10.24672 -10.24489
 Alpha  occ. eigenvalues --  -10.24264 -10.24251  -1.17002  -1.15004  -1.13089
 Alpha  occ. eigenvalues --   -1.12845  -1.12371  -1.12141  -1.10799  -1.09943
 Alpha  occ. eigenvalues --   -1.09857  -1.09196  -1.07980  -1.07213  -1.04403
 Alpha  occ. eigenvalues --   -1.02863  -1.01366  -1.01168  -1.01026  -1.00975
 Alpha  occ. eigenvalues --   -1.00085  -0.99563  -0.99195  -0.93400  -0.89106
 Alpha  occ. eigenvalues --   -0.88392  -0.88060  -0.87531  -0.85376  -0.85248
 Alpha  occ. eigenvalues --   -0.84518  -0.83853  -0.82207  -0.81474  -0.81264
 Alpha  occ. eigenvalues --   -0.80156  -0.78305  -0.78040  -0.75531  -0.75130
 Alpha  occ. eigenvalues --   -0.74298  -0.74009  -0.73161  -0.72300  -0.71948
 Alpha  occ. eigenvalues --   -0.71145  -0.70245  -0.69312  -0.68439  -0.68242
 Alpha  occ. eigenvalues --   -0.68197  -0.67782  -0.67519  -0.66826  -0.66594
 Alpha  occ. eigenvalues --   -0.66414  -0.65989  -0.65479  -0.65082  -0.64704
 Alpha  occ. eigenvalues --   -0.64001  -0.63815  -0.62791  -0.62661  -0.61847
 Alpha  occ. eigenvalues --   -0.60395  -0.59446  -0.58865  -0.58621  -0.57954
 Alpha  occ. eigenvalues --   -0.57687  -0.56847  -0.56791  -0.56635  -0.56172
 Alpha  occ. eigenvalues --   -0.55883  -0.55603  -0.55514  -0.55204  -0.55066
 Alpha  occ. eigenvalues --   -0.54831  -0.54453  -0.53849  -0.53537  -0.53421
 Alpha  occ. eigenvalues --   -0.53089  -0.52610  -0.52450  -0.52250  -0.51825
 Alpha  occ. eigenvalues --   -0.51683  -0.51142  -0.51053  -0.50687  -0.50292
 Alpha  occ. eigenvalues --   -0.49960  -0.49720  -0.49391  -0.49309  -0.49029
 Alpha  occ. eigenvalues --   -0.48775  -0.48602  -0.48440  -0.48250  -0.48066
 Alpha  occ. eigenvalues --   -0.47983  -0.47454  -0.47231  -0.46487  -0.46473
 Alpha  occ. eigenvalues --   -0.46399  -0.46150  -0.45644  -0.45455  -0.45392
 Alpha  occ. eigenvalues --   -0.45339  -0.45175  -0.44918  -0.44812  -0.44759
 Alpha  occ. eigenvalues --   -0.44594  -0.44467  -0.44259  -0.44127  -0.43844
 Alpha  occ. eigenvalues --   -0.43501  -0.43184  -0.43116  -0.42869  -0.42808
 Alpha  occ. eigenvalues --   -0.42673  -0.41869  -0.41723  -0.41615  -0.41444
 Alpha  occ. eigenvalues --   -0.41242  -0.40537  -0.39794  -0.39718  -0.39229
 Alpha  occ. eigenvalues --   -0.38664  -0.38473  -0.36176  -0.35870  -0.35682
 Alpha  occ. eigenvalues --   -0.34971  -0.34906  -0.34794  -0.34266  -0.34118
 Alpha  occ. eigenvalues --   -0.33961  -0.33770  -0.32994  -0.32620  -0.32206
 Alpha  occ. eigenvalues --   -0.31919  -0.31890  -0.31418  -0.30780  -0.30465
 Alpha  occ. eigenvalues --   -0.30040
 Alpha virt. eigenvalues --   -0.10638  -0.09106  -0.08364  -0.07703  -0.07271
 Alpha virt. eigenvalues --   -0.07204  -0.06824  -0.06474  -0.05901  -0.05131
 Alpha virt. eigenvalues --   -0.04435  -0.03124  -0.03000  -0.02456  -0.02011

 Mulliken charges:
               1
     1  N   -0.742279
     2  H    0.406421
     3  H    0.405124
     4  H    0.407709
     5  C   -0.188096
     6  H    0.258310
     7  C    0.655188
     8  C    0.141671
     9  H    0.147354
    10  O   -0.551695
    11  C   -0.483016
    12  H    0.155504
    13  H    0.175085
    14  H    0.180573
    15  O   -0.664222
    16  H    0.442960
    17  N   -0.619762
    18  H    0.380510
    19  C   -0.051175
    20  H    0.187934
    21  C    0.639620
    22  C   -0.400733
    23  H    0.173763
    24  H    0.189649
    25  O   -0.559347
    26  C    0.171627
    27  C   -0.138889
    28  H    0.144363
    29  C   -0.196112
    30  H    0.165901
    31  C   -0.127413
    32  H    0.152334
    33  C   -0.208867
    34  H    0.147996
    35  C   -0.143960
    36  H    0.147827
    37  N   -0.581368
    38  H    0.355127
    39  C   -0.078423
    40  H    0.190236
    41  C    0.635620
    42  C   -0.461538
    43  H    0.183347
    44  H    0.171967
    45  H    0.156571
    46  O   -0.534811
    47  N   -0.627593
    48  H    0.383574
    49  C   -0.043386
    50  H    0.217421
    51  C    0.607516
    52  C   -0.317135
    53  H    0.172447
    54  H    0.156189
    55  O   -0.532991
    56  C   -0.355608
    57  H    0.180105
    58  H    0.186405
    59  C    0.613464
    60  O   -0.498913
    61  O   -0.551400
    62  N   -0.595975
    63  H    0.343184
    64  C   -0.051393
    65  H    0.165700
    66  C    0.603060
    67  C   -0.467082
    68  H    0.168050
    69  H    0.178624
    70  H    0.165154
    71  O   -0.517287
    72  N   -0.627115
    73  H    0.375814
    74  C   -0.077441
    75  H    0.191021
    76  C    0.620458
    77  C   -0.303668
    78  H    0.165328
    79  H    0.168186
    80  O   -0.586599
    81  C   -0.123801
    82  H    0.177762
    83  C   -0.460819
    84  H    0.170031
    85  H    0.130351
    86  H    0.153859
    87  C   -0.473041
    88  H    0.146390
    89  H    0.152875
    90  H    0.154755
    91  N   -0.583552
    92  H    0.361766
    93  C   -0.065748
    94  H    0.187341
    95  C    0.608207
    96  C   -0.263238
    97  H    0.191135
    98  H    0.136707
    99  O   -0.600100
   100  C   -0.270350
   101  H    0.166320
   102  H    0.141977
   103  C   -0.173891
   104  H    0.182125
   105  H    0.186615
   106  N   -0.595863
   107  H    0.357100
   108  N   -0.790761
   109  H    0.364345
   110  H    0.459358
   111  N   -0.769766
   112  H    0.375662
   113  H    0.375728
   114  C    0.810715
   115  O   -0.595342
   116  H    0.428453
 Sum of Mulliken charges =   1.00000

 Dipole moment (field-independent basis, Debye):
    X=             14.2907    Y=             -3.8479    Z=              3.4755  Tot=             15.2023
 Quadrupole moment (field-independent basis, Debye-Ang):
   XX=           -132.2097   YY=           -262.2466   ZZ=           -315.7485
   XY=             40.9804   XZ=             53.9409   YZ=             10.0396

 Normal termination of Gaussian 16 at Sat Jun 25 10:10:21 2022.
