 Gaussian 16, Revision C.01,
 Gaussian 16:  ES64L-G16RevC.01  3-Jul-2019

 ----------------------------------------------------------------------
 # B3LYP/6-31G* empiricaldispersion=gd3 guess=read geom=check nosymm in
 tegral(ultrafinegrid)
 ----------------------------------------------------------------------

 ------------------------------------------------------
 Candidate Structure: Conf:472 Charge calc in gas phase
 ------------------------------------------------------
 Structure from the checkpoint file:  "conf-472.chk"
 Charge =  1 Multiplicity = 1

                          Input orientation:
 ---------------------------------------------------------------------
 Center     Atomic      Atomic             Coordinates (Angstroms)
 Number     Number       Type             X           Y           Z
 ---------------------------------------------------------------------
      1          7           0       -5.513256   -2.285343   -8.621817
      2          1           0       -5.212491   -3.168907   -8.173100
      3          1           0       -6.386571   -1.995946   -8.141575
      4          1           0       -5.645373   -2.390279   -9.636792
      5          6           0       -4.530769   -1.173712   -8.362383
      6          1           0       -3.526977   -1.585528   -8.487375
      7          6           0       -4.845914   -0.757957   -6.913722
      8          6           0       -4.786477   -0.060545   -9.388430
      9          1           0       -5.763879    0.392997   -9.160221
     10          8           0       -6.025413   -0.821264   -6.556657
     11          6           0       -3.690477    0.998533   -9.344697
     12          1           0       -3.636107    1.469802   -8.357528
     13          1           0       -3.897890    1.785630  -10.076639
     14          1           0       -2.719356    0.553445   -9.585158
     15          8           0       -4.838725   -0.756332  -10.636983
     16          1           0       -5.051342   -0.131010  -11.347725
     17          7           0       -3.810957   -0.424257   -6.140770
     18          1           0       -2.866764   -0.304510   -6.500521
     19          6           0       -3.902973   -0.370802   -4.689929
     20          1           0       -4.898573   -0.012469   -4.419428
     21          6           0       -2.785727    0.576524   -4.221025
     22          6           0       -3.644705   -1.789791   -4.072038
     23          1           0       -2.561714   -1.956179   -4.058869
     24          1           0       -3.978691   -1.770254   -3.029157
     25          8           0       -1.815235    0.779184   -4.955111
     26          6           0       -4.314086   -2.908748   -4.839820
     27          6           0       -5.660648   -3.236959   -4.629906
     28          1           0       -6.225798   -2.708460   -3.867016
     29          6           0       -3.607193   -3.597015   -5.835859
     30          1           0       -2.554971   -3.372878   -5.995495
     31          6           0       -6.288332   -4.218772   -5.395896
     32          1           0       -7.330312   -4.462649   -5.210696
     33          6           0       -4.227120   -4.589237   -6.607134
     34          1           0       -3.647130   -5.146701   -7.339209
     35          6           0       -5.575674   -4.900475   -6.389175
     36          1           0       -6.055336   -5.688900   -6.963268
     37          7           0       -2.925125    1.057704   -2.978634
     38          1           0       -3.710407    0.804486   -2.381216
     39          6           0       -1.858163    1.746981   -2.264777
     40          1           0       -0.904827    1.284492   -2.545615
     41          6           0       -2.143863    1.498404   -0.770062
     42          6           0       -1.810907    3.245613   -2.598276
     43          1           0       -0.996062    3.736032   -2.056250
     44          1           0       -2.753766    3.727740   -2.320859
     45          1           0       -1.644438    3.373592   -3.671388
     46          8           0       -3.253919    1.104058   -0.400594
     47          7           0       -1.121288    1.759079    0.060441
     48          1           0       -0.199433    2.014279   -0.283519
     49          6           0       -1.165599    1.494454    1.492665
     50          1           0       -2.081967    1.931311    1.906527
     51          6           0        0.081393    2.178152    2.074864
     52          6           0       -1.156513   -0.032470    1.749917
     53          1           0       -0.234148   -0.450899    1.336523
     54          1           0       -1.985506   -0.454236    1.175747
     55          8           0        1.064413    2.389802    1.365515
     56          6           0       -1.298155   -0.443795    3.215640
     57          1           0       -0.416378   -0.175933    3.812068
     58          1           0       -2.164933    0.037326    3.690651
     59          6           0       -1.475108   -1.939544    3.345657
     60          8           0       -1.407356   -2.742093    2.438556
     61          8           0       -1.711275   -2.297370    4.628261
     62          7           0        0.037731    2.500286    3.393974
     63          1           0       -0.720911    2.115367    3.942919
     64          6           0        1.283381    2.759239    4.127778
     65          1           0        1.841985    3.503413    3.554122
     66          6           0        2.059878    1.426519    4.210177
     67          6           0        0.960717    3.274961    5.528269
     68          1           0        1.885159    3.521609    6.059501
     69          1           0        0.442853    2.497304    6.100074
     70          1           0        0.334298    4.171307    5.479676
     71          8           0        1.505456    0.436149    4.698487
     72          7           0        3.299582    1.435148    3.699973
     73          1           0        3.727634    2.293697    3.370130
     74          6           0        4.155394    0.264602    3.585668
     75          1           0        3.880739   -0.438655    4.375991
     76          6           0        5.609735    0.743291    3.764690
     77          6           0        4.021794   -0.403396    2.194107
     78          1           0        4.338740    0.339212    1.448762
     79          1           0        4.741497   -1.230954    2.139061
     80          8           0        5.896547    1.944186    3.635365
     81          6           0        2.618178   -0.920262    1.834351
     82          1           0        1.915290   -0.090951    1.977889
     83          6           0        2.571633   -1.308494    0.349065
     84          1           0        3.282446   -2.115980    0.131760
     85          1           0        2.822871   -0.455834   -0.293889
     86          1           0        1.572033   -1.664858    0.069167
     87          6           0        2.181755   -2.094614    2.720789
     88          1           0        2.900393   -2.921458    2.649809
     89          1           0        1.203946   -2.476053    2.404667
     90          1           0        2.098010   -1.790713    3.767880
     91          7           0        6.488491   -0.234832    4.005904
     92          1           0        6.248525   -1.236823    3.964134
     93          6           0        7.930519   -0.117459    3.868779
     94          1           0        8.164415    0.391005    2.922376
     95          6           0        8.491995   -1.605396    3.804855
     96          6           0        8.550001    0.689791    5.018706
     97          1           0        8.488364    0.097778    5.942812
     98          1           0        7.928406    1.590644    5.156280
     99          8           0        9.736936   -1.711834    3.854434
    100          6           0       10.012187    1.051342    4.723666
    101          1           0       10.067554    1.796817    3.918864
    102          1           0       10.493550    0.130051    4.372162
    103          6           0       10.755807    1.564152    5.949079
    104          1           0       11.775033    1.880322    5.696683
    105          1           0       10.801298    0.778482    6.714770
    106          7           0       10.040202    2.734568    6.515237
    107          1           0        9.082472    2.843737    6.196324
    108          7           0       11.632453    3.274555    8.111800
    109          1           0       12.141106    4.010343    8.580156
    110          1           0       12.125558    2.410599    7.937939
    111          7           0        9.828429    4.684394    7.766960
    112          1           0        8.990408    4.930749    7.258562
    113          1           0        9.923536    5.081494    8.691252
    114          6           0       10.489721    3.545399    7.454596
    115          8           0        7.602969   -2.487846    3.718859
    116          1           0       -1.771867   -3.271187    4.637709
 ---------------------------------------------------------------------

 SCF Done:  E(RB3LYP) =  -2782.39360093     A.U. after    3 cycles

 Alpha  occ. eigenvalues --  -19.28906 -19.24868 -19.23152 -19.20564 -19.18644
 Alpha  occ. eigenvalues --  -19.18038 -19.17654 -19.14927 -19.12981 -19.05705
 Alpha  occ. eigenvalues --  -19.05128 -14.57964 -14.49772 -14.49652 -14.48929
 Alpha  occ. eigenvalues --  -14.48379 -14.44223 -14.42422 -14.41976 -14.39287
 Alpha  occ. eigenvalues --  -14.35243 -10.45694 -10.42220 -10.39070 -10.38467
 Alpha  occ. eigenvalues --  -10.37784 -10.35871 -10.35671 -10.34846 -10.34029
 Alpha  occ. eigenvalues --  -10.32201 -10.30997 -10.30854 -10.30071 -10.30004
 Alpha  occ. eigenvalues --  -10.29856 -10.29757 -10.29677 -10.29572 -10.29570
 Alpha  occ. eigenvalues --  -10.29566 -10.29189 -10.29052 -10.28371 -10.25268
 Alpha  occ. eigenvalues --  -10.25061 -10.24017 -10.23974 -10.23904 -10.23487
 Alpha  occ. eigenvalues --  -10.22206 -10.21513 -10.21350 -10.20715 -10.20573
 Alpha  occ. eigenvalues --  -10.19646 -10.18209  -1.17896  -1.16194  -1.14250
 Alpha  occ. eigenvalues --   -1.14091  -1.12669  -1.11888  -1.10680  -1.09804
 Alpha  occ. eigenvalues --   -1.06825  -1.05108  -1.05052  -1.04327  -1.03156
 Alpha  occ. eigenvalues --   -1.02659  -1.00911  -0.99120  -0.98959  -0.98282
 Alpha  occ. eigenvalues --   -0.96019  -0.95633  -0.92523  -0.92439  -0.90138
 Alpha  occ. eigenvalues --   -0.89276  -0.86375  -0.85541  -0.85254  -0.84757
 Alpha  occ. eigenvalues --   -0.83979  -0.83177  -0.82261  -0.81965  -0.78921
 Alpha  occ. eigenvalues --   -0.78257  -0.77347  -0.76992  -0.75800  -0.75448
 Alpha  occ. eigenvalues --   -0.73093  -0.72732  -0.71939  -0.71202  -0.70978
 Alpha  occ. eigenvalues --   -0.70527  -0.70009  -0.69893  -0.69846  -0.69644
 Alpha  occ. eigenvalues --   -0.68553  -0.68105  -0.67405  -0.66069  -0.65728
 Alpha  occ. eigenvalues --   -0.65087  -0.64303  -0.63979  -0.63005  -0.62882
 Alpha  occ. eigenvalues --   -0.62495  -0.62389  -0.62334  -0.61416  -0.61217
 Alpha  occ. eigenvalues --   -0.60131  -0.58980  -0.58540  -0.58184  -0.58093
 Alpha  occ. eigenvalues --   -0.57665  -0.57291  -0.56256  -0.56183  -0.55576
 Alpha  occ. eigenvalues --   -0.55452  -0.54966  -0.54497  -0.54202  -0.53946
 Alpha  occ. eigenvalues --   -0.53657  -0.53313  -0.52892  -0.52374  -0.52145
 Alpha  occ. eigenvalues --   -0.51997  -0.51842  -0.51628  -0.51298  -0.51163
 Alpha  occ. eigenvalues --   -0.50970  -0.50439  -0.50206  -0.49936  -0.49603
 Alpha  occ. eigenvalues --   -0.49336  -0.49010  -0.48614  -0.48119  -0.47994
 Alpha  occ. eigenvalues --   -0.47466  -0.47216  -0.46977  -0.46693  -0.46281
 Alpha  occ. eigenvalues --   -0.46230  -0.46180  -0.46047  -0.45320  -0.45281
 Alpha  occ. eigenvalues --   -0.44998  -0.44691  -0.44210  -0.44122  -0.43994
 Alpha  occ. eigenvalues --   -0.43910  -0.43556  -0.43472  -0.43019  -0.42647
 Alpha  occ. eigenvalues --   -0.41864  -0.41616  -0.41473  -0.41342  -0.41295
 Alpha  occ. eigenvalues --   -0.40973  -0.40561  -0.40257  -0.39983  -0.39689
 Alpha  occ. eigenvalues --   -0.39580  -0.39269  -0.38933  -0.38747  -0.38288
 Alpha  occ. eigenvalues --   -0.38014  -0.37606  -0.36910  -0.36669  -0.35574
 Alpha  occ. eigenvalues --   -0.35381  -0.35369  -0.35227  -0.34486  -0.34357
 Alpha  occ. eigenvalues --   -0.34247  -0.34144  -0.34098  -0.33312  -0.33124
 Alpha  occ. eigenvalues --   -0.32535  -0.31813  -0.31351  -0.31278  -0.29064
 Alpha  occ. eigenvalues --   -0.28232  -0.26867  -0.26123  -0.21050  -0.20557
 Alpha  occ. eigenvalues --   -0.19431
 Alpha virt. eigenvalues --   -0.12360  -0.11103  -0.10795  -0.09944  -0.06783
 Alpha virt. eigenvalues --   -0.06226  -0.05911  -0.04738  -0.04292  -0.03791
 Alpha virt. eigenvalues --   -0.03495  -0.02564  -0.01964  -0.01329  -0.01303

 Mulliken charges:
               1
     1  N   -0.751657
     2  H    0.410638
     3  H    0.416856
     4  H    0.421202
     5  C   -0.118584
     6  H    0.205720
     7  C    0.657045
     8  C    0.132543
     9  H    0.168371
    10  O   -0.534262
    11  C   -0.483460
    12  H    0.186127
    13  H    0.183100
    14  H    0.180811
    15  O   -0.647763
    16  H    0.429273
    17  N   -0.599751
    18  H    0.362805
    19  C   -0.065973
    20  H    0.198788
    21  C    0.631825
    22  C   -0.372023
    23  H    0.182662
    24  H    0.189372
    25  O   -0.545684
    26  C    0.166590
    27  C   -0.143668
    28  H    0.157203
    29  C   -0.191772
    30  H    0.149466
    31  C   -0.129658
    32  H    0.163263
    33  C   -0.200411
    34  H    0.160060
    35  C   -0.163272
    36  H    0.160198
    37  N   -0.610985
    38  H    0.360888
    39  C   -0.050808
    40  H    0.184729
    41  C    0.629132
    42  C   -0.444903
    43  H    0.166743
    44  H    0.165057
    45  H    0.180226
    46  O   -0.549241
    47  N   -0.624767
    48  H    0.360133
    49  C   -0.048371
    50  H    0.171185
    51  C    0.627858
    52  C   -0.275079
    53  H    0.184958
    54  H    0.185260
    55  O   -0.537577
    56  C   -0.422389
    57  H    0.246411
    58  H    0.161298
    59  C    0.602659
    60  O   -0.471768
    61  O   -0.563830
    62  N   -0.591103
    63  H    0.340906
    64  C   -0.046418
    65  H    0.168180
    66  C    0.632728
    67  C   -0.475418
    68  H    0.166067
    69  H    0.175465
    70  H    0.161657
    71  O   -0.549486
    72  N   -0.577857
    73  H    0.346490
    74  C   -0.078623
    75  H    0.182693
    76  C    0.614470
    77  C   -0.258833
    78  H    0.136852
    79  H    0.165356
    80  O   -0.588053
    81  C   -0.076747
    82  H    0.133820
    83  C   -0.452414
    84  H    0.148630
    85  H    0.134031
    86  H    0.134006
    87  C   -0.487628
    88  H    0.142818
    89  H    0.149535
    90  H    0.173228
    91  N   -0.618695
    92  H    0.360263
    93  C   -0.054903
    94  H    0.141917
    95  C    0.581013
    96  C   -0.284154
    97  H    0.140176
    98  H    0.125818
    99  O   -0.590486
   100  C   -0.320556
   101  H    0.141465
   102  H    0.245624
   103  C   -0.167825
   104  H    0.171198
   105  H    0.187826
   106  N   -0.588192
   107  H    0.370636
   108  N   -0.755758
   109  H    0.378749
   110  H    0.394639
   111  N   -0.760845
   112  H    0.381388
   113  H    0.375911
   114  C    0.810709
   115  O   -0.595766
   116  H    0.412695
 Sum of Mulliken charges =   1.00000

 Dipole moment (field-independent basis, Debye):
    X=             -6.5883    Y=             13.5773    Z=            -14.1776  Tot=             20.7063
 Quadrupole moment (field-independent basis, Debye-Ang):
   XX=            -37.2453   YY=           -266.1610   ZZ=            148.8066
   XY=            222.0512   XZ=            370.6837   YZ=            183.6311

 Normal termination of Gaussian 16 at Sat Jun 25 10:10:45 2022.
