 Gaussian 16, Revision C.01,
 Gaussian 16:  ES64L-G16RevC.01  3-Jul-2019

 ----------------------------------------------------------------------
 # B3LYP/6-31G* empiricaldispersion=gd3 guess=read geom=check nosymm in
 tegral(ultrafinegrid)
 ----------------------------------------------------------------------

 ------------------------------------------------------
 Candidate Structure: Conf:197 Charge calc in gas phase
 ------------------------------------------------------
 Structure from the checkpoint file:  "conf-197.chk"
 Charge =  1 Multiplicity = 1

                          Input orientation:
 ---------------------------------------------------------------------
 Center     Atomic      Atomic             Coordinates (Angstroms)
 Number     Number       Type             X           Y           Z
 ---------------------------------------------------------------------
      1          7           0       -7.165326   -5.181499   -7.194325
      2          1           0       -7.900851   -5.498336   -6.557051
      3          1           0       -7.442965   -4.247375   -7.577614
      4          1           0       -7.002801   -5.890825   -7.930619
      5          6           0       -5.849661   -4.922606   -6.511239
      6          1           0       -5.774652   -5.567372   -5.631875
      7          6           0       -5.879395   -3.416485   -6.175686
      8          6           0       -4.732483   -5.259983   -7.549323
      9          1           0       -4.729828   -4.459289   -8.298585
     10          8           0       -6.657897   -2.701813   -6.818077
     11          6           0       -3.355747   -5.392446   -6.912944
     12          1           0       -3.024113   -4.460815   -6.444226
     13          1           0       -2.629116   -5.658045   -7.685872
     14          1           0       -3.353095   -6.179480   -6.147162
     15          8           0       -5.137133   -6.433419   -8.257546
     16          1           0       -4.724659   -7.215071   -7.853679
     17          7           0       -5.013747   -3.007791   -5.253602
     18          1           0       -4.325252   -3.646344   -4.857569
     19          6           0       -4.677799   -1.605619   -5.018522
     20          1           0       -4.760894   -1.076354   -5.975225
     21          6           0       -3.191883   -1.636023   -4.591777
     22          6           0       -5.632239   -0.928446   -4.002733
     23          1           0       -5.436953    0.150074   -4.017049
     24          1           0       -6.646778   -1.055811   -4.397899
     25          8           0       -2.564091   -2.701335   -4.605427
     26          6           0       -5.526360   -1.460349   -2.589975
     27          6           0       -6.076410   -2.705727   -2.252945
     28          1           0       -6.610352   -3.276493   -3.009051
     29          6           0       -4.880538   -0.717198   -1.592517
     30          1           0       -4.454793    0.256062   -1.820957
     31          6           0       -5.968172   -3.207634   -0.956123
     32          1           0       -6.403685   -4.172287   -0.709602
     33          6           0       -4.788150   -1.210349   -0.289462
     34          1           0       -4.320418   -0.599416    0.475562
     35          6           0       -5.321834   -2.459435    0.030294
     36          1           0       -5.251077   -2.841416    1.044752
     37          7           0       -2.654876   -0.457847   -4.245152
     38          1           0       -3.237134    0.355064   -4.066059
     39          6           0       -1.308256   -0.350030   -3.700174
     40          1           0       -1.076597   -1.290413   -3.187594
     41          6           0       -1.352305    0.787213   -2.664496
     42          6           0       -0.267556   -0.103669   -4.804457
     43          1           0        0.745911   -0.045347   -4.394696
     44          1           0       -0.480996    0.831136   -5.332405
     45          1           0       -0.299679   -0.930295   -5.519493
     46          8           0       -2.359545    1.488248   -2.527536
     47          7           0       -0.232829    0.935106   -1.929288
     48          1           0        0.611492    0.417620   -2.152617
     49          6           0       -0.042569    2.025514   -0.986821
     50          1           0       -0.692584    2.854022   -1.279648
     51          6           0        1.429656    2.440684   -1.066364
     52          6           0       -0.385332    1.599557    0.461022
     53          1           0       -0.143077    2.422035    1.141477
     54          1           0        0.245990    0.749787    0.737782
     55          8           0        2.271645    1.697136   -1.583189
     56          6           0       -1.856057    1.224551    0.633841
     57          1           0       -2.151144    0.414054   -0.038636
     58          1           0       -2.034261    0.857966    1.653136
     59          6           0       -2.773634    2.406124    0.404885
     60          8           0       -2.418783    3.561949    0.309930
     61          8           0       -4.068925    2.024507    0.348069
     62          7           0        1.736298    3.622720   -0.489533
     63          1           0        0.999093    4.161078   -0.050160
     64          6           0        3.119730    4.100604   -0.341294
     65          1           0        3.650746    3.800194   -1.250276
     66          6           0        3.772617    3.387742    0.867994
     67          6           0        3.142553    5.615414   -0.185406
     68          1           0        4.174874    5.970413   -0.130637
     69          1           0        2.643100    5.918024    0.739909
     70          1           0        2.654071    6.092182   -1.040168
     71          8           0        3.971354    3.998025    1.935282
     72          7           0        4.035429    2.092500    0.676203
     73          1           0        3.854914    1.712701   -0.248281
     74          6           0        4.607108    1.208488    1.679067
     75          1           0        4.131101    1.433996    2.638859
     76          6           0        6.131090    1.421230    1.828878
     77          6           0        4.351267   -0.263752    1.295681
     78          1           0        4.853519   -0.452480    0.335767
     79          1           0        4.853195   -0.897652    2.038437
     80          8           0        6.790931    2.002993    0.961456
     81          6           0        2.870008   -0.672786    1.190562
     82          1           0        2.397203   -0.073273    0.398317
     83          6           0        2.779432   -2.149194    0.777933
     84          1           0        3.237210   -2.792497    1.538630
     85          1           0        3.301256   -2.330399   -0.169217
     86          1           0        1.734830   -2.461792    0.655567
     87          6           0        2.116308   -0.430467    2.506332
     88          1           0        2.622825   -0.936078    3.337446
     89          1           0        1.092840   -0.822280    2.452005
     90          1           0        2.045793    0.636381    2.751100
     91          7           0        6.616884    0.880806    2.967663
     92          1           0        5.972514    0.237133    3.480112
     93          6           0        7.889260    0.136470    3.012900
     94          1           0        8.243163   -0.010976    1.986176
     95          6           0        7.515538   -1.279676    3.637534
     96          6           0        9.006559    0.804415    3.817675
     97          1           0        9.847974    0.107725    3.791028
     98          1           0        8.709261    0.854966    4.876354
     99          8           0        8.466391   -2.054099    3.785443
    100          6           0        9.412232    2.200969    3.291462
    101          1           0        8.966109    2.352091    2.300991
    102          1           0       10.498330    2.269401    3.151229
    103          6           0        9.026100    3.354318    4.231352
    104          1           0        9.219807    4.331531    3.777608
    105          1           0        9.616456    3.302808    5.151037
    106          7           0        7.618888    3.341615    4.666567
    107          1           0        7.390449    2.657499    5.375981
    108          7           0        6.797356    4.327644    2.715476
    109          1           0        5.938967    4.551326    2.216470
    110          1           0        7.466525    3.852497    2.116328
    111          7           0        5.339417    3.726901    4.405853
    112          1           0        5.161098    3.364305    5.330687
    113          1           0        4.579615    3.740913    3.723249
    114          6           0        6.591221    3.759817    3.922132
    115          8           0        6.280381   -1.414621    3.917691
    116          1           0       -4.599064    2.832162    0.209150
 ---------------------------------------------------------------------

 SCF Done:  E(RB3LYP) =  -2782.43310800     A.U. after    2 cycles

 Alpha  occ. eigenvalues --  -19.31014 -19.27187 -19.27058 -19.22963 -19.21642
 Alpha  occ. eigenvalues --  -19.21613 -19.21519 -19.20401 -19.15763 -19.07595
 Alpha  occ. eigenvalues --  -19.06198 -14.60328 -14.49934 -14.46265 -14.45832
 Alpha  occ. eigenvalues --  -14.45364 -14.45037 -14.44397 -14.43268 -14.43197
 Alpha  occ. eigenvalues --  -14.36749 -10.44060 -10.41122 -10.40748 -10.40324
 Alpha  occ. eigenvalues --  -10.39937 -10.39708 -10.38577 -10.38398 -10.36860
 Alpha  occ. eigenvalues --  -10.35388 -10.33136 -10.32240 -10.32183 -10.31905
 Alpha  occ. eigenvalues --  -10.31517 -10.29750 -10.29005 -10.28568 -10.28170
 Alpha  occ. eigenvalues --  -10.28073 -10.27946 -10.27351 -10.27310 -10.27031
 Alpha  occ. eigenvalues --  -10.26671 -10.26568 -10.26473 -10.25838 -10.25164
 Alpha  occ. eigenvalues --  -10.24226 -10.23126 -10.22922 -10.22707 -10.22413
 Alpha  occ. eigenvalues --  -10.22045 -10.20851  -1.19932  -1.18231  -1.17976
 Alpha  occ. eigenvalues --   -1.14967  -1.14037  -1.13760  -1.13034  -1.11516
 Alpha  occ. eigenvalues --   -1.09490  -1.09046  -1.06918  -1.06764  -1.03072
 Alpha  occ. eigenvalues --   -1.02202  -1.01946  -1.00375  -0.99822  -0.99089
 Alpha  occ. eigenvalues --   -0.97188  -0.94398  -0.94352  -0.93427  -0.91421
 Alpha  occ. eigenvalues --   -0.90023  -0.89167  -0.86650  -0.86259  -0.85716
 Alpha  occ. eigenvalues --   -0.85425  -0.83615  -0.82763  -0.82313  -0.81360
 Alpha  occ. eigenvalues --   -0.80634  -0.78480  -0.77077  -0.76677  -0.75542
 Alpha  occ. eigenvalues --   -0.74815  -0.74101  -0.73477  -0.73086  -0.72828
 Alpha  occ. eigenvalues --   -0.72277  -0.71690  -0.70406  -0.69883  -0.68778
 Alpha  occ. eigenvalues --   -0.68465  -0.68072  -0.67443  -0.67389  -0.66748
 Alpha  occ. eigenvalues --   -0.66629  -0.66192  -0.66086  -0.65365  -0.63963
 Alpha  occ. eigenvalues --   -0.63787  -0.62690  -0.62070  -0.61465  -0.60569
 Alpha  occ. eigenvalues --   -0.60293  -0.59229  -0.58998  -0.58980  -0.58941
 Alpha  occ. eigenvalues --   -0.58617  -0.58165  -0.57800  -0.57458  -0.57296
 Alpha  occ. eigenvalues --   -0.56746  -0.56310  -0.55917  -0.55733  -0.55625
 Alpha  occ. eigenvalues --   -0.55071  -0.54807  -0.54666  -0.54383  -0.53994
 Alpha  occ. eigenvalues --   -0.53860  -0.53178  -0.52718  -0.52534  -0.52074
 Alpha  occ. eigenvalues --   -0.51936  -0.51506  -0.51377  -0.51169  -0.51093
 Alpha  occ. eigenvalues --   -0.50357  -0.50260  -0.50054  -0.49513  -0.49386
 Alpha  occ. eigenvalues --   -0.49185  -0.49044  -0.48588  -0.48443  -0.48310
 Alpha  occ. eigenvalues --   -0.48199  -0.48147  -0.47692  -0.47316  -0.46944
 Alpha  occ. eigenvalues --   -0.46843  -0.46654  -0.46398  -0.46296  -0.45966
 Alpha  occ. eigenvalues --   -0.45686  -0.45362  -0.44901  -0.44590  -0.44395
 Alpha  occ. eigenvalues --   -0.44346  -0.44052  -0.43938  -0.43839  -0.43521
 Alpha  occ. eigenvalues --   -0.42994  -0.42333  -0.42268  -0.42049  -0.41971
 Alpha  occ. eigenvalues --   -0.41400  -0.41208  -0.40525  -0.39617  -0.39315
 Alpha  occ. eigenvalues --   -0.39240  -0.37993  -0.37772  -0.37708  -0.37501
 Alpha  occ. eigenvalues --   -0.37161  -0.36987  -0.36660  -0.36465  -0.36081
 Alpha  occ. eigenvalues --   -0.36026  -0.35862  -0.35551  -0.34935  -0.34603
 Alpha  occ. eigenvalues --   -0.34553  -0.33769  -0.33533  -0.32883  -0.32787
 Alpha  occ. eigenvalues --   -0.32524  -0.29657  -0.28614  -0.22582  -0.22457
 Alpha  occ. eigenvalues --   -0.20186
 Alpha virt. eigenvalues --   -0.13197  -0.10905  -0.08877  -0.08335  -0.08061
 Alpha virt. eigenvalues --   -0.08016  -0.07410  -0.06339  -0.06328  -0.05965
 Alpha virt. eigenvalues --   -0.05566  -0.05434  -0.03468  -0.02508  -0.02061

 Mulliken charges:
               1
     1  N   -0.743945
     2  H    0.416344
     3  H    0.426515
     4  H    0.427927
     5  C   -0.143785
     6  H    0.204318
     7  C    0.640491
     8  C    0.128689
     9  H    0.193006
    10  O   -0.531381
    11  C   -0.518538
    12  H    0.213646
    13  H    0.206860
    14  H    0.163752
    15  O   -0.629056
    16  H    0.425253
    17  N   -0.586708
    18  H    0.373550
    19  C   -0.065878
    20  H    0.203523
    21  C    0.630892
    22  C   -0.381616
    23  H    0.169496
    24  H    0.185165
    25  O   -0.547280
    26  C    0.166764
    27  C   -0.175610
    28  H    0.094893
    29  C   -0.211497
    30  H    0.165140
    31  C   -0.125753
    32  H    0.136175
    33  C   -0.138288
    34  H    0.155284
    35  C   -0.127570
    36  H    0.147167
    37  N   -0.605802
    38  H    0.364513
    39  C   -0.061563
    40  H    0.199167
    41  C    0.626120
    42  C   -0.449697
    43  H    0.170330
    44  H    0.169462
    45  H    0.180316
    46  O   -0.544993
    47  N   -0.606663
    48  H    0.363160
    49  C   -0.081788
    50  H    0.213686
    51  C    0.640116
    52  C   -0.274177
    53  H    0.161648
    54  H    0.180149
    55  O   -0.553852
    56  C   -0.370265
    57  H    0.189876
    58  H    0.192843
    59  C    0.618337
    60  O   -0.475016
    61  O   -0.566951
    62  N   -0.599677
    63  H    0.355954
    64  C   -0.067834
    65  H    0.197688
    66  C    0.635820
    67  C   -0.467573
    68  H    0.177365
    69  H    0.173860
    70  H    0.166872
    71  O   -0.584428
    72  N   -0.577860
    73  H    0.382305
    74  C   -0.062803
    75  H    0.153870
    76  C    0.587885
    77  C   -0.325981
    78  H    0.145859
    79  H    0.218574
    80  O   -0.567393
    81  C   -0.085074
    82  H    0.112833
    83  C   -0.446707
    84  H    0.176201
    85  H    0.143311
    86  H    0.124796
    87  C   -0.458675
    88  H    0.178843
    89  H    0.132779
    90  H    0.130191
    91  N   -0.617829
    92  H    0.349393
    93  C   -0.091289
    94  H    0.155573
    95  C    0.586786
    96  C   -0.267232
    97  H    0.188674
    98  H    0.110507
    99  O   -0.561204
   100  C   -0.286390
   101  H    0.169158
   102  H    0.155637
   103  C   -0.182099
   104  H    0.178995
   105  H    0.178197
   106  N   -0.566762
   107  H    0.355613
   108  N   -0.750835
   109  H    0.379824
   110  H    0.389679
   111  N   -0.773037
   112  H    0.355864
   113  H    0.407613
   114  C    0.759891
   115  O   -0.621840
   116  H    0.419211
 Sum of Mulliken charges =   1.00000

 Dipole moment (field-independent basis, Debye):
    X=            -28.0047    Y=             -6.6064    Z=            -25.4063  Tot=             38.3847
 Quadrupole moment (field-independent basis, Debye-Ang):
   XX=           -213.0263   YY=           -196.0328   ZZ=           -148.7887
   XY=            217.6933   XZ=            145.5265   YZ=            184.2582

 Normal termination of Gaussian 16 at Sat Jun 25 09:45:46 2022.
