 Gaussian 16, Revision C.01,
 Gaussian 16:  ES64L-G16RevC.01  3-Jul-2019

 ----------------------------------------------------------------------
 # B3LYP/6-31G* empiricaldispersion=gd3 guess=read geom=check nosymm in
 tegral(ultrafinegrid)
 ----------------------------------------------------------------------

 ------------------------------------------------------
 Candidate Structure: Conf:123 Charge calc in gas phase
 ------------------------------------------------------
 Structure from the checkpoint file:  "conf-123.chk"
 Charge =  1 Multiplicity = 1

                          Input orientation:
 ---------------------------------------------------------------------
 Center     Atomic      Atomic             Coordinates (Angstroms)
 Number     Number       Type             X           Y           Z
 ---------------------------------------------------------------------
      1          7           0       -1.091227   -6.056899    0.549453
      2          1           0       -0.768501   -5.458565    1.377605
      3          1           0       -2.101070   -6.000316    0.367717
      4          1           0       -0.788079   -7.030029    0.721179
      5          6           0       -0.338671   -5.586303   -0.655390
      6          1           0        0.436972   -4.916711   -0.288295
      7          6           0       -1.334023   -4.823766   -1.532324
      8          6           0        0.342124   -6.817116   -1.320848
      9          1           0       -0.409957   -7.355184   -1.909084
     10          8           0       -2.500501   -5.197555   -1.612621
     11          6           0        1.501543   -6.375535   -2.207717
     12          1           0        1.165563   -5.684393   -2.989617
     13          1           0        1.955490   -7.247263   -2.685390
     14          1           0        2.267480   -5.877121   -1.601090
     15          8           0        0.743710   -7.719538   -0.301149
     16          1           0        1.346714   -7.237595    0.313233
     17          7           0       -0.835553   -3.719447   -2.133719
     18          1           0        0.141842   -3.462875   -2.042682
     19          6           0       -1.674339   -2.700588   -2.732165
     20          1           0       -2.530956   -3.185502   -3.207410
     21          6           0       -0.803392   -1.906714   -3.712932
     22          6           0       -2.162108   -1.666359   -1.661448
     23          1           0       -1.273215   -1.107437   -1.342428
     24          1           0       -2.821216   -0.948635   -2.164997
     25          8           0        0.411150   -1.817284   -3.518934
     26          6           0       -2.860280   -2.265538   -0.464415
     27          6           0       -4.256704   -2.339442   -0.414407
     28          1           0       -4.844500   -1.952951   -1.243984
     29          6           0       -2.124260   -2.770890    0.616430
     30          1           0       -1.039907   -2.741517    0.602134
     31          6           0       -4.903912   -2.903121    0.685546
     32          1           0       -5.988895   -2.951355    0.706029
     33          6           0       -2.765370   -3.333341    1.721157
     34          1           0       -2.165457   -3.709964    2.544535
     35          6           0       -4.160209   -3.400402    1.758134
     36          1           0       -4.665158   -3.832264    2.617730
     37          7           0       -1.455571   -1.233317   -4.687574
     38          1           0       -2.463762   -1.301907   -4.747992
     39          6           0       -0.799502   -0.196416   -5.501078
     40          1           0        0.235146   -0.524387   -5.634367
     41          6           0       -0.822299    1.129436   -4.699834
     42          6           0       -1.499702   -0.046935   -6.844953
     43          1           0       -0.977187    0.692268   -7.457644
     44          1           0       -2.523994    0.313214   -6.708580
     45          1           0       -1.511001   -1.002677   -7.376782
     46          8           0       -1.628856    2.023698   -4.945995
     47          7           0        0.070767    1.185159   -3.682738
     48          1           0        0.699564    0.406958   -3.492353
     49          6           0        0.127017    2.307186   -2.761509
     50          1           0        0.305964    3.228353   -3.329849
     51          6           0        1.338684    2.060694   -1.847026
     52          6           0       -1.189752    2.482149   -1.932363
     53          1           0       -0.961921    2.535446   -0.863736
     54          1           0       -1.795734    1.584163   -2.080206
     55          8           0        1.956766    0.986223   -1.889615
     56          6           0       -2.015355    3.704701   -2.335180
     57          1           0       -2.179930    3.701437   -3.418566
     58          1           0       -3.009198    3.678391   -1.872125
     59          6           0       -1.370656    5.013174   -1.950822
     60          8           0       -0.270496    5.150039   -1.434847
     61          8           0       -2.150973    6.062649   -2.245531
     62          7           0        1.644394    3.048808   -0.982453
     63          1           0        1.067686    3.892432   -1.000888
     64          6           0        2.806124    3.002567   -0.084438
     65          1           0        3.613596    2.500864   -0.634397
     66          6           0        2.526981    2.133320    1.171686
     67          6           0        3.222549    4.419132    0.297253
     68          1           0        4.086639    4.392186    0.964073
     69          1           0        2.413134    4.933200    0.825205
     70          1           0        3.480347    4.988699   -0.599786
     71          8           0        2.773093    2.542164    2.321548
     72          7           0        2.023162    0.925762    0.880150
     73          1           0        2.039154    0.650840   -0.106425
     74          6           0        1.503619   -0.039275    1.822917
     75          1           0        1.667175    0.355232    2.826606
     76          6           0        2.354327   -1.324185    1.709965
     77          6           0       -0.010948   -0.218581    1.603230
     78          1           0       -0.164877   -0.596151    0.585296
     79          1           0       -0.406109   -0.983659    2.282915
     80          8           0        3.466149   -1.287034    1.165006
     81          6           0       -0.831829    1.070591    1.800891
     82          1           0       -0.422715    1.831209    1.122477
     83          6           0       -2.297053    0.823699    1.415358
     84          1           0       -2.747305    0.044232    2.041192
     85          1           0       -2.387487    0.495385    0.374515
     86          1           0       -2.889823    1.737494    1.534764
     87          6           0       -0.721293    1.614951    3.233002
     88          1           0       -1.026741    0.856086    3.965764
     89          1           0       -1.375065    2.483470    3.366176
     90          1           0        0.298028    1.940284    3.468961
     91          7           0        1.867637   -2.429144    2.302269
     92          1           0        0.882871   -2.505630    2.540914
     93          6           0        2.514983   -3.735248    2.173688
     94          1           0        3.104159   -3.728714    1.251421
     95          6           0        1.419717   -4.811186    1.976560
     96          6           0        3.461541   -4.061752    3.344711
     97          1           0        3.685298   -5.130375    3.273336
     98          1           0        2.918062   -3.919946    4.289445
     99          8           0        1.807219   -5.921513    1.561890
    100          6           0        4.783213   -3.247123    3.322693
    101          1           0        4.867792   -2.716010    2.371771
    102          1           0        5.636575   -3.934924    3.364804
    103          6           0        5.007561   -2.263346    4.479796
    104          1           0        5.968725   -1.755652    4.353485
    105          1           0        5.045458   -2.802412    5.431748
    106          7           0        3.987073   -1.210382    4.663875
    107          1           0        3.216170   -1.420158    5.282799
    108          7           0        4.802863    0.294408    3.082890
    109          1           0        4.757864    1.255271    2.758528
    110          1           0        4.776142   -0.387094    2.321312
    111          7           0        3.274921    1.009918    4.665221
    112          1           0        2.850301    0.924012    5.577376
    113          1           0        2.988380    1.770170    4.037285
    114          6           0        4.013196    0.021032    4.139328
    115          8           0        0.215854   -4.443144    2.195687
    116          1           0       -1.669317    6.871887   -1.987085
 ---------------------------------------------------------------------

 SCF Done:  E(RB3LYP) =  -2782.53077728     A.U. after    1 cycles

 Alpha  occ. eigenvalues --  -19.28331 -19.23606 -19.22782 -19.22458 -19.21800
 Alpha  occ. eigenvalues --  -19.21620 -19.21446 -19.21266 -19.19634 -19.19364
 Alpha  occ. eigenvalues --  -19.18281 -14.50468 -14.50292 -14.49164 -14.48026
 Alpha  occ. eigenvalues --  -14.46023 -14.45742 -14.45272 -14.45190 -14.45123
 Alpha  occ. eigenvalues --  -14.43303 -10.45652 -10.41385 -10.39148 -10.38785
 Alpha  occ. eigenvalues --  -10.38707 -10.38538 -10.38498 -10.36671 -10.36334
 Alpha  occ. eigenvalues --  -10.33973 -10.33380 -10.33352 -10.33311 -10.33166
 Alpha  occ. eigenvalues --  -10.33068 -10.32422 -10.31644 -10.30883 -10.28995
 Alpha  occ. eigenvalues --  -10.28522 -10.28279 -10.28065 -10.28019 -10.27965
 Alpha  occ. eigenvalues --  -10.27838 -10.27767 -10.26737 -10.26686 -10.26664
 Alpha  occ. eigenvalues --  -10.26629 -10.26613 -10.26592 -10.26050 -10.25772
 Alpha  occ. eigenvalues --  -10.25467 -10.25396  -1.19651  -1.14651  -1.14052
 Alpha  occ. eigenvalues --   -1.13927  -1.13517  -1.13190  -1.13154  -1.12246
 Alpha  occ. eigenvalues --   -1.11077  -1.10551  -1.10496  -1.05343  -1.03960
 Alpha  occ. eigenvalues --   -1.03458  -1.02922  -1.02506  -1.02073  -1.01883
 Alpha  occ. eigenvalues --   -1.01588  -1.01364  -1.00065  -0.93537  -0.90705
 Alpha  occ. eigenvalues --   -0.89271  -0.89147  -0.88611  -0.86738  -0.86118
 Alpha  occ. eigenvalues --   -0.85244  -0.85069  -0.82987  -0.82231  -0.82040
 Alpha  occ. eigenvalues --   -0.81231  -0.78761  -0.78143  -0.77002  -0.75936
 Alpha  occ. eigenvalues --   -0.75391  -0.75275  -0.74743  -0.73173  -0.72075
 Alpha  occ. eigenvalues --   -0.71541  -0.70670  -0.69828  -0.69294  -0.68519
 Alpha  occ. eigenvalues --   -0.68425  -0.68121  -0.67745  -0.67626  -0.67285
 Alpha  occ. eigenvalues --   -0.67256  -0.67102  -0.66352  -0.65652  -0.65582
 Alpha  occ. eigenvalues --   -0.64348  -0.63579  -0.63386  -0.62948  -0.62223
 Alpha  occ. eigenvalues --   -0.61399  -0.60331  -0.59424  -0.59152  -0.58952
 Alpha  occ. eigenvalues --   -0.58787  -0.58587  -0.58115  -0.58028  -0.57792
 Alpha  occ. eigenvalues --   -0.57292  -0.57132  -0.56433  -0.56362  -0.56096
 Alpha  occ. eigenvalues --   -0.55488  -0.55423  -0.55136  -0.54883  -0.54454
 Alpha  occ. eigenvalues --   -0.54385  -0.53920  -0.53216  -0.53120  -0.52957
 Alpha  occ. eigenvalues --   -0.52584  -0.52272  -0.52039  -0.51945  -0.51477
 Alpha  occ. eigenvalues --   -0.51260  -0.51113  -0.50889  -0.50664  -0.50360
 Alpha  occ. eigenvalues --   -0.49915  -0.49892  -0.49455  -0.49333  -0.49083
 Alpha  occ. eigenvalues --   -0.48692  -0.48659  -0.48538  -0.48159  -0.48103
 Alpha  occ. eigenvalues --   -0.47804  -0.47685  -0.47287  -0.46831  -0.46759
 Alpha  occ. eigenvalues --   -0.46689  -0.46306  -0.46107  -0.45931  -0.45810
 Alpha  occ. eigenvalues --   -0.45473  -0.45428  -0.45281  -0.45152  -0.44933
 Alpha  occ. eigenvalues --   -0.44806  -0.44446  -0.44128  -0.44103  -0.43621
 Alpha  occ. eigenvalues --   -0.43557  -0.43341  -0.43224  -0.42286  -0.41945
 Alpha  occ. eigenvalues --   -0.41856  -0.41319  -0.41127  -0.40925  -0.40631
 Alpha  occ. eigenvalues --   -0.40293  -0.39185  -0.38056  -0.37231  -0.36990
 Alpha  occ. eigenvalues --   -0.36652  -0.36032  -0.35894  -0.35765  -0.35579
 Alpha  occ. eigenvalues --   -0.35358  -0.35026  -0.34906  -0.34456  -0.34406
 Alpha  occ. eigenvalues --   -0.34188  -0.33066  -0.32772  -0.32230  -0.31964
 Alpha  occ. eigenvalues --   -0.31821
 Alpha virt. eigenvalues --   -0.11896  -0.09232  -0.09139  -0.08816  -0.08000
 Alpha virt. eigenvalues --   -0.07910  -0.07596  -0.07366  -0.06927  -0.05830
 Alpha virt. eigenvalues --   -0.04844  -0.04388  -0.02592  -0.01721  -0.01671

 Mulliken charges:
               1
     1  N   -0.778333
     2  H    0.439411
     3  H    0.399737
     4  H    0.399176
     5  C   -0.108319
     6  H    0.183801
     7  C    0.634062
     8  C    0.131236
     9  H    0.170597
    10  O   -0.523626
    11  C   -0.476011
    12  H    0.157314
    13  H    0.188728
    14  H    0.160311
    15  O   -0.649250
    16  H    0.443126
    17  N   -0.607239
    18  H    0.356191
    19  C   -0.051525
    20  H    0.191304
    21  C    0.635212
    22  C   -0.389638
    23  H    0.168189
    24  H    0.157864
    25  O   -0.541666
    26  C    0.200107
    27  C   -0.170605
    28  H    0.131799
    29  C   -0.212762
    30  H    0.126181
    31  C   -0.123071
    32  H    0.149728
    33  C   -0.172449
    34  H    0.158560
    35  C   -0.133232
    36  H    0.145711
    37  N   -0.598840
    38  H    0.342415
    39  C   -0.067526
    40  H    0.193691
    41  C    0.623651
    42  C   -0.460828
    43  H    0.181182
    44  H    0.172320
    45  H    0.164342
    46  O   -0.526649
    47  N   -0.649291
    48  H    0.391036
    49  C   -0.006560
    50  H    0.190092
    51  C    0.584386
    52  C   -0.306410
    53  H    0.172479
    54  H    0.167446
    55  O   -0.555483
    56  C   -0.375727
    57  H    0.244260
    58  H    0.189324
    59  C    0.594905
    60  O   -0.496301
    61  O   -0.542240
    62  N   -0.631734
    63  H    0.408116
    64  C   -0.069746
    65  H    0.199214
    66  C    0.619765
    67  C   -0.461016
    68  H    0.172466
    69  H    0.172593
    70  H    0.172455
    71  O   -0.583951
    72  N   -0.579386
    73  H    0.399838
    74  C   -0.090728
    75  H    0.172187
    76  C    0.618828
    77  C   -0.285022
    78  H    0.153216
    79  H    0.147876
    80  O   -0.560903
    81  C   -0.086467
    82  H    0.141062
    83  C   -0.454709
    84  H    0.161785
    85  H    0.146729
    86  H    0.148975
    87  C   -0.462523
    88  H    0.139816
    89  H    0.162163
    90  H    0.143628
    91  N   -0.616698
    92  H    0.363141
    93  C   -0.057271
    94  H    0.186928
    95  C    0.609299
    96  C   -0.270236
    97  H    0.190367
    98  H    0.126617
    99  O   -0.587642
   100  C   -0.289154
   101  H    0.186667
   102  H    0.169674
   103  C   -0.173370
   104  H    0.195278
   105  H    0.181604
   106  N   -0.573160
   107  H    0.353702
   108  N   -0.734890
   109  H    0.370481
   110  H    0.406692
   111  N   -0.773215
   112  H    0.361734
   113  H    0.424678
   114  C    0.725143
   115  O   -0.631048
   116  H    0.423858
 Sum of Mulliken charges =   1.00000

 Dipole moment (field-independent basis, Debye):
    X=              4.0069    Y=             -0.5231    Z=              7.7729  Tot=              8.7605
 Quadrupole moment (field-independent basis, Debye-Ang):
   XX=           -281.2113   YY=           -287.6094   ZZ=           -248.9151
   XY=              6.6620   XZ=             45.5654   YZ=             -7.2174

 Normal termination of Gaussian 16 at Sat Jun 25 09:45:36 2022.
