 Gaussian 16, Revision C.01,
 Gaussian 16:  ES64L-G16RevC.01  3-Jul-2019

 ----------------------------------------------------------------------
 # B3LYP/6-31G* empiricaldispersion=gd3 guess=read geom=check nosymm in
 tegral(ultrafinegrid)
 ----------------------------------------------------------------------

 ------------------------------------------------------
 Candidate Structure: Conf:234 Charge calc in gas phase
 ------------------------------------------------------
 Structure from the checkpoint file:  "conf-234.chk"
 Charge =  1 Multiplicity = 1

                          Input orientation:
 ---------------------------------------------------------------------
 Center     Atomic      Atomic             Coordinates (Angstroms)
 Number     Number       Type             X           Y           Z
 ---------------------------------------------------------------------
      1          7           0       -8.093624   -1.522077   -3.554497
      2          1           0       -8.486832   -2.471851   -3.705824
      3          1           0       -8.343272   -1.190124   -2.608338
      4          1           0       -8.501009   -0.874362   -4.235563
      5          6           0       -6.581788   -1.507699   -3.602041
      6          1           0       -6.274670   -1.729613   -4.626528
      7          6           0       -6.161742   -2.570403   -2.581168
      8          6           0       -6.113370   -0.094435   -3.135530
      9          1           0       -5.043435   -0.178964   -2.897184
     10          8           0       -6.691389   -2.535913   -1.470434
     11          6           0       -6.314643    0.976600   -4.199946
     12          1           0       -5.756698    0.737653   -5.110642
     13          1           0       -5.960958    1.935044   -3.813043
     14          1           0       -7.374872    1.103822   -4.452760
     15          8           0       -6.876095    0.278483   -1.997341
     16          1           0       -6.593557   -0.263274   -1.238300
     17          7           0       -5.230806   -3.457902   -2.977992
     18          1           0       -4.940148   -3.453079   -3.948402
     19          6           0       -4.961091   -4.684466   -2.218717
     20          1           0       -5.353838   -4.500722   -1.214665
     21          6           0       -3.450912   -4.965512   -2.080193
     22          6           0       -5.721600   -5.875866   -2.854400
     23          1           0       -5.224318   -6.163731   -3.788060
     24          1           0       -5.625408   -6.726469   -2.174465
     25          8           0       -3.057564   -6.087829   -1.789048
     26          6           0       -7.163998   -5.497764   -3.111674
     27          6           0       -7.575519   -5.083200   -4.386051
     28          1           0       -6.883265   -5.158013   -5.222164
     29          6           0       -8.085747   -5.420986   -2.056946
     30          1           0       -7.782083   -5.730870   -1.060583
     31          6           0       -8.870527   -4.596004   -4.604911
     32          1           0       -9.182645   -4.319155   -5.609326
     33          6           0       -9.375027   -4.931495   -2.262359
     34          1           0      -10.072722   -4.883936   -1.431492
     35          6           0       -9.774259   -4.510729   -3.537037
     36          1           0      -10.788712   -4.158186   -3.704386
     37          7           0       -2.671394   -3.884129   -2.284920
     38          1           0       -3.074904   -2.966498   -2.450974
     39          6           0       -1.236028   -3.833570   -2.073239
     40          1           0       -1.001304   -4.237757   -1.079702
     41          6           0       -0.890464   -2.328527   -2.113835
     42          6           0       -0.460710   -4.630616   -3.134389
     43          1           0        0.616117   -4.590250   -2.943075
     44          1           0       -0.652503   -4.222135   -4.132156
     45          1           0       -0.783822   -5.674024   -3.104297
     46          8           0       -1.723369   -1.496776   -2.500686
     47          7           0        0.353754   -2.008771   -1.730783
     48          1           0        1.000006   -2.698835   -1.357350
     49          6           0        0.847824   -0.639182   -1.684280
     50          1           0        0.578648   -0.137552   -2.621058
     51          6           0        2.374384   -0.750578   -1.528470
     52          6           0        0.221118    0.122411   -0.491039
     53          1           0        0.553150   -0.356403    0.437339
     54          1           0       -0.862377   -0.007656   -0.551058
     55          8           0        2.865550   -1.728694   -0.965590
     56          6           0        0.540380    1.618453   -0.456072
     57          1           0        1.600883    1.835160   -0.311304
     58          1           0        0.276597    2.099545   -1.409634
     59          6           0       -0.244814    2.329541    0.625069
     60          8           0       -1.224806    1.897203    1.191791
     61          8           0        0.278148    3.552583    0.887167
     62          7           0        3.087268    0.291620   -2.013823
     63          1           0        2.590836    1.122791   -2.322930
     64          6           0        4.448306    0.590922   -1.571726
     65          1           0        4.724777   -0.167977   -0.834843
     66          6           0        4.372551    1.988633   -0.923972
     67          6           0        5.442995    0.582362   -2.739254
     68          1           0        6.452325    0.816007   -2.384284
     69          1           0        5.158875    1.331635   -3.485784
     70          1           0        5.455362   -0.402938   -3.214347
     71          8           0        3.531927    2.804418   -1.323285
     72          7           0        5.243604    2.244733    0.062273
     73          1           0        5.918088    1.561868    0.395862
     74          6           0        5.213194    3.488043    0.823530
     75          1           0        5.071767    4.314147    0.121794
     76          6           0        6.569748    3.592464    1.533472
     77          6           0        4.046200    3.454888    1.844520
     78          1           0        3.151152    3.147707    1.290221
     79          1           0        4.269320    2.662290    2.571498
     80          8           0        7.236683    2.577150    1.766254
     81          6           0        3.721104    4.768878    2.581044
     82          1           0        4.608484    5.121032    3.121275
     83          6           0        3.283331    5.875435    1.609539
     84          1           0        2.421586    5.546851    1.014313
     85          1           0        4.080231    6.159581    0.913063
     86          1           0        3.004841    6.781316    2.158610
     87          6           0        2.620399    4.501030    3.618968
     88          1           0        1.709246    4.132976    3.129077
     89          1           0        2.367034    5.415796    4.166605
     90          1           0        2.933407    3.745906    4.350051
     91          7           0        6.928058    4.833286    1.899515
     92          1           0        6.297622    5.629829    1.804151
     93          6           0        8.003119    5.120378    2.837521
     94          1           0        8.049525    4.309105    3.575235
     95          6           0        7.597164    6.441680    3.567062
     96          6           0        9.357322    5.159596    2.086934
     97          1           0        9.386622    6.041433    1.432700
     98          1           0        9.360598    4.280676    1.434676
     99          8           0        8.310989    6.798011    4.566723
    100          6           0       10.604793    5.098876    2.986058
    101          1           0       11.421587    4.593276    2.455549
    102          1           0       10.379381    4.476030    3.860389
    103          6           0       11.102313    6.474925    3.461447
    104          1           0       10.263599    7.127955    3.704592
    105          1           0       11.695336    6.970517    2.687817
    106          7           0       11.960332    6.382116    4.657060
    107          1           0       12.923109    6.110287    4.504202
    108          7           0       10.172262    6.025239    6.103996
    109          1           0        9.857797    5.991465    7.065073
    110          1           0        9.379590    6.224171    5.352148
    111          7           0       12.377658    5.890455    6.881161
    112          1           0       13.279184    6.342464    6.806888
    113          1           0       12.031295    5.812619    7.827200
    114          6           0       11.467885    6.112074    5.882045
    115          8           0        6.615101    7.053007    3.121712
    116          1           0       -0.275441    3.957914    1.581017
 ---------------------------------------------------------------------

 SCF Done:  E(RB3LYP) =  -2782.43173298     A.U. after    1 cycles

 Alpha  occ. eigenvalues --  -19.28177 -19.25922 -19.24587 -19.19698 -19.19398
 Alpha  occ. eigenvalues --  -19.18994 -19.17952 -19.16288 -19.14593 -19.12143
 Alpha  occ. eigenvalues --  -19.11093 -14.60047 -14.50139 -14.45518 -14.44953
 Alpha  occ. eigenvalues --  -14.43611 -14.43248 -14.42229 -14.41734 -14.40358
 Alpha  occ. eigenvalues --  -14.37763 -10.43394 -10.40683 -10.40306 -10.38696
 Alpha  occ. eigenvalues --  -10.37186 -10.37176 -10.36559 -10.35042 -10.34141
 Alpha  occ. eigenvalues --  -10.33356 -10.31510 -10.31200 -10.30788 -10.30781
 Alpha  occ. eigenvalues --  -10.30550 -10.30488 -10.30379 -10.30183 -10.30029
 Alpha  occ. eigenvalues --  -10.29712 -10.29639 -10.29486 -10.28609 -10.27830
 Alpha  occ. eigenvalues --  -10.26600 -10.25249 -10.25212 -10.25040 -10.24709
 Alpha  occ. eigenvalues --  -10.23570 -10.23329 -10.22245 -10.21614 -10.21446
 Alpha  occ. eigenvalues --  -10.20197 -10.19574  -1.18986  -1.15912  -1.15349
 Alpha  occ. eigenvalues --   -1.13552  -1.11932  -1.11089  -1.09857  -1.09284
 Alpha  occ. eigenvalues --   -1.08210  -1.06605  -1.06450  -1.06323  -1.04901
 Alpha  occ. eigenvalues --   -1.00469  -0.99799  -0.98961  -0.98383  -0.97381
 Alpha  occ. eigenvalues --   -0.96823  -0.96730  -0.96063  -0.94356  -0.92729
 Alpha  occ. eigenvalues --   -0.89825  -0.87080  -0.86319  -0.85565  -0.84699
 Alpha  occ. eigenvalues --   -0.84429  -0.83707  -0.82975  -0.82408  -0.79258
 Alpha  occ. eigenvalues --   -0.78635  -0.76922  -0.76821  -0.74708  -0.73824
 Alpha  occ. eigenvalues --   -0.73120  -0.72992  -0.72524  -0.72091  -0.71715
 Alpha  occ. eigenvalues --   -0.71356  -0.70739  -0.70361  -0.69809  -0.69407
 Alpha  occ. eigenvalues --   -0.68434  -0.67369  -0.66427  -0.66322  -0.65205
 Alpha  occ. eigenvalues --   -0.65115  -0.64816  -0.63990  -0.63683  -0.63111
 Alpha  occ. eigenvalues --   -0.62654  -0.62322  -0.62120  -0.61579  -0.60646
 Alpha  occ. eigenvalues --   -0.59919  -0.59436  -0.59012  -0.58517  -0.58255
 Alpha  occ. eigenvalues --   -0.57272  -0.56907  -0.56617  -0.56219  -0.55876
 Alpha  occ. eigenvalues --   -0.55510  -0.55026  -0.54839  -0.54298  -0.53868
 Alpha  occ. eigenvalues --   -0.53146  -0.52923  -0.52854  -0.52749  -0.52369
 Alpha  occ. eigenvalues --   -0.52263  -0.52097  -0.51617  -0.51556  -0.51400
 Alpha  occ. eigenvalues --   -0.51154  -0.50882  -0.50520  -0.50433  -0.50137
 Alpha  occ. eigenvalues --   -0.49859  -0.49481  -0.49008  -0.48959  -0.48378
 Alpha  occ. eigenvalues --   -0.48209  -0.48125  -0.47840  -0.47176  -0.46964
 Alpha  occ. eigenvalues --   -0.46909  -0.46768  -0.46557  -0.46079  -0.45926
 Alpha  occ. eigenvalues --   -0.45677  -0.45373  -0.45101  -0.44810  -0.44673
 Alpha  occ. eigenvalues --   -0.44369  -0.44119  -0.44004  -0.43881  -0.43483
 Alpha  occ. eigenvalues --   -0.43296  -0.43033  -0.42472  -0.41977  -0.41952
 Alpha  occ. eigenvalues --   -0.41542  -0.41474  -0.41383  -0.41049  -0.40690
 Alpha  occ. eigenvalues --   -0.40452  -0.40213  -0.40192  -0.40021  -0.39633
 Alpha  occ. eigenvalues --   -0.39256  -0.38664  -0.38104  -0.36926  -0.36739
 Alpha  occ. eigenvalues --   -0.36301  -0.35997  -0.35973  -0.35651  -0.35257
 Alpha  occ. eigenvalues --   -0.34971  -0.34096  -0.33889  -0.33278  -0.33053
 Alpha  occ. eigenvalues --   -0.32767  -0.32499  -0.32046  -0.31600  -0.30357
 Alpha  occ. eigenvalues --   -0.29570  -0.28849  -0.28438  -0.27170  -0.26395
 Alpha  occ. eigenvalues --   -0.25374
 Alpha virt. eigenvalues --   -0.13408  -0.11932  -0.11589  -0.09483  -0.06421
 Alpha virt. eigenvalues --   -0.05631  -0.05456  -0.05098  -0.04643  -0.04018
 Alpha virt. eigenvalues --   -0.03791  -0.02607  -0.02313  -0.02188  -0.01268

 Mulliken charges:
               1
     1  N   -0.741206
     2  H    0.420782
     3  H    0.424789
     4  H    0.408531
     5  C   -0.141263
     6  H    0.194610
     7  C    0.648276
     8  C    0.104306
     9  H    0.202718
    10  O   -0.526319
    11  C   -0.461378
    12  H    0.173320
    13  H    0.216205
    14  H    0.144270
    15  O   -0.618255
    16  H    0.434098
    17  N   -0.617294
    18  H    0.347305
    19  C   -0.078507
    20  H    0.225046
    21  C    0.631467
    22  C   -0.365289
    23  H    0.166734
    24  H    0.211341
    25  O   -0.519035
    26  C    0.168802
    27  C   -0.200584
    28  H    0.142521
    29  C   -0.155224
    30  H    0.163397
    31  C   -0.191669
    32  H    0.157007
    33  C   -0.121348
    34  H    0.167374
    35  C   -0.177731
    36  H    0.161519
    37  N   -0.637878
    38  H    0.352074
    39  C   -0.028386
    40  H    0.185291
    41  C    0.626504
    42  C   -0.451826
    43  H    0.165463
    44  H    0.152125
    45  H    0.197145
    46  O   -0.570080
    47  N   -0.622869
    48  H    0.361960
    49  C   -0.040513
    50  H    0.166101
    51  C    0.602528
    52  C   -0.261483
    53  H    0.164911
    54  H    0.185423
    55  O   -0.533072
    56  C   -0.396842
    57  H    0.217219
    58  H    0.177859
    59  C    0.585036
    60  O   -0.464824
    61  O   -0.556745
    62  N   -0.591759
    63  H    0.350817
    64  C   -0.071951
    65  H    0.185564
    66  C    0.629377
    67  C   -0.440834
    68  H    0.163405
    69  H    0.163800
    70  H    0.169625
    71  O   -0.556432
    72  N   -0.612057
    73  H    0.352725
    74  C   -0.051070
    75  H    0.178045
    76  C    0.611930
    77  C   -0.268284
    78  H    0.163775
    79  H    0.136621
    80  O   -0.565228
    81  C   -0.090651
    82  H    0.155363
    83  C   -0.453151
    84  H    0.147721
    85  H    0.142927
    86  H    0.152494
    87  C   -0.448265
    88  H    0.121426
    89  H    0.148363
    90  H    0.140498
    91  N   -0.617233
    92  H    0.369208
    93  C   -0.062492
    94  H    0.154148
    95  C    0.604843
    96  C   -0.265035
    97  H    0.143091
    98  H    0.169226
    99  O   -0.634482
   100  C   -0.275315
   101  H    0.139127
   102  H    0.153288
   103  C   -0.193030
   104  H    0.228596
   105  H    0.165119
   106  N   -0.588533
   107  H    0.343919
   108  N   -0.773720
   109  H    0.342530
   110  H    0.459480
   111  N   -0.762592
   112  H    0.358714
   113  H    0.357925
   114  C    0.772860
   115  O   -0.544452
   116  H    0.415581
 Sum of Mulliken charges =   1.00000

 Dipole moment (field-independent basis, Debye):
    X=            -10.2560    Y=             -2.4164    Z=             -8.3259  Tot=             13.4292
 Quadrupole moment (field-independent basis, Debye-Ang):
   XX=            194.5649   YY=           -310.0418   ZZ=           -177.5169
   XY=            171.7169   XZ=            255.6395   YZ=             84.8257

 Normal termination of Gaussian 16 at Sat Jun 25 09:45:11 2022.
