 Gaussian 16, Revision C.01,
 Gaussian 16:  ES64L-G16RevC.01  3-Jul-2019

 ----------------------------------------------------------------------
 # B3LYP/6-31G* empiricaldispersion=gd3 guess=read geom=check nosymm in
 tegral(ultrafinegrid)
 ----------------------------------------------------------------------

 ------------------------------------------------------
 Candidate Structure: Conf:961 Charge calc in gas phase
 ------------------------------------------------------
 Structure from the checkpoint file:  "conf-961.chk"
 Charge =  1 Multiplicity = 1

                          Input orientation:
 ---------------------------------------------------------------------
 Center     Atomic      Atomic             Coordinates (Angstroms)
 Number     Number       Type             X           Y           Z
 ---------------------------------------------------------------------
      1          7           0       -6.771125   -4.877305   -7.399291
      2          1           0       -6.550758   -5.723072   -6.844729
      3          1           0       -7.535693   -4.387886   -6.896093
      4          1           0       -7.028079   -5.104681   -8.369468
      5          6           0       -5.618004   -3.908517   -7.407242
      6          1           0       -4.702743   -4.487087   -7.549980
      7          6           0       -5.709879   -3.240749   -6.022980
      8          6           0       -5.823020   -2.931353   -8.574024
      9          1           0       -6.695070   -2.300813   -8.339362
     10          8           0       -6.839274   -3.071725   -5.555575
     11          6           0       -4.589308   -2.063515   -8.796528
     12          1           0       -4.361424   -1.465869   -7.907498
     13          1           0       -4.761221   -1.370563   -9.626275
     14          1           0       -3.723376   -2.686525   -9.043593
     15          8           0       -6.109828   -3.786337   -9.684089
     16          1           0       -6.309052   -3.247126  -10.465784
     17          7           0       -4.559042   -2.953530   -5.411868
     18          1           0       -3.653464   -3.042303   -5.867029
     19          6           0       -4.479347   -2.666581   -3.987108
     20          1           0       -5.386637   -2.135311   -3.692021
     21          6           0       -3.208315   -1.821771   -3.792421
     22          6           0       -4.333549   -3.997365   -3.171281
     23          1           0       -3.286425   -4.313849   -3.235428
     24          1           0       -4.539495   -3.772303   -2.119328
     25          8           0       -2.289460   -1.921945   -4.610478
     26          6           0       -5.226741   -5.108760   -3.678666
     27          6           0       -6.571886   -5.199415   -3.294645
     28          1           0       -6.971694   -4.486154   -2.578956
     29          6           0       -4.735839   -6.032455   -4.612099
     30          1           0       -3.688931   -5.991273   -4.904078
     31          6           0       -7.407329   -6.178778   -3.830987
     32          1           0       -8.444461   -6.235295   -3.513732
     33          6           0       -5.565670   -7.023529   -5.152898
     34          1           0       -5.152597   -7.760929   -5.837516
     35          6           0       -6.909540   -7.096198   -4.763620
     36          1           0       -7.551908   -7.879930   -5.156585
     37          7           0       -3.175106   -1.073056   -2.683790
     38          1           0       -3.939205   -1.049496   -2.009932
     39          6           0       -2.003134   -0.322662   -2.253162
     40          1           0       -1.122816   -0.972180   -2.333861
     41          6           0       -2.261166    0.022089   -0.771548
     42          6           0       -1.781175    0.936380   -3.106728
     43          1           0       -0.885887    1.474976   -2.781269
     44          1           0       -2.640572    1.609269   -3.022470
     45          1           0       -1.651919    0.645534   -4.152243
     46          8           0       -3.367105   -0.181711   -0.260237
     47          7           0       -1.221723    0.565888   -0.120843
     48          1           0       -0.311816    0.695868   -0.555203
     49          6           0       -1.283574    1.008004    1.265123
     50          1           0       -2.232669    1.523677    1.431124
     51          6           0       -0.095467    1.965448    1.449785
     52          6           0       -1.183767   -0.217239    2.211389
     53          1           0       -0.259379   -0.754159    1.972499
     54          1           0       -2.023234   -0.873936    1.959623
     55          8           0        0.911019    1.844728    0.743791
     56          6           0       -1.182199    0.074421    3.728592
     57          1           0       -1.147510   -0.875052    4.268098
     58          1           0       -0.299412    0.657842    4.012640
     59          6           0       -2.395694    0.855907    4.163905
     60          8           0       -2.596913    2.033780    3.904739
     61          8           0       -3.280160    0.125385    4.864957
     62          7           0       -0.222502    2.878698    2.432838
     63          1           0       -1.042875    2.813473    3.036861
     64          6           0        0.948357    3.599384    2.934452
     65          1           0        1.450182    4.058412    2.077051
     66          6           0        1.874463    2.569897    3.617701
     67          6           0        0.506521    4.660263    3.940398
     68          1           0        1.370549    5.234105    4.288943
     69          1           0        0.044425    4.176672    4.806888
     70          1           0       -0.210965    5.349645    3.484538
     71          8           0        1.456583    1.903321    4.570108
     72          7           0        3.105110    2.447184    3.091662
     73          1           0        3.396039    3.016292    2.304913
     74          6           0        4.086868    1.470126    3.531535
     75          1           0        3.872640    1.228776    4.575816
     76          6           0        5.470866    2.124354    3.384094
     77          6           0        4.057223    0.191732    2.657637
     78          1           0        4.318870    0.496107    1.635575
     79          1           0        4.858017   -0.477981    3.002323
     80          8           0        5.663430    2.988397    2.525437
     81          6           0        2.721304   -0.571961    2.635576
     82          1           0        1.939597    0.146268    2.364520
     83          6           0        2.756019   -1.645992    1.538544
     84          1           0        3.545998   -2.383478    1.731120
     85          1           0        2.941142   -1.201609    0.553408
     86          1           0        1.803440   -2.189492    1.490922
     87          6           0        2.375737   -1.186928    3.998127
     88          1           0        3.160422   -1.882655    4.323874
     89          1           0        1.437974   -1.754466    3.939411
     90          1           0        2.244639   -0.415258    4.761004
     91          7           0        6.423509    1.647553    4.209207
     92          1           0        6.248236    0.862318    4.831214
     93          6           0        7.841792    1.957468    4.069516
     94          1           0        8.130277    1.849607    3.017265
     95          6           0        8.665617    0.946094    4.902498
     96          6           0        8.171392    3.412647    4.474029
     97          1           0        7.649854    4.059448    3.762121
     98          1           0        9.247954    3.549893    4.324988
     99          8           0        7.977433    0.152526    5.652781
    100          6           0        7.770256    3.854724    5.896960
    101          1           0        6.779944    3.453730    6.153350
    102          1           0        7.653617    4.945013    5.890781
    103          6           0        8.759221    3.550466    7.037297
    104          1           0        8.540601    4.205532    7.890090
    105          1           0        9.777206    3.768507    6.690259
    106          7           0        8.695404    2.151475    7.486352
    107          1           0        7.958042    1.581651    7.065406
    108          7           0       10.865807    2.006630    8.338759
    109          1           0       11.755758    1.539676    8.241793
    110          1           0       10.902904    3.012669    8.406915
    111          7           0        9.678225    0.086141    7.725271
    112          1           0        9.071033   -0.226663    6.925235
    113          1           0       10.503841   -0.459093    7.931102
    114          6           0        9.762777    1.416445    7.822005
    115          8           0        9.897980    1.056118    4.867022
    116          1           0       -4.022603    0.718201    5.092720
 ---------------------------------------------------------------------

 SCF Done:  E(RB3LYP) =  -2782.46576759     A.U. after    1 cycles

 Alpha  occ. eigenvalues --  -19.29279 -19.25788 -19.25312 -19.20945 -19.20331
 Alpha  occ. eigenvalues --  -19.19033 -19.17427 -19.15305 -19.14469 -19.12687
 Alpha  occ. eigenvalues --  -19.10972 -14.58410 -14.48838 -14.44694 -14.44375
 Alpha  occ. eigenvalues --  -14.42686 -14.42370 -14.40818 -14.40685 -14.39863
 Alpha  occ. eigenvalues --  -14.38155 -10.42665 -10.39499 -10.39021 -10.38856
 Alpha  occ. eigenvalues --  -10.38295 -10.38208 -10.36066 -10.34491 -10.34187
 Alpha  occ. eigenvalues --  -10.32529 -10.31499 -10.31334 -10.30603 -10.30373
 Alpha  occ. eigenvalues --  -10.30363 -10.30179 -10.30125 -10.30089 -10.29701
 Alpha  occ. eigenvalues --  -10.29572 -10.29545 -10.29375 -10.28529 -10.27999
 Alpha  occ. eigenvalues --  -10.26608 -10.25570 -10.25349 -10.24846 -10.24416
 Alpha  occ. eigenvalues --  -10.23602 -10.22784 -10.22062 -10.22030 -10.21391
 Alpha  occ. eigenvalues --  -10.20982 -10.20075  -1.18328  -1.16758  -1.16589
 Alpha  occ. eigenvalues --   -1.13067  -1.12316  -1.10909  -1.09254  -1.08002
 Alpha  occ. eigenvalues --   -1.07512  -1.07249  -1.06182  -1.05504  -1.04918
 Alpha  occ. eigenvalues --   -1.01321  -0.99352  -0.97546  -0.97526  -0.96535
 Alpha  occ. eigenvalues --   -0.96520  -0.96267  -0.95598  -0.94357  -0.92853
 Alpha  occ. eigenvalues --   -0.89757  -0.86880  -0.85780  -0.85273  -0.84551
 Alpha  occ. eigenvalues --   -0.84357  -0.83418  -0.82760  -0.82068  -0.79245
 Alpha  occ. eigenvalues --   -0.78437  -0.77804  -0.76678  -0.75888  -0.73634
 Alpha  occ. eigenvalues --   -0.73159  -0.71835  -0.71599  -0.71500  -0.71426
 Alpha  occ. eigenvalues --   -0.70876  -0.70344  -0.70243  -0.69609  -0.69065
 Alpha  occ. eigenvalues --   -0.68073  -0.66955  -0.66189  -0.65611  -0.65500
 Alpha  occ. eigenvalues --   -0.64772  -0.64471  -0.63718  -0.63333  -0.62690
 Alpha  occ. eigenvalues --   -0.62194  -0.61664  -0.61437  -0.60434  -0.59924
 Alpha  occ. eigenvalues --   -0.59497  -0.59033  -0.58637  -0.58247  -0.57263
 Alpha  occ. eigenvalues --   -0.56647  -0.56342  -0.56239  -0.56076  -0.55665
 Alpha  occ. eigenvalues --   -0.55497  -0.55312  -0.55149  -0.54466  -0.54183
 Alpha  occ. eigenvalues --   -0.53283  -0.53199  -0.52902  -0.52818  -0.52654
 Alpha  occ. eigenvalues --   -0.52137  -0.52105  -0.51691  -0.51606  -0.51387
 Alpha  occ. eigenvalues --   -0.51185  -0.50985  -0.50640  -0.50457  -0.50033
 Alpha  occ. eigenvalues --   -0.49845  -0.49696  -0.49129  -0.48594  -0.48270
 Alpha  occ. eigenvalues --   -0.47956  -0.47938  -0.47418  -0.47330  -0.47164
 Alpha  occ. eigenvalues --   -0.46926  -0.46732  -0.46600  -0.46286  -0.45826
 Alpha  occ. eigenvalues --   -0.45437  -0.45303  -0.44930  -0.44646  -0.44526
 Alpha  occ. eigenvalues --   -0.44387  -0.44259  -0.44105  -0.43790  -0.43435
 Alpha  occ. eigenvalues --   -0.43112  -0.42917  -0.42225  -0.42104  -0.41790
 Alpha  occ. eigenvalues --   -0.41717  -0.41611  -0.41416  -0.41128  -0.40909
 Alpha  occ. eigenvalues --   -0.40747  -0.40488  -0.40027  -0.39828  -0.39119
 Alpha  occ. eigenvalues --   -0.38763  -0.38565  -0.37888  -0.37771  -0.36847
 Alpha  occ. eigenvalues --   -0.35884  -0.35844  -0.35813  -0.35601  -0.35513
 Alpha  occ. eigenvalues --   -0.34843  -0.34779  -0.34481  -0.33875  -0.33268
 Alpha  occ. eigenvalues --   -0.32494  -0.31805  -0.31658  -0.31071  -0.29898
 Alpha  occ. eigenvalues --   -0.28763  -0.28410  -0.28058  -0.27522  -0.27197
 Alpha  occ. eigenvalues --   -0.24994
 Alpha virt. eigenvalues --   -0.12794  -0.11618  -0.11280  -0.07216  -0.06707
 Alpha virt. eigenvalues --   -0.05473  -0.04744  -0.04685  -0.04267  -0.03973
 Alpha virt. eigenvalues --   -0.03490  -0.01740  -0.01672  -0.00980  -0.00456

 Mulliken charges:
               1
     1  N   -0.751245
     2  H    0.410559
     3  H    0.417248
     4  H    0.421809
     5  C   -0.119028
     6  H    0.205513
     7  C    0.657601
     8  C    0.132466
     9  H    0.168935
    10  O   -0.533963
    11  C   -0.483429
    12  H    0.185812
    13  H    0.184260
    14  H    0.180643
    15  O   -0.647722
    16  H    0.429896
    17  N   -0.599617
    18  H    0.362643
    19  C   -0.064395
    20  H    0.198057
    21  C    0.636901
    22  C   -0.369601
    23  H    0.180624
    24  H    0.185144
    25  O   -0.548694
    26  C    0.165295
    27  C   -0.144719
    28  H    0.156980
    29  C   -0.192194
    30  H    0.148438
    31  C   -0.129281
    32  H    0.163992
    33  C   -0.198777
    34  H    0.159868
    35  C   -0.164373
    36  H    0.160860
    37  N   -0.618530
    38  H    0.361410
    39  C   -0.043593
    40  H    0.184187
    41  C    0.626110
    42  C   -0.451877
    43  H    0.168858
    44  H    0.164122
    45  H    0.184957
    46  O   -0.551882
    47  N   -0.622681
    48  H    0.359497
    49  C   -0.047513
    50  H    0.191788
    51  C    0.613171
    52  C   -0.295154
    53  H    0.176665
    54  H    0.177815
    55  O   -0.556544
    56  C   -0.399077
    57  H    0.178935
    58  H    0.245712
    59  C    0.600761
    60  O   -0.485686
    61  O   -0.546874
    62  N   -0.620643
    63  H    0.389438
    64  C   -0.036001
    65  H    0.162830
    66  C    0.633020
    67  C   -0.477769
    68  H    0.167112
    69  H    0.179860
    70  H    0.163431
    71  O   -0.553078
    72  N   -0.577275
    73  H    0.353468
    74  C   -0.077706
    75  H    0.173444
    76  C    0.622696
    77  C   -0.253360
    78  H    0.149056
    79  H    0.142560
    80  O   -0.550814
    81  C   -0.083165
    82  H    0.149013
    83  C   -0.449011
    84  H    0.143612
    85  H    0.143096
    86  H    0.128306
    87  C   -0.466866
    88  H    0.135230
    89  H    0.126538
    90  H    0.181797
    91  N   -0.622639
    92  H    0.350101
    93  C   -0.033461
    94  H    0.170747
    95  C    0.583789
    96  C   -0.270660
    97  H    0.174267
    98  H    0.157063
    99  O   -0.650029
   100  C   -0.308796
   101  H    0.157691
   102  H    0.155027
   103  C   -0.140788
   104  H    0.160667
   105  H    0.162011
   106  N   -0.585473
   107  H    0.368804
   108  N   -0.756379
   109  H    0.364658
   110  H    0.366717
   111  N   -0.748575
   112  H    0.410691
   113  H    0.338144
   114  C    0.773341
   115  O   -0.573068
   116  H    0.416252
 Sum of Mulliken charges =   1.00000

 Dipole moment (field-independent basis, Debye):
    X=            -17.2700    Y=            -13.8248    Z=            -18.2318  Tot=             28.6667
 Quadrupole moment (field-independent basis, Debye-Ang):
   XX=            -64.5340   YY=           -225.1372   ZZ=             -6.7493
   XY=            145.0904   XZ=            289.1207   YZ=            156.2589

 Normal termination of Gaussian 16 at Sat Jun 25 10:09:41 2022.
