 Gaussian 16, Revision C.01,
 Gaussian 16:  ES64L-G16RevC.01  3-Jul-2019

 ----------------------------------------------------------------------
 # B3LYP/6-31G* empiricaldispersion=gd3 guess=read geom=check nosymm in
 tegral(ultrafinegrid)
 ----------------------------------------------------------------------

 ------------------------------------------------------
 Candidate Structure: Conf:651 Charge calc in gas phase
 ------------------------------------------------------
 Structure from the checkpoint file:  "conf-651.chk"
 Charge =  1 Multiplicity = 1

                          Input orientation:
 ---------------------------------------------------------------------
 Center     Atomic      Atomic             Coordinates (Angstroms)
 Number     Number       Type             X           Y           Z
 ---------------------------------------------------------------------
      1          7           0       -6.223739   -4.124942   -4.606130
      2          1           0       -6.415410   -3.358544   -3.918514
      3          1           0       -5.745586   -3.673272   -5.406976
      4          1           0       -7.068998   -4.611821   -4.909385
      5          6           0       -5.186578   -4.994348   -3.941521
      6          1           0       -5.663140   -5.889759   -3.534583
      7          6           0       -4.602227   -4.063861   -2.850004
      8          6           0       -4.100259   -5.304336   -5.013104
      9          1           0       -3.257233   -5.790318   -4.507292
     10          8           0       -5.094659   -2.932823   -2.725168
     11          6           0       -4.603935   -6.206823   -6.131595
     12          1           0       -4.940140   -7.171552   -5.738165
     13          1           0       -3.794700   -6.380159   -6.844766
     14          1           0       -5.429615   -5.743429   -6.684568
     15          8           0       -3.716023   -4.060660   -5.581035
     16          1           0       -3.120634   -3.574317   -4.963758
     17          7           0       -3.499561   -4.488668   -2.238846
     18          1           0       -3.234847   -5.465644   -2.291625
     19          6           0       -2.611449   -3.597795   -1.472736
     20          1           0       -3.233576   -2.848640   -0.974431
     21          6           0       -1.661803   -2.876037   -2.463654
     22          6           0       -1.829040   -4.392134   -0.414359
     23          1           0       -1.021515   -4.947033   -0.903612
     24          1           0       -1.351817   -3.658266    0.238892
     25          8           0       -0.451817   -2.902639   -2.332677
     26          6           0       -2.728997   -5.322840    0.366782
     27          6           0       -3.624914   -4.819726    1.321096
     28          1           0       -3.627593   -3.755190    1.536902
     29          6           0       -2.721313   -6.699170    0.102703
     30          1           0       -2.002603   -7.105381   -0.608474
     31          6           0       -4.494081   -5.680298    1.991262
     32          1           0       -5.177451   -5.281499    2.736146
     33          6           0       -3.593037   -7.561545    0.773591
     34          1           0       -3.563223   -8.628629    0.570054
     35          6           0       -4.484291   -7.051560    1.717908
     36          1           0       -5.157908   -7.718613    2.248452
     37          7           0       -2.291153   -2.241783   -3.537576
     38          1           0       -3.228272   -1.900601   -3.321745
     39          6           0       -1.505469   -1.268953   -4.343669
     40          1           0       -0.524810   -1.720518   -4.505359
     41          6           0       -1.403023    0.009235   -3.484795
     42          6           0       -2.204309   -0.987955   -5.668226
     43          1           0       -1.607608   -0.286124   -6.258404
     44          1           0       -3.177140   -0.519877   -5.490009
     45          1           0       -2.332154   -1.903743   -6.253949
     46          8           0       -2.349386    0.794026   -3.427747
     47          7           0       -0.277000    0.105205   -2.748869
     48          1           0        0.429636   -0.622982   -2.792509
     49          6           0       -0.092393    1.050161   -1.660773
     50          1           0       -0.579330    1.994074   -1.924353
     51          6           0        1.421074    1.213174   -1.452348
     52          6           0       -0.649072    0.482471   -0.330612
     53          1           0       -0.262054    1.053210    0.518805
     54          1           0       -0.238848   -0.528068   -0.231169
     55          8           0        2.190783    0.311273   -1.768198
     56          6           0       -2.188471    0.424535   -0.260471
     57          1           0       -2.600781    1.434051   -0.168748
     58          1           0       -2.615862   -0.037870   -1.149209
     59          6           0       -2.580693   -0.409831    0.931269
     60          8           0       -2.922392   -1.580363    0.877609
     61          8           0       -2.445450    0.252691    2.091245
     62          7           0        1.817685    2.353642   -0.815526
     63          1           0        1.075337    2.893138   -0.383825
     64          6           0        3.047602    2.307887   -0.015995
     65          1           0        3.835845    1.912618   -0.661037
     66          6           0        2.785732    1.352605    1.170643
     67          6           0        3.404586    3.706311    0.486986
     68          1           0        4.340489    3.675731    1.053451
     69          1           0        2.619717    4.080885    1.154079
     70          1           0        3.523512    4.399641   -0.351152
     71          8           0        1.703189    1.403576    1.763111
     72          7           0        3.775828    0.495710    1.471032
     73          1           0        4.676898    0.545489    1.007440
     74          6           0        3.691507   -0.511249    2.516511
     75          1           0        2.939312   -0.184434    3.238832
     76          6           0        5.080142   -0.609221    3.172448
     77          6           0        3.327894   -1.901038    1.937026
     78          1           0        4.140641   -2.187011    1.255893
     79          1           0        3.337627   -2.630005    2.759225
     80          8           0        6.090212   -0.266052    2.547359
     81          6           0        1.985534   -1.990295    1.188754
     82          1           0        1.977883   -1.206891    0.419869
     83          6           0        1.881801   -3.341199    0.464438
     84          1           0        1.818465   -4.170078    1.182098
     85          1           0        2.754610   -3.517210   -0.175292
     86          1           0        0.995471   -3.371899   -0.178335
     87          6           0        0.788305   -1.778108    2.128547
     88          1           0        0.832118   -2.477011    2.974327
     89          1           0       -0.159010   -1.962821    1.605211
     90          1           0        0.761005   -0.755060    2.514787
     91          7           0        5.084357   -1.130105    4.410264
     92          1           0        4.244473   -1.549292    4.814005
     93          6           0        6.274143   -1.625577    5.080485
     94          1           0        6.772431   -2.365481    4.435704
     95          6           0        5.770115   -2.356704    6.402389
     96          6           0        7.285692   -0.602884    5.548569
     97          1           0        7.949587   -1.256811    6.106864
     98          1           0        6.783729    0.050751    6.271804
     99          8           0        6.602934   -2.419332    7.367056
    100          6           0        8.233101    0.236728    4.706253
    101          1           0        7.780749    1.165973    4.345135
    102          1           0        8.590414   -0.303904    3.823639
    103          6           0        9.434209    0.507524    5.637687
    104          1           0       10.153219    1.210173    5.203530
    105          1           0        9.964768   -0.428728    5.836753
    106          7           0        9.066314    1.079389    6.957793
    107          1           0        8.979748    2.086965    6.979575
    108          7           0        8.472695   -0.782218    8.333927
    109          1           0        8.558082   -1.118802    9.285928
    110          1           0        7.760962   -1.373572    7.769732
    111          7           0        8.988236    1.291435    9.235495
    112          1           0        9.653258    2.050959    9.224692
    113          1           0        8.611770    1.017612   10.131033
    114          6           0        8.828471    0.485971    8.147282
    115          8           0        4.604934   -2.780544    6.369690
    116          1           0       -2.629069   -0.375821    2.815333
 ---------------------------------------------------------------------

 SCF Done:  E(RB3LYP) =  -2782.40747141     A.U. after    1 cycles

 Alpha  occ. eigenvalues --  -19.28887 -19.27269 -19.26804 -19.23195 -19.21610
 Alpha  occ. eigenvalues --  -19.18609 -19.18476 -19.16122 -19.14733 -19.10604
 Alpha  occ. eigenvalues --  -19.09730 -14.59830 -14.50420 -14.46487 -14.46354
 Alpha  occ. eigenvalues --  -14.46215 -14.43305 -14.42862 -14.42067 -14.40484
 Alpha  occ. eigenvalues --  -14.37783 -10.44058 -10.41981 -10.40803 -10.39634
 Alpha  occ. eigenvalues --  -10.39605 -10.39497 -10.35845 -10.35323 -10.33854
 Alpha  occ. eigenvalues --  -10.33289 -10.31884 -10.31570 -10.31196 -10.30376
 Alpha  occ. eigenvalues --  -10.29810 -10.28902 -10.28360 -10.27462 -10.27185
 Alpha  occ. eigenvalues --  -10.26868 -10.26526 -10.26470 -10.26353 -10.26273
 Alpha  occ. eigenvalues --  -10.25980 -10.25922 -10.25894 -10.25533 -10.24092
 Alpha  occ. eigenvalues --  -10.24063 -10.23206 -10.22442 -10.22328 -10.21259
 Alpha  occ. eigenvalues --  -10.20856 -10.20842  -1.20033  -1.17875  -1.16654
 Alpha  occ. eigenvalues --   -1.14858  -1.13487  -1.10915  -1.10163  -1.09880
 Alpha  occ. eigenvalues --   -1.08753  -1.07996  -1.07007  -1.06258  -1.03331
 Alpha  occ. eigenvalues --   -1.02125  -0.99696  -0.99548  -0.98684  -0.97446
 Alpha  occ. eigenvalues --   -0.96885  -0.95288  -0.93999  -0.93457  -0.92539
 Alpha  occ. eigenvalues --   -0.88881  -0.87422  -0.85712  -0.85321  -0.85109
 Alpha  occ. eigenvalues --   -0.84640  -0.83170  -0.81672  -0.81404  -0.80240
 Alpha  occ. eigenvalues --   -0.79479  -0.77588  -0.75396  -0.75158  -0.74774
 Alpha  occ. eigenvalues --   -0.73847  -0.73203  -0.73015  -0.72264  -0.71867
 Alpha  occ. eigenvalues --   -0.71438  -0.70445  -0.70145  -0.68556  -0.67864
 Alpha  occ. eigenvalues --   -0.67520  -0.67438  -0.67017  -0.66727  -0.66062
 Alpha  occ. eigenvalues --   -0.65907  -0.65059  -0.64371  -0.63845  -0.63486
 Alpha  occ. eigenvalues --   -0.62860  -0.62654  -0.62068  -0.60692  -0.60168
 Alpha  occ. eigenvalues --   -0.60074  -0.59832  -0.59337  -0.59197  -0.58360
 Alpha  occ. eigenvalues --   -0.57780  -0.57740  -0.57186  -0.56798  -0.56080
 Alpha  occ. eigenvalues --   -0.55599  -0.55405  -0.54897  -0.53962  -0.53466
 Alpha  occ. eigenvalues --   -0.53292  -0.53071  -0.53047  -0.52764  -0.52488
 Alpha  occ. eigenvalues --   -0.52384  -0.52326  -0.52182  -0.51803  -0.51512
 Alpha  occ. eigenvalues --   -0.51259  -0.51160  -0.50603  -0.50252  -0.49955
 Alpha  occ. eigenvalues --   -0.49392  -0.49283  -0.49118  -0.48937  -0.48467
 Alpha  occ. eigenvalues --   -0.47996  -0.47900  -0.47781  -0.47484  -0.47315
 Alpha  occ. eigenvalues --   -0.46955  -0.46652  -0.46584  -0.46123  -0.45974
 Alpha  occ. eigenvalues --   -0.45601  -0.45329  -0.44947  -0.44927  -0.44849
 Alpha  occ. eigenvalues --   -0.44391  -0.43901  -0.43666  -0.43340  -0.42967
 Alpha  occ. eigenvalues --   -0.42802  -0.42742  -0.42644  -0.42400  -0.42159
 Alpha  occ. eigenvalues --   -0.41854  -0.41541  -0.41346  -0.41337  -0.41294
 Alpha  occ. eigenvalues --   -0.41105  -0.40878  -0.40843  -0.40633  -0.39436
 Alpha  occ. eigenvalues --   -0.39066  -0.38966  -0.38471  -0.38184  -0.38006
 Alpha  occ. eigenvalues --   -0.37202  -0.36629  -0.36181  -0.35973  -0.35838
 Alpha  occ. eigenvalues --   -0.35560  -0.34844  -0.34457  -0.33613  -0.32593
 Alpha  occ. eigenvalues --   -0.32259  -0.31789  -0.31631  -0.31543  -0.30458
 Alpha  occ. eigenvalues --   -0.29589  -0.28363  -0.28066  -0.25849  -0.25168
 Alpha  occ. eigenvalues --   -0.23956
 Alpha virt. eigenvalues --   -0.13835  -0.10215  -0.09399  -0.07983  -0.07579
 Alpha virt. eigenvalues --   -0.07576  -0.07113  -0.05257  -0.05203  -0.04302
 Alpha virt. eigenvalues --   -0.04190  -0.02945  -0.02694  -0.02371  -0.01887

 Mulliken charges:
               1
     1  N   -0.748568
     2  H    0.433386
     3  H    0.423149
     4  H    0.414233
     5  C   -0.119336
     6  H    0.223493
     7  C    0.633449
     8  C    0.086292
     9  H    0.172295
    10  O   -0.539367
    11  C   -0.456089
    12  H    0.173705
    13  H    0.213515
    14  H    0.149195
    15  O   -0.649368
    16  H    0.452602
    17  N   -0.583096
    18  H    0.355662
    19  C   -0.090648
    20  H    0.248146
    21  C    0.618893
    22  C   -0.409381
    23  H    0.173043
    24  H    0.219694
    25  O   -0.463853
    26  C    0.154707
    27  C   -0.186777
    28  H    0.173487
    29  C   -0.219653
    30  H    0.124170
    31  C   -0.133376
    32  H    0.145807
    33  C   -0.131720
    34  H    0.141618
    35  C   -0.129929
    36  H    0.145711
    37  N   -0.677125
    38  H    0.367948
    39  C   -0.052043
    40  H    0.183618
    41  C    0.619474
    42  C   -0.477851
    43  H    0.184778
    44  H    0.173344
    45  H    0.155193
    46  O   -0.543691
    47  N   -0.590132
    48  H    0.369183
    49  C   -0.074733
    50  H    0.181167
    51  C    0.626176
    52  C   -0.317064
    53  H    0.217302
    54  H    0.177935
    55  O   -0.521891
    56  C   -0.332676
    57  H    0.181782
    58  H    0.174862
    59  C    0.579210
    60  O   -0.480095
    61  O   -0.535555
    62  N   -0.574316
    63  H    0.335196
    64  C   -0.062337
    65  H    0.178526
    66  C    0.630621
    67  C   -0.467998
    68  H    0.169731
    69  H    0.166321
    70  H    0.170959
    71  O   -0.555609
    72  N   -0.585676
    73  H    0.348463
    74  C   -0.078857
    75  H    0.180287
    76  C    0.620111
    77  C   -0.258383
    78  H    0.143896
    79  H    0.152933
    80  O   -0.562962
    81  C   -0.081966
    82  H    0.150845
    83  C   -0.467559
    84  H    0.136937
    85  H    0.144291
    86  H    0.154204
    87  C   -0.491799
    88  H    0.141089
    89  H    0.126815
    90  H    0.182638
    91  N   -0.616581
    92  H    0.352817
    93  C   -0.054395
    94  H    0.149682
    95  C    0.603505
    96  C   -0.271420
    97  H    0.144549
    98  H    0.130289
    99  O   -0.624174
   100  C   -0.241047
   101  H    0.148372
   102  H    0.169895
   103  C   -0.178962
   104  H    0.164063
   105  H    0.189098
   106  N   -0.586906
   107  H    0.350017
   108  N   -0.768699
   109  H    0.348335
   110  H    0.456912
   111  N   -0.764273
   112  H    0.361937
   113  H    0.366966
   114  C    0.762645
   115  O   -0.563732
   116  H    0.420503
 Sum of Mulliken charges =   1.00000

 Dipole moment (field-independent basis, Debye):
    X=             -7.4142    Y=            -10.3216    Z=             -5.7623  Tot=             13.9538
 Quadrupole moment (field-independent basis, Debye-Ang):
   XX=            -40.5594   YY=           -223.2770   ZZ=           -144.3738
   XY=            176.6277   XZ=            225.4623   YZ=            147.2192

 Normal termination of Gaussian 16 at Sat Jun 25 10:10:06 2022.
