 Gaussian 16, Revision C.01,
 Gaussian 16:  ES64L-G16RevC.01  3-Jul-2019

 ----------------------------------------------------------------------
 # B3LYP/6-31G* empiricaldispersion=gd3 guess=read geom=check nosymm in
 tegral(ultrafinegrid)
 ----------------------------------------------------------------------

 ------------------------------------------------------
 Candidate Structure: Conf:684 Charge calc in gas phase
 ------------------------------------------------------
 Structure from the checkpoint file:  "conf-684.chk"
 Charge =  1 Multiplicity = 1

                          Input orientation:
 ---------------------------------------------------------------------
 Center     Atomic      Atomic             Coordinates (Angstroms)
 Number     Number       Type             X           Y           Z
 ---------------------------------------------------------------------
      1          7           0       -8.242908   -0.477074   -2.713695
      2          1           0       -8.759526   -1.270471   -2.325126
      3          1           0       -7.874094    0.101028   -1.920047
      4          1           0       -8.848458    0.052713   -3.361502
      5          6           0       -7.002238   -0.889678   -3.463134
      6          1           0       -7.146692   -1.901330   -3.848587
      7          6           0       -5.871964   -0.773134   -2.413750
      8          6           0       -6.809863    0.107814   -4.631478
      9          1           0       -6.472845    1.066452   -4.206398
     10          8           0       -6.086533   -0.060828   -1.425425
     11          6           0       -5.813107   -0.389245   -5.672845
     12          1           0       -4.803217   -0.498180   -5.264934
     13          1           0       -5.755753    0.333162   -6.493905
     14          1           0       -6.141221   -1.348119   -6.087744
     15          8           0       -8.130423    0.249279   -5.169156
     16          1           0       -8.124408    0.916922   -5.873546
     17          7           0       -4.747959   -1.421486   -2.697323
     18          1           0       -4.632329   -1.911060   -3.583615
     19          6           0       -3.472569   -1.234786   -2.006172
     20          1           0       -3.536951   -0.333502   -1.391467
     21          6           0       -2.435293   -1.089582   -3.132689
     22          6           0       -3.151980   -2.469458   -1.117306
     23          1           0       -3.944299   -2.531080   -0.362377
     24          1           0       -3.236439   -3.359378   -1.752495
     25          8           0       -2.643305   -1.624858   -4.230100
     26          6           0       -1.789425   -2.426420   -0.460050
     27          6           0       -0.697481   -3.077033   -1.051253
     28          1           0       -0.838115   -3.617090   -1.986121
     29          6           0       -1.593909   -1.739981    0.746413
     30          1           0       -2.435694   -1.237374    1.220184
     31          6           0        0.556064   -3.060338   -0.436417
     32          1           0        1.385181   -3.597077   -0.890493
     33          6           0       -0.342533   -1.726547    1.367294
     34          1           0       -0.186082   -1.232839    2.321853
     35          6           0        0.735010   -2.393741    0.777912
     36          1           0        1.685314   -2.424465    1.299736
     37          7           0       -1.329175   -0.411368   -2.811563
     38          1           0       -1.200104   -0.043226   -1.872025
     39          6           0       -0.106788   -0.458000   -3.607786
     40          1           0       -0.010142   -1.465644   -4.027431
     41          6           0        1.019914   -0.165727   -2.610518
     42          6           0       -0.114706    0.577447   -4.742105
     43          1           0        0.811519    0.521579   -5.323718
     44          1           0       -0.207274    1.586227   -4.328397
     45          1           0       -0.959637    0.378267   -5.406676
     46          8           0        0.795932    0.573645   -1.643631
     47          7           0        2.224904   -0.718439   -2.847554
     48          1           0        2.367152   -1.300680   -3.662378
     49          6           0        3.304423   -0.584811   -1.862088
     50          1           0        2.792090   -0.460365   -0.906756
     51          6           0        4.147900    0.694244   -2.087991
     52          6           0        4.175851   -1.836963   -1.794482
     53          1           0        4.757357   -1.935943   -2.717899
     54          1           0        3.518639   -2.710198   -1.704270
     55          8           0        5.326204    0.662346   -2.423013
     56          6           0        5.168344   -1.807390   -0.607665
     57          1           0        5.705513   -2.757550   -0.564842
     58          1           0        5.883895   -0.999526   -0.775874
     59          6           0        4.475219   -1.557167    0.720324
     60          8           0        3.999108   -0.454999    1.014850
     61          8           0        4.414644   -2.621530    1.488509
     62          7           0        3.460594    1.833730   -1.808202
     63          1           0        2.490008    1.722029   -1.527640
     64          6           0        4.104670    3.112962   -1.526599
     65          1           0        5.183419    2.919507   -1.539103
     66          6           0        3.698578    3.567595   -0.102603
     67          6           0        3.760896    4.185561   -2.559114
     68          1           0        4.232593    5.133139   -2.289788
     69          1           0        2.678631    4.350237   -2.598141
     70          1           0        4.108144    3.869721   -3.547124
     71          8           0        3.490398    4.746933    0.164138
     72          7           0        3.552387    2.553755    0.794418
     73          1           0        3.767021    1.595598    0.532612
     74          6           0        2.904331    2.742546    2.079366
     75          1           0        2.945944    3.817037    2.287678
     76          6           0        3.783900    2.033254    3.130118
     77          6           0        1.444362    2.240219    2.036257
     78          1           0        1.460487    1.154456    1.882796
     79          1           0        0.974271    2.410819    3.016785
     80          8           0        5.002322    2.227480    3.161587
     81          6           0        0.548228    2.887912    0.964711
     82          1           0        1.044844    2.776300   -0.007041
     83          6           0       -0.779722    2.120851    0.879657
     84          1           0       -1.327052    2.173353    1.830393
     85          1           0       -0.607568    1.065832    0.643300
     86          1           0       -1.423083    2.548391    0.100132
     87          6           0        0.317448    4.384003    1.217670
     88          1           0       -0.141233    4.545090    2.203229
     89          1           0       -0.362920    4.802352    0.466193
     90          1           0        1.252078    4.949666    1.165692
     91          7           0        3.186436    1.177984    4.031004
     92          1           0        2.178272    1.015406    3.899779
     93          6           0        3.747741   -0.203231    4.125410
     94          1           0        4.456268   -0.313194    3.303237
     95          6           0        2.540821   -1.147811    3.789042
     96          6           0        4.458167   -0.628898    5.424894
     97          1           0        4.333465   -1.714988    5.474637
     98          1           0        3.935950   -0.213954    6.297415
     99          8           0        2.858549   -2.332158    3.476548
    100          6           0        5.977297   -0.319276    5.475813
    101          1           0        6.355144   -0.171133    4.457256
    102          1           0        6.525226   -1.176970    5.883993
    103          6           0        6.366107    0.896884    6.326829
    104          1           0        7.433854    1.119032    6.223204
    105          1           0        6.162434    0.696908    7.383900
    106          7           0        5.571537    2.063270    5.916854
    107          1           0        5.409513    2.145191    4.895348
    108          7           0        5.029364    2.910272    8.016442
    109          1           0        4.316523    3.156162    8.686663
    110          1           0        5.978659    2.818178    8.345888
    111          7           0        3.576699    3.175463    6.215709
    112          1           0        3.166621    2.630807    5.449367
    113          1           0        3.017229    3.849027    6.717894
    114          6           0        4.731761    2.712303    6.714939
    115          8           0        1.398385   -0.646000    3.842964
    116          1           0        3.854086   -2.457489    2.348520
 ---------------------------------------------------------------------

 SCF Done:  E(RB3LYP) =  -2782.45859595     A.U. after    1 cycles

 Alpha  occ. eigenvalues --  -19.30158 -19.26120 -19.21281 -19.20613 -19.20137
 Alpha  occ. eigenvalues --  -19.19037 -19.17524 -19.16408 -19.15422 -19.13328
 Alpha  occ. eigenvalues --  -19.13107 -14.59384 -14.49186 -14.48094 -14.46365
 Alpha  occ. eigenvalues --  -14.45378 -14.44747 -14.44574 -14.40324 -14.40081
 Alpha  occ. eigenvalues --  -14.39585 -10.43275 -10.43106 -10.40413 -10.39679
 Alpha  occ. eigenvalues --  -10.38139 -10.37090 -10.35591 -10.35183 -10.33780
 Alpha  occ. eigenvalues --  -10.33391 -10.32550 -10.31975 -10.31155 -10.30803
 Alpha  occ. eigenvalues --  -10.30442 -10.28739 -10.28095 -10.27978 -10.27352
 Alpha  occ. eigenvalues --  -10.26476 -10.25993 -10.25672 -10.25332 -10.25189
 Alpha  occ. eigenvalues --  -10.24568 -10.24237 -10.24181 -10.24091 -10.23632
 Alpha  occ. eigenvalues --  -10.23057 -10.22967 -10.22894 -10.22835 -10.21534
 Alpha  occ. eigenvalues --  -10.21417 -10.20797  -1.19077  -1.17335  -1.13379
 Alpha  occ. eigenvalues --   -1.12942  -1.12636  -1.12017  -1.11752  -1.10333
 Alpha  occ. eigenvalues --   -1.08251  -1.07183  -1.06645  -1.05832  -1.03786
 Alpha  occ. eigenvalues --   -1.01590  -1.00759  -1.00473  -1.00047  -0.98522
 Alpha  occ. eigenvalues --   -0.97721  -0.96452  -0.95689  -0.93382  -0.91246
 Alpha  occ. eigenvalues --   -0.88105  -0.86326  -0.85947  -0.85029  -0.84721
 Alpha  occ. eigenvalues --   -0.84091  -0.81590  -0.80664  -0.80532  -0.79381
 Alpha  occ. eigenvalues --   -0.78463  -0.77372  -0.77143  -0.74530  -0.74339
 Alpha  occ. eigenvalues --   -0.74005  -0.73641  -0.72119  -0.72059  -0.71507
 Alpha  occ. eigenvalues --   -0.71041  -0.70905  -0.69875  -0.68848  -0.68462
 Alpha  occ. eigenvalues --   -0.67462  -0.66749  -0.66404  -0.66149  -0.65618
 Alpha  occ. eigenvalues --   -0.65057  -0.64953  -0.63915  -0.63358  -0.62915
 Alpha  occ. eigenvalues --   -0.62758  -0.62453  -0.62221  -0.61284  -0.61026
 Alpha  occ. eigenvalues --   -0.60404  -0.60317  -0.59121  -0.58736  -0.58284
 Alpha  occ. eigenvalues --   -0.57607  -0.56797  -0.56599  -0.56203  -0.55915
 Alpha  occ. eigenvalues --   -0.55621  -0.54870  -0.54400  -0.54198  -0.53974
 Alpha  occ. eigenvalues --   -0.53396  -0.53045  -0.52941  -0.52613  -0.52131
 Alpha  occ. eigenvalues --   -0.52024  -0.51810  -0.51624  -0.51359  -0.50879
 Alpha  occ. eigenvalues --   -0.50591  -0.50485  -0.49934  -0.49747  -0.49442
 Alpha  occ. eigenvalues --   -0.49364  -0.49216  -0.49087  -0.48581  -0.48313
 Alpha  occ. eigenvalues --   -0.48079  -0.47567  -0.47360  -0.47139  -0.46857
 Alpha  occ. eigenvalues --   -0.46585  -0.46169  -0.45988  -0.45847  -0.45727
 Alpha  occ. eigenvalues --   -0.45589  -0.45320  -0.44905  -0.44732  -0.44678
 Alpha  occ. eigenvalues --   -0.44348  -0.43790  -0.43663  -0.42877  -0.42621
 Alpha  occ. eigenvalues --   -0.42483  -0.42288  -0.42188  -0.42101  -0.41913
 Alpha  occ. eigenvalues --   -0.41308  -0.41172  -0.40872  -0.40624  -0.40586
 Alpha  occ. eigenvalues --   -0.40475  -0.40177  -0.39696  -0.39549  -0.39420
 Alpha  occ. eigenvalues --   -0.39229  -0.38789  -0.38648  -0.38204  -0.38177
 Alpha  occ. eigenvalues --   -0.37467  -0.36567  -0.36395  -0.35495  -0.35433
 Alpha  occ. eigenvalues --   -0.35305  -0.34573  -0.34269  -0.33720  -0.33546
 Alpha  occ. eigenvalues --   -0.32072  -0.31431  -0.30978  -0.30109  -0.29627
 Alpha  occ. eigenvalues --   -0.29310  -0.28989  -0.28791  -0.28154  -0.27613
 Alpha  occ. eigenvalues --   -0.27248
 Alpha virt. eigenvalues --   -0.12143  -0.09854  -0.08464  -0.07667  -0.06502
 Alpha virt. eigenvalues --   -0.06129  -0.05786  -0.05608  -0.05420  -0.04188
 Alpha virt. eigenvalues --   -0.03725  -0.03660  -0.02766  -0.02290  -0.01544

 Mulliken charges:
               1
     1  N   -0.746748
     2  H    0.417025
     3  H    0.424779
     4  H    0.429728
     5  C   -0.126548
     6  H    0.215322
     7  C    0.638124
     8  C    0.126593
     9  H    0.171357
    10  O   -0.530973
    11  C   -0.494670
    12  H    0.201960
    13  H    0.181426
    14  H    0.180653
    15  O   -0.647851
    16  H    0.433515
    17  N   -0.584616
    18  H    0.368106
    19  C   -0.087143
    20  H    0.198623
    21  C    0.634395
    22  C   -0.346605
    23  H    0.170533
    24  H    0.160762
    25  O   -0.563216
    26  C    0.149660
    27  C   -0.193892
    28  H    0.123097
    29  C   -0.199229
    30  H    0.125120
    31  C   -0.148432
    32  H    0.136198
    33  C   -0.143994
    34  H    0.202259
    35  C   -0.137497
    36  H    0.175613
    37  N   -0.599991
    38  H    0.379776
    39  C   -0.031596
    40  H    0.172498
    41  C    0.637049
    42  C   -0.446672
    43  H    0.163491
    44  H    0.172472
    45  H    0.177638
    46  O   -0.552507
    47  N   -0.611869
    48  H    0.339981
    49  C   -0.080194
    50  H    0.218173
    51  C    0.618950
    52  C   -0.306594
    53  H    0.166943
    54  H    0.153517
    55  O   -0.517930
    56  C   -0.342342
    57  H    0.170716
    58  H    0.204419
    59  C    0.592372
    60  O   -0.527407
    61  O   -0.598931
    62  N   -0.640712
    63  H    0.385363
    64  C   -0.064139
    65  H    0.203104
    66  C    0.604280
    67  C   -0.428871
    68  H    0.177347
    69  H    0.141740
    70  H    0.152216
    71  O   -0.526332
    72  N   -0.611496
    73  H    0.385112
    74  C   -0.044056
    75  H    0.192060
    76  C    0.568430
    77  C   -0.295626
    78  H    0.180888
    79  H    0.122183
    80  O   -0.514876
    81  C   -0.073908
    82  H    0.134957
    83  C   -0.457409
    84  H    0.132248
    85  H    0.167744
    86  H    0.120757
    87  C   -0.465270
    88  H    0.122214
    89  H    0.135169
    90  H    0.187632
    91  N   -0.685694
    92  H    0.383669
    93  C   -0.068278
    94  H    0.184472
    95  C    0.625046
    96  C   -0.279452
    97  H    0.188017
    98  H    0.128247
    99  O   -0.620425
   100  C   -0.294263
   101  H    0.176660
   102  H    0.162469
   103  C   -0.165639
   104  H    0.178459
   105  H    0.157787
   106  N   -0.598883
   107  H    0.424020
   108  N   -0.748243
   109  H    0.369032
   110  H    0.378197
   111  N   -0.769172
   112  H    0.406416
   113  H    0.356632
   114  C    0.756990
   115  O   -0.568655
   116  H    0.466450
 Sum of Mulliken charges =   1.00000

 Dipole moment (field-independent basis, Debye):
    X=            -20.5445    Y=              3.3873    Z=             -0.7698  Tot=             20.8361
 Quadrupole moment (field-independent basis, Debye-Ang):
   XX=            -69.1195   YY=           -333.9965   ZZ=           -123.8185
   XY=             25.4193   XZ=            187.0789   YZ=             70.3261

 Normal termination of Gaussian 16 at Sat Jun 25 10:10:17 2022.
