 Gaussian 16, Revision C.01,
 Gaussian 16:  ES64L-G16RevC.01  3-Jul-2019

 ----------------------------------------------------------------------
 # B3LYP/6-31G* empiricaldispersion=gd3 guess=read geom=check nosymm in
 tegral(ultrafinegrid)
 ----------------------------------------------------------------------

 -----------------------------------------------------
 Candidate Structure: Conf:90 Charge calc in gas phase
 -----------------------------------------------------
 Structure from the checkpoint file:  "conf-90.chk"
 Charge =  1 Multiplicity = 1

                          Input orientation:
 ---------------------------------------------------------------------
 Center     Atomic      Atomic             Coordinates (Angstroms)
 Number     Number       Type             X           Y           Z
 ---------------------------------------------------------------------
      1          7           0       -2.758581    1.420739    0.299804
      2          1           0       -2.260270    2.179226    0.860164
      3          1           0       -3.668284    1.689047   -0.095358
      4          1           0       -2.861235    0.601768    0.930601
      5          6           0       -1.843743    0.972837   -0.790933
      6          1           0       -0.999803    1.664447   -0.809737
      7          6           0       -2.616180    0.982761   -2.108845
      8          6           0       -1.359129   -0.504022   -0.454168
      9          1           0       -1.993512   -1.193760   -1.018157
     10          8           0       -3.838760    0.869281   -2.108535
     11          6           0        0.098916   -0.716409   -0.846985
     12          1           0        0.263972   -0.483580   -1.901982
     13          1           0        0.360362   -1.766290   -0.687747
     14          1           0        0.747516   -0.097302   -0.219846
     15          8           0       -1.599952   -0.785839    0.912869
     16          1           0       -0.946226   -0.265725    1.451166
     17          7           0       -1.841857    1.071607   -3.215235
     18          1           0       -0.836997    1.135214   -3.096065
     19          6           0       -2.242984    0.502191   -4.500744
     20          1           0       -3.272965    0.156197   -4.383956
     21          6           0       -1.316005   -0.739797   -4.655167
     22          6           0       -2.135389    1.537409   -5.635103
     23          1           0       -1.075269    1.773556   -5.780962
     24          1           0       -2.498058    1.064753   -6.560583
     25          8           0       -1.195109   -1.525086   -3.727143
     26          6           0       -2.874966    2.840276   -5.412197
     27          6           0       -4.234709    2.869963   -5.075214
     28          1           0       -4.772372    1.943270   -4.893817
     29          6           0       -2.202001    4.053071   -5.604700
     30          1           0       -1.140123    4.061334   -5.837772
     31          6           0       -4.907987    4.086719   -4.961702
     32          1           0       -5.963159    4.093964   -4.702625
     33          6           0       -2.873779    5.271589   -5.497799
     34          1           0       -2.323345    6.195672   -5.649722
     35          6           0       -4.233742    5.290325   -5.185795
     36          1           0       -4.764234    6.235155   -5.104789
     37          7           0       -0.561322   -0.861865   -5.809796
     38          1           0       -0.668964   -0.101370   -6.469542
     39          6           0        0.833850   -1.244224   -5.616817
     40          1           0        0.838486   -2.114656   -4.953224
     41          6           0        1.530613   -0.081038   -4.851417
     42          6           0        1.499069   -1.594018   -6.951010
     43          1           0        2.511747   -1.986985   -6.811072
     44          1           0        1.562074   -0.719552   -7.608832
     45          1           0        0.913157   -2.366530   -7.455183
     46          8           0        0.852250    0.810253   -4.313099
     47          7           0        2.875732   -0.056600   -4.773722
     48          1           0        3.429316   -0.737574   -5.275929
     49          6           0        3.569123    0.983444   -3.996327
     50          1           0        2.887641    1.248325   -3.181345
     51          6           0        3.783895    2.294885   -4.808251
     52          6           0        4.881715    0.455501   -3.411863
     53          1           0        5.633457    0.359396   -4.201194
     54          1           0        4.701553   -0.540264   -2.990808
     55          8           0        4.891170    2.816741   -4.907978
     56          6           0        5.406754    1.397836   -2.317177
     57          1           0        5.616774    2.376760   -2.767064
     58          1           0        4.654519    1.579169   -1.542398
     59          6           0        6.678720    0.971541   -1.645746
     60          8           0        7.086975    1.441009   -0.583733
     61          8           0        7.377296    0.054644   -2.318427
     62          7           0        2.637060    2.829771   -5.305036
     63          1           0        1.775059    2.370177   -5.021879
     64          6           0        2.512300    4.225619   -5.738485
     65          1           0        3.522652    4.647151   -5.714140
     66          6           0        1.625548    4.985712   -4.702999
     67          6           0        1.928690    4.335509   -7.144130
     68          1           0        1.784354    5.384850   -7.409974
     69          1           0        0.950591    3.844579   -7.199375
     70          1           0        2.600945    3.863804   -7.866504
     71          8           0        0.749580    5.768374   -5.053991
     72          7           0        1.928249    4.657787   -3.418936
     73          1           0        2.643853    3.953055   -3.286886
     74          6           0        1.108490    4.795372   -2.219436
     75          1           0        1.224666    5.801326   -1.797016
     76          6           0        1.716243    3.771126   -1.227499
     77          6           0       -0.395834    4.535552   -2.511316
     78          1           0       -0.650035    5.164636   -3.367366
     79          1           0       -0.501853    3.498169   -2.855206
     80          8           0        2.581179    2.959492   -1.601472
     81          6           0       -1.411100    4.820210   -1.385897
     82          1           0       -1.264972    4.108465   -0.568216
     83          6           0       -1.275869    6.240277   -0.812199
     84          1           0       -1.358939    6.989996   -1.608954
     85          1           0       -0.319580    6.410864   -0.300939
     86          1           0       -2.068141    6.435333   -0.081396
     87          6           0       -2.838333    4.610229   -1.915802
     88          1           0       -3.099289    5.372193   -2.655821
     89          1           0       -3.565122    4.676824   -1.096622
     90          1           0       -2.960971    3.641845   -2.410362
     91          7           0        1.272031    3.794766    0.044867
     92          1           0        0.468805    4.367911    0.279254
     93          6           0        1.450043    2.645560    0.933084
     94          1           0        1.782297    1.815939    0.302844
     95          6           0        0.083568    2.197151    1.514655
     96          6           0        2.519957    2.864670    2.011394
     97          1           0        2.386312    2.088172    2.773405
     98          1           0        2.361021    3.838016    2.493272
     99          8           0        0.077923    1.047758    2.008046
    100          6           0        3.927143    2.772234    1.411599
    101          1           0        4.028617    3.472959    0.574646
    102          1           0        4.064489    1.764962    0.995489
    103          6           0        5.028523    3.030238    2.438081
    104          1           0        4.890120    2.386903    3.316985
    105          1           0        4.999984    4.076131    2.771359
    106          7           0        6.336237    2.733058    1.831479
    107          1           0        6.353434    2.461126    0.844956
    108          7           0        7.589837    2.958156    3.775850
    109          1           0        8.344255    2.623115    4.356719
    110          1           0        6.854528    3.481712    4.226476
    111          7           0        8.510661    1.940716    1.904038
    112          1           0        8.386685    1.607025    0.950946
    113          1           0        9.451915    2.122708    2.222436
    114          6           0        7.469384    2.553011    2.499026
    115          8           0       -0.893806    2.992635    1.366211
    116          1           0        8.202151   -0.129631   -1.829854
 ---------------------------------------------------------------------

 SCF Done:  E(RB3LYP) =  -2782.49969923     A.U. after    1 cycles

 Alpha  occ. eigenvalues --  -19.32149 -19.27267 -19.23086 -19.21393 -19.21153
 Alpha  occ. eigenvalues --  -19.20223 -19.20073 -19.19977 -19.18078 -19.17928
 Alpha  occ. eigenvalues --  -19.17018 -14.51873 -14.50588 -14.50507 -14.49562
 Alpha  occ. eigenvalues --  -14.47522 -14.44129 -14.43915 -14.43795 -14.43351
 Alpha  occ. eigenvalues --  -14.41957 -10.47459 -10.45009 -10.39709 -10.37677
 Alpha  occ. eigenvalues --  -10.37288 -10.37046 -10.37035 -10.35392 -10.35247
 Alpha  occ. eigenvalues --  -10.35182 -10.33205 -10.32706 -10.32532 -10.32016
 Alpha  occ. eigenvalues --  -10.31286 -10.31136 -10.30150 -10.30085 -10.29880
 Alpha  occ. eigenvalues --  -10.29418 -10.29200 -10.28093 -10.27774 -10.26742
 Alpha  occ. eigenvalues --  -10.25370 -10.24763 -10.24743 -10.24547 -10.24149
 Alpha  occ. eigenvalues --  -10.24080 -10.24017 -10.23908 -10.23862 -10.23767
 Alpha  occ. eigenvalues --  -10.23434 -10.22299  -1.23353  -1.16077  -1.15093
 Alpha  occ. eigenvalues --   -1.13987  -1.12770  -1.12591  -1.11814  -1.11631
 Alpha  occ. eigenvalues --   -1.10962  -1.09667  -1.09327  -1.05184  -1.04506
 Alpha  occ. eigenvalues --   -1.04270  -1.03286  -1.02123  -1.00999  -1.00889
 Alpha  occ. eigenvalues --   -1.00736  -1.00399  -0.98463  -0.90968  -0.90784
 Alpha  occ. eigenvalues --   -0.90591  -0.87523  -0.87404  -0.85923  -0.84707
 Alpha  occ. eigenvalues --   -0.84400  -0.83954  -0.82352  -0.80984  -0.79977
 Alpha  occ. eigenvalues --   -0.79382  -0.78593  -0.77512  -0.76508  -0.75488
 Alpha  occ. eigenvalues --   -0.74226  -0.73977  -0.73465  -0.72994  -0.72568
 Alpha  occ. eigenvalues --   -0.72227  -0.70478  -0.69794  -0.69698  -0.68983
 Alpha  occ. eigenvalues --   -0.68832  -0.67164  -0.67131  -0.67036  -0.66188
 Alpha  occ. eigenvalues --   -0.65995  -0.65388  -0.65202  -0.64435  -0.64223
 Alpha  occ. eigenvalues --   -0.63995  -0.63685  -0.63201  -0.62640  -0.61652
 Alpha  occ. eigenvalues --   -0.61285  -0.60733  -0.60560  -0.60221  -0.59751
 Alpha  occ. eigenvalues --   -0.59152  -0.58404  -0.57748  -0.57278  -0.57103
 Alpha  occ. eigenvalues --   -0.56736  -0.56515  -0.56288  -0.55886  -0.55303
 Alpha  occ. eigenvalues --   -0.55250  -0.55012  -0.54541  -0.53989  -0.53262
 Alpha  occ. eigenvalues --   -0.53059  -0.52726  -0.52397  -0.52326  -0.51720
 Alpha  occ. eigenvalues --   -0.51467  -0.51305  -0.51143  -0.50923  -0.50824
 Alpha  occ. eigenvalues --   -0.50291  -0.50119  -0.49963  -0.49650  -0.49455
 Alpha  occ. eigenvalues --   -0.49232  -0.48902  -0.48739  -0.48620  -0.48476
 Alpha  occ. eigenvalues --   -0.48187  -0.48088  -0.47635  -0.47579  -0.47495
 Alpha  occ. eigenvalues --   -0.47060  -0.46734  -0.46540  -0.46321  -0.46093
 Alpha  occ. eigenvalues --   -0.45705  -0.45497  -0.45334  -0.45061  -0.44757
 Alpha  occ. eigenvalues --   -0.44674  -0.44341  -0.44155  -0.44106  -0.43962
 Alpha  occ. eigenvalues --   -0.43830  -0.43704  -0.43584  -0.43339  -0.42734
 Alpha  occ. eigenvalues --   -0.42571  -0.42521  -0.42090  -0.41699  -0.40940
 Alpha  occ. eigenvalues --   -0.40909  -0.40061  -0.39575  -0.39133  -0.39037
 Alpha  occ. eigenvalues --   -0.38956  -0.38532  -0.38268  -0.38004  -0.37127
 Alpha  occ. eigenvalues --   -0.35811  -0.35485  -0.35122  -0.34951  -0.34742
 Alpha  occ. eigenvalues --   -0.34292  -0.33927  -0.33116  -0.32942  -0.32494
 Alpha  occ. eigenvalues --   -0.32241  -0.31793  -0.30704  -0.30447  -0.29967
 Alpha  occ. eigenvalues --   -0.29508
 Alpha virt. eigenvalues --   -0.11794  -0.11246  -0.09436  -0.08264  -0.07275
 Alpha virt. eigenvalues --   -0.07134  -0.06638  -0.05612  -0.05216  -0.05172
 Alpha virt. eigenvalues --   -0.04369  -0.04189  -0.03775  -0.03495  -0.02529

 Mulliken charges:
               1
     1  N   -0.778826
     2  H    0.434048
     3  H    0.399078
     4  H    0.405169
     5  C   -0.123413
     6  H    0.185848
     7  C    0.625460
     8  C    0.134660
     9  H    0.193140
    10  O   -0.525579
    11  C   -0.496885
    12  H    0.159203
    13  H    0.174158
    14  H    0.161283
    15  O   -0.660205
    16  H    0.447608
    17  N   -0.594082
    18  H    0.381017
    19  C   -0.051411
    20  H    0.211879
    21  C    0.591111
    22  C   -0.413335
    23  H    0.147769
    24  H    0.166569
    25  O   -0.498137
    26  C    0.188760
    27  C   -0.175862
    28  H    0.139696
    29  C   -0.199170
    30  H    0.141227
    31  C   -0.128815
    32  H    0.141084
    33  C   -0.140541
    34  H    0.155082
    35  C   -0.133865
    36  H    0.139273
    37  N   -0.565517
    38  H    0.334922
    39  C   -0.086026
    40  H    0.218290
    41  C    0.643912
    42  C   -0.475294
    43  H    0.155059
    44  H    0.167849
    45  H    0.200795
    46  O   -0.571030
    47  N   -0.609707
    48  H    0.348105
    49  C   -0.080150
    50  H    0.224659
    51  C    0.601331
    52  C   -0.288129
    53  H    0.182417
    54  H    0.155985
    55  O   -0.520573
    56  C   -0.404338
    57  H    0.241077
    58  H    0.210952
    59  C    0.613934
    60  O   -0.524401
    61  O   -0.523208
    62  N   -0.620717
    63  H    0.372668
    64  C   -0.074384
    65  H    0.203219
    66  C    0.605356
    67  C   -0.437238
    68  H    0.185515
    69  H    0.147598
    70  H    0.155572
    71  O   -0.520206
    72  N   -0.645012
    73  H    0.370531
    74  C   -0.020398
    75  H    0.178978
    76  C    0.590209
    77  C   -0.300373
    78  H    0.209695
    79  H    0.128036
    80  O   -0.568202
    81  C   -0.126464
    82  H    0.147148
    83  C   -0.455152
    84  H    0.158758
    85  H    0.126610
    86  H    0.157860
    87  C   -0.478163
    88  H    0.165464
    89  H    0.131915
    90  H    0.165232
    91  N   -0.598764
    92  H    0.373014
    93  C   -0.070003
    94  H    0.176213
    95  C    0.607941
    96  C   -0.267200
    97  H    0.176478
    98  H    0.151368
    99  O   -0.588098
   100  C   -0.316765
   101  H    0.181799
   102  H    0.158423
   103  C   -0.141197
   104  H    0.177443
   105  H    0.177296
   106  N   -0.629164
   107  H    0.406425
   108  N   -0.759204
   109  H    0.381060
   110  H    0.388314
   111  N   -0.778900
   112  H    0.397147
   113  H    0.369463
   114  C    0.805091
   115  O   -0.608380
   116  H    0.422236
 Sum of Mulliken charges =   1.00000

 Dipole moment (field-independent basis, Debye):
    X=             27.9209    Y=              7.9445    Z=             -0.2465  Tot=             29.0302
 Quadrupole moment (field-independent basis, Debye-Ang):
   XX=            -96.3889   YY=           -316.2744   ZZ=           -253.1152
   XY=             36.7776   XZ=             57.6892   YZ=             45.4682

 Normal termination of Gaussian 16 at Sat Jun 25 09:45:38 2022.
