 Gaussian 16, Revision C.01,
 Gaussian 16:  ES64L-G16RevC.01  3-Jul-2019

 ----------------------------------------------------------------------
 # B3LYP/6-31G* empiricaldispersion=gd3 guess=read geom=check nosymm in
 tegral(ultrafinegrid)
 ----------------------------------------------------------------------

 ------------------------------------------------------
 Candidate Structure: Conf:883 Charge calc in gas phase
 ------------------------------------------------------
 Structure from the checkpoint file:  "conf-883.chk"
 Charge =  1 Multiplicity = 1

                          Input orientation:
 ---------------------------------------------------------------------
 Center     Atomic      Atomic             Coordinates (Angstroms)
 Number     Number       Type             X           Y           Z
 ---------------------------------------------------------------------
      1          7           0       -4.865746    2.276509    0.050281
      2          1           0       -4.509621    3.188805    0.452991
      3          1           0       -5.820797    2.118094    0.375523
      4          1           0       -4.172630    1.633997    0.542774
      5          6           0       -4.762961    2.260375   -1.447665
      6          1           0       -5.283680    1.371263   -1.815386
      7          6           0       -3.261217    2.215795   -1.766291
      8          6           0       -5.402003    3.557487   -2.013672
      9          1           0       -5.120747    3.600492   -3.078807
     10          8           0       -2.565861    3.204470   -1.515121
     11          6           0       -6.921984    3.562114   -1.901111
     12          1           0       -7.365145    2.722134   -2.446283
     13          1           0       -7.308959    4.494637   -2.319638
     14          1           0       -7.242590    3.521749   -0.853514
     15          8           0       -4.917384    4.678428   -1.303630
     16          1           0       -3.939965    4.636457   -1.329625
     17          7           0       -2.778080    1.064579   -2.281748
     18          1           0       -3.388546    0.267225   -2.416606
     19          6           0       -1.360809    0.759743   -2.171302
     20          1           0       -0.852006    1.712589   -2.008628
     21          6           0       -0.795664    0.047857   -3.395573
     22          6           0       -1.123997   -0.133247   -0.913996
     23          1           0       -0.051692   -0.302760   -0.845580
     24          1           0       -1.450378    0.470392   -0.068056
     25          8           0       -1.467069   -0.681319   -4.106132
     26          6           0       -1.855369   -1.456450   -0.899672
     27          6           0       -3.005045   -1.615720   -0.112937
     28          1           0       -3.343848   -0.783456    0.499294
     29          6           0       -1.392006   -2.558920   -1.634449
     30          1           0       -0.499976   -2.475352   -2.241846
     31          6           0       -3.678653   -2.840433   -0.066091
     32          1           0       -4.560765   -2.948245    0.559611
     33          6           0       -2.068154   -3.777956   -1.599597
     34          1           0       -1.708415   -4.599393   -2.214642
     35          6           0       -3.215270   -3.924073   -0.812571
     36          1           0       -3.742339   -4.873634   -0.783854
     37          7           0        0.570935    0.213192   -3.520834
     38          1           0        0.993845    0.753428   -2.772166
     39          6           0        1.423017   -0.892408   -3.943740
     40          1           0        0.768375   -1.675771   -4.344902
     41          6           0        2.099164   -1.440359   -2.670240
     42          6           0        2.434563   -0.463107   -5.014964
     43          1           0        3.051947   -1.302507   -5.352016
     44          1           0        3.099192    0.320285   -4.632422
     45          1           0        1.897497   -0.065401   -5.879389
     46          8           0        1.794305   -1.011591   -1.558653
     47          7           0        3.094598   -2.372752   -2.774898
     48          1           0        3.161776   -2.898535   -3.637022
     49          6           0        3.458924   -3.048073   -1.519140
     50          1           0        2.539791   -3.160389   -0.934272
     51          6           0        4.291098   -2.156136   -0.579583
     52          6           0        4.029181   -4.453099   -1.722953
     53          1           0        4.210502   -4.849311   -0.720662
     54          1           0        4.994132   -4.420850   -2.241179
     55          8           0        4.423913   -2.479703    0.597541
     56          6           0        3.059239   -5.387375   -2.504792
     57          1           0        3.235527   -5.323884   -3.581631
     58          1           0        3.229314   -6.423511   -2.198041
     59          6           0        1.603609   -5.016929   -2.289101
     60          8           0        0.928590   -4.411588   -3.099810
     61          8           0        1.154542   -5.360885   -1.066273
     62          7           0        4.771198   -0.985318   -1.090543
     63          1           0        4.481113   -0.769091   -2.036214
     64          6           0        4.987305    0.171215   -0.211134
     65          1           0        5.502227   -0.196323    0.679620
     66          6           0        3.583214    0.707001    0.167370
     67          6           0        5.831280    1.224072   -0.916604
     68          1           0        5.996650    2.082839   -0.258267
     69          1           0        5.320664    1.576683   -1.820052
     70          1           0        6.800754    0.805843   -1.199533
     71          8           0        2.991969    1.536562   -0.545296
     72          7           0        3.034927    0.135719    1.251407
     73          1           0        3.553232   -0.629529    1.667598
     74          6           0        1.617379    0.223386    1.585749
     75          1           0        1.054548   -0.102807    0.709241
     76          6           0        1.184814    1.678291    1.875710
     77          6           0        1.304296   -0.707828    2.774594
     78          1           0        1.907596   -0.382371    3.633033
     79          1           0        0.256549   -0.553322    3.060001
     80          8           0        2.011522    2.577504    2.080977
     81          6           0        1.519176   -2.215626    2.519094
     82          1           0        2.567412   -2.395155    2.245040
     83          6           0        1.237036   -2.992740    3.813083
     84          1           0        0.191358   -2.869248    4.123204
     85          1           0        1.874437   -2.649835    4.636428
     86          1           0        1.418808   -4.063562    3.671225
     87          6           0        0.648450   -2.737055    1.367429
     88          1           0       -0.419009   -2.580108    1.568085
     89          1           0        0.809761   -3.812294    1.229755
     90          1           0        0.883161   -2.246927    0.418619
     91          7           0       -0.150311    1.841018    1.870547
     92          1           0       -0.751371    1.034855    1.723067
     93          6           0       -0.939269    3.066933    2.027959
     94          1           0       -0.988697    3.335534    3.092835
     95          6           0       -2.405274    2.748793    1.602900
     96          6           0       -0.388294    4.268935    1.233282
     97          1           0       -1.243597    4.837079    0.861925
     98          1           0        0.137975    3.878997    0.354931
     99          8           0       -3.185849    3.721058    1.528501
    100          6           0        0.518961    5.196181    2.065902
    101          1           0        1.031291    4.630003    2.848297
    102          1           0       -0.084186    5.964150    2.562785
    103          6           0        1.577757    5.902277    1.217803
    104          1           0        2.149147    6.606706    1.837476
    105          1           0        1.102752    6.465513    0.403432
    106          7           0        2.484049    4.902022    0.632706
    107          1           0        2.437370    3.955320    1.041121
    108          7           0        3.570993    6.395372   -0.779029
    109          1           0        3.933387    6.575989   -1.702917
    110          1           0        3.222915    7.184947   -0.257593
    111          7           0        3.891042    4.113277   -1.027648
    112          1           0        3.596617    3.136888   -0.866117
    113          1           0        4.709795    4.280495   -1.592689
    114          6           0        3.306800    5.130212   -0.379979
    115          8           0       -2.691605    1.525410    1.361768
    116          1           0        0.245443   -5.008295   -0.973293
 ---------------------------------------------------------------------

 SCF Done:  E(RB3LYP) =  -2782.51097693     A.U. after    1 cycles

 Alpha  occ. eigenvalues --  -19.28078 -19.22697 -19.22674 -19.21978 -19.21960
 Alpha  occ. eigenvalues --  -19.21801 -19.20965 -19.19997 -19.19964 -19.18623
 Alpha  occ. eigenvalues --  -19.17313 -14.50730 -14.49229 -14.47285 -14.47116
 Alpha  occ. eigenvalues --  -14.46663 -14.46010 -14.45290 -14.45194 -14.43703
 Alpha  occ. eigenvalues --  -14.43561 -10.44479 -10.40868 -10.39248 -10.39113
 Alpha  occ. eigenvalues --  -10.38369 -10.38150 -10.37221 -10.36822 -10.35699
 Alpha  occ. eigenvalues --  -10.34738 -10.33449 -10.33023 -10.32877 -10.32755
 Alpha  occ. eigenvalues --  -10.32730 -10.31767 -10.31327 -10.30191 -10.29342
 Alpha  occ. eigenvalues --  -10.29130 -10.28066 -10.27561 -10.26798 -10.26681
 Alpha  occ. eigenvalues --  -10.26601 -10.26256 -10.25871 -10.25820 -10.25806
 Alpha  occ. eigenvalues --  -10.25791 -10.25783 -10.25746 -10.25713 -10.25512
 Alpha  occ. eigenvalues --  -10.23618 -10.23515  -1.19023  -1.15190  -1.14243
 Alpha  occ. eigenvalues --   -1.13512  -1.12993  -1.12541  -1.11766  -1.11625
 Alpha  occ. eigenvalues --   -1.11051  -1.10074  -1.10036  -1.05668  -1.03202
 Alpha  occ. eigenvalues --   -1.02524  -1.02373  -1.02238  -1.02086  -1.01252
 Alpha  occ. eigenvalues --   -1.01051  -1.00817  -0.99902  -0.92427  -0.89989
 Alpha  occ. eigenvalues --   -0.88917  -0.88077  -0.87924  -0.86740  -0.86357
 Alpha  occ. eigenvalues --   -0.85062  -0.83958  -0.82038  -0.81648  -0.81370
 Alpha  occ. eigenvalues --   -0.81175  -0.79441  -0.76850  -0.75379  -0.74965
 Alpha  occ. eigenvalues --   -0.74707  -0.74508  -0.73834  -0.73071  -0.71879
 Alpha  occ. eigenvalues --   -0.70625  -0.70036  -0.69399  -0.68755  -0.68510
 Alpha  occ. eigenvalues --   -0.68414  -0.67870  -0.67448  -0.67242  -0.67034
 Alpha  occ. eigenvalues --   -0.66704  -0.66319  -0.65159  -0.64646  -0.63869
 Alpha  occ. eigenvalues --   -0.63386  -0.62881  -0.62435  -0.62306  -0.61672
 Alpha  occ. eigenvalues --   -0.61540  -0.61304  -0.60076  -0.59596  -0.58865
 Alpha  occ. eigenvalues --   -0.58315  -0.58146  -0.57646  -0.57451  -0.57184
 Alpha  occ. eigenvalues --   -0.56790  -0.56684  -0.55851  -0.55714  -0.55427
 Alpha  occ. eigenvalues --   -0.55128  -0.54677  -0.54137  -0.53937  -0.53618
 Alpha  occ. eigenvalues --   -0.53338  -0.53296  -0.53067  -0.52899  -0.52423
 Alpha  occ. eigenvalues --   -0.52163  -0.51829  -0.51739  -0.51614  -0.51076
 Alpha  occ. eigenvalues --   -0.50966  -0.50620  -0.50500  -0.50156  -0.50027
 Alpha  occ. eigenvalues --   -0.49878  -0.49663  -0.49310  -0.48855  -0.48609
 Alpha  occ. eigenvalues --   -0.48428  -0.48244  -0.48209  -0.47745  -0.47573
 Alpha  occ. eigenvalues --   -0.47324  -0.47101  -0.47079  -0.46991  -0.46567
 Alpha  occ. eigenvalues --   -0.46301  -0.46208  -0.45536  -0.45493  -0.45375
 Alpha  occ. eigenvalues --   -0.45269  -0.45189  -0.44995  -0.44649  -0.44577
 Alpha  occ. eigenvalues --   -0.44486  -0.44004  -0.43390  -0.43114  -0.42843
 Alpha  occ. eigenvalues --   -0.42488  -0.42170  -0.41878  -0.41520  -0.40802
 Alpha  occ. eigenvalues --   -0.40583  -0.40332  -0.39846  -0.39770  -0.39414
 Alpha  occ. eigenvalues --   -0.39171  -0.37876  -0.37305  -0.36977  -0.36444
 Alpha  occ. eigenvalues --   -0.36083  -0.35905  -0.35721  -0.35561  -0.35111
 Alpha  occ. eigenvalues --   -0.34601  -0.34234  -0.34103  -0.33484  -0.33420
 Alpha  occ. eigenvalues --   -0.33277  -0.32931  -0.32838  -0.31918  -0.31546
 Alpha  occ. eigenvalues --   -0.30977
 Alpha virt. eigenvalues --   -0.09539  -0.09194  -0.09100  -0.08793  -0.07971
 Alpha virt. eigenvalues --   -0.07676  -0.07316  -0.06487  -0.06314  -0.06061
 Alpha virt. eigenvalues --   -0.04868  -0.03254  -0.02778  -0.02693  -0.02122

 Mulliken charges:
               1
     1  N   -0.781981
     2  H    0.434276
     3  H    0.383846
     4  H    0.429871
     5  C   -0.120262
     6  H    0.173516
     7  C    0.645733
     8  C    0.141852
     9  H    0.152276
    10  O   -0.540467
    11  C   -0.463522
    12  H    0.156074
    13  H    0.195409
    14  H    0.147270
    15  O   -0.628122
    16  H    0.429418
    17  N   -0.580713
    18  H    0.356453
    19  C   -0.092974
    20  H    0.189557
    21  C    0.612090
    22  C   -0.456285
    23  H    0.224139
    24  H    0.198946
    25  O   -0.499618
    26  C    0.157666
    27  C   -0.228909
    28  H    0.153577
    29  C   -0.165272
    30  H    0.150285
    31  C   -0.128917
    32  H    0.138351
    33  C   -0.178453
    34  H    0.150725
    35  C   -0.127628
    36  H    0.144776
    37  N   -0.573887
    38  H    0.341061
    39  C   -0.098425
    40  H    0.227677
    41  C    0.604955
    42  C   -0.445283
    43  H    0.151305
    44  H    0.147177
    45  H    0.193983
    46  O   -0.510736
    47  N   -0.634464
    48  H    0.352176
    49  C   -0.064212
    50  H    0.219697
    51  C    0.630988
    52  C   -0.301261
    53  H    0.205650
    54  H    0.170094
    55  O   -0.531943
    56  C   -0.352463
    57  H    0.174975
    58  H    0.199763
    59  C    0.569846
    60  O   -0.470373
    61  O   -0.554615
    62  N   -0.579512
    63  H    0.341278
    64  C   -0.063433
    65  H    0.191124
    66  C    0.669249
    67  C   -0.476429
    68  H    0.166610
    69  H    0.143767
    70  H    0.183746
    71  O   -0.601986
    72  N   -0.593806
    73  H    0.371321
    74  C   -0.060705
    75  H    0.195991
    76  C    0.659581
    77  C   -0.305659
    78  H    0.157559
    79  H    0.155202
    80  O   -0.580071
    81  C   -0.101658
    82  H    0.159135
    83  C   -0.443870
    84  H    0.145149
    85  H    0.148046
    86  H    0.154452
    87  C   -0.489966
    88  H    0.152035
    89  H    0.147162
    90  H    0.168234
    91  N   -0.635472
    92  H    0.369758
    93  C   -0.020436
    94  H    0.180255
    95  C    0.626434
    96  C   -0.284664
    97  H    0.194260
    98  H    0.146446
    99  O   -0.583731
   100  C   -0.310315
   101  H    0.186651
   102  H    0.166454
   103  C   -0.160712
   104  H    0.169350
   105  H    0.166869
   106  N   -0.623830
   107  H    0.428411
   108  N   -0.767365
   109  H    0.369401
   110  H    0.380228
   111  N   -0.824139
   112  H    0.446811
   113  H    0.352542
   114  C    0.799258
   115  O   -0.638296
   116  H    0.428617
 Sum of Mulliken charges =   1.00000

 Dipole moment (field-independent basis, Debye):
    X=              7.4957    Y=              8.4010    Z=             -6.5561  Tot=             13.0286
 Quadrupole moment (field-independent basis, Debye-Ang):
   XX=           -219.1327   YY=           -225.5592   ZZ=           -316.9526
   XY=             31.8114   XZ=            -26.9718   YZ=             -4.4961

 Normal termination of Gaussian 16 at Sat Jun 25 10:10:30 2022.
