 Gaussian 16, Revision C.01,
 Gaussian 16:  ES64L-G16RevC.01  3-Jul-2019

 ----------------------------------------------------------------------
 # B3LYP/6-31G* empiricaldispersion=gd3 guess=read geom=check nosymm in
 tegral(ultrafinegrid)
 ----------------------------------------------------------------------

 -----------------------------------------------------
 Candidate Structure: Conf:34 Charge calc in gas phase
 -----------------------------------------------------
 Structure from the checkpoint file:  "conf-34.chk"
 Charge =  1 Multiplicity = 1

                          Input orientation:
 ---------------------------------------------------------------------
 Center     Atomic      Atomic             Coordinates (Angstroms)
 Number     Number       Type             X           Y           Z
 ---------------------------------------------------------------------
      1          7           0       -7.659754   -5.353918   -3.827307
      2          1           0       -7.747840   -6.113776   -3.147434
      3          1           0       -7.985560   -4.464563   -3.376109
      4          1           0       -8.177728   -5.592813   -4.688415
      5          6           0       -6.230246   -5.061570   -4.204417
      6          1           0       -5.639598   -5.969966   -4.067396
      7          6           0       -5.822361   -3.903578   -3.263610
      8          6           0       -6.216680   -4.632192   -5.691585
      9          1           0       -6.641794   -3.618112   -5.756019
     10          8           0       -6.732595   -3.248228   -2.739569
     11          6           0       -4.817710   -4.659685   -6.297935
     12          1           0       -4.141995   -3.947989   -5.813845
     13          1           0       -4.874442   -4.386622   -7.356860
     14          1           0       -4.391853   -5.666095   -6.228911
     15          8           0       -7.097261   -5.571884   -6.319038
     16          1           0       -7.210696   -5.337011   -7.253880
     17          7           0       -4.520074   -3.685230   -3.140694
     18          1           0       -3.823441   -4.224254   -3.657422
     19          6           0       -3.928524   -2.521861   -2.484531
     20          1           0       -4.631902   -1.687312   -2.553139
     21          6           0       -2.650487   -2.239465   -3.300775
     22          6           0       -3.626741   -2.826743   -0.993502
     23          1           0       -4.576504   -3.138026   -0.541303
     24          1           0       -2.947957   -3.686272   -0.952618
     25          8           0       -2.173766   -3.135817   -4.012962
     26          6           0       -3.042233   -1.651901   -0.241955
     27          6           0       -1.723532   -1.684279    0.230334
     28          1           0       -1.110900   -2.566450    0.056237
     29          6           0       -3.815240   -0.503783   -0.016857
     30          1           0       -4.846633   -0.470471   -0.364585
     31          6           0       -1.195291   -0.602198    0.934482
     32          1           0       -0.180573   -0.622555    1.314823
     33          6           0       -3.281688    0.586981    0.672934
     34          1           0       -3.893871    1.467972    0.844424
     35          6           0       -1.973137    0.535679    1.156643
     36          1           0       -1.543169    1.363137    1.710802
     37          7           0       -2.118572   -1.020734   -3.167789
     38          1           0       -2.547204   -0.321785   -2.567933
     39          6           0       -0.844216   -0.648427   -3.782291
     40          1           0       -0.145185   -1.478785   -3.634769
     41          6           0       -0.380290    0.619004   -3.049205
     42          6           0       -0.997700   -0.365509   -5.283767
     43          1           0       -0.028205   -0.106608   -5.722028
     44          1           0       -1.686385    0.471258   -5.433975
     45          1           0       -1.384214   -1.255837   -5.786388
     46          8           0       -1.188737    1.508911   -2.788846
     47          7           0        0.938088    0.674696   -2.766814
     48          1           0        1.519895   -0.152410   -2.858267
     49          6           0        1.545353    1.737350   -1.974021
     50          1           0        1.389229    2.702256   -2.470369
     51          6           0        3.030605    1.374172   -1.870661
     52          6           0        0.947798    1.749661   -0.537341
     53          1           0        1.258403    0.825674   -0.045773
     54          1           0       -0.135968    1.691333   -0.643432
     55          8           0        3.394643    0.198523   -1.949399
     56          6           0        1.298276    2.934785    0.368387
     57          1           0        2.322316    3.292281    0.225979
     58          1           0        0.641387    3.791723    0.177006
     59          6           0        1.230881    2.579450    1.867300
     60          8           0        0.991526    1.402134    2.211582
     61          8           0        1.480566    3.526500    2.689903
     62          7           0        3.894293    2.385373   -1.579982
     63          1           0        3.497504    3.303663   -1.424341
     64          6           0        5.145762    2.099182   -0.853419
     65          1           0        5.632911    1.268516   -1.368930
     66          6           0        4.703609    1.686248    0.568444
     67          6           0        6.047102    3.325741   -0.834318
     68          1           0        6.988395    3.090340   -0.328965
     69          1           0        5.568439    4.142632   -0.284266
     70          1           0        6.268329    3.654884   -1.853641
     71          8           0        4.393015    2.552765    1.397663
     72          7           0        4.564584    0.368751    0.780253
     73          1           0        4.698880   -0.229649   -0.024990
     74          6           0        3.807862   -0.211599    1.902999
     75          1           0        2.750575    0.018250    1.744302
     76          6           0        4.266827    0.409209    3.242164
     77          6           0        4.022236   -1.729897    1.954268
     78          1           0        5.075421   -1.912684    2.197110
     79          1           0        3.434673   -2.102266    2.804240
     80          8           0        5.421734    0.277159    3.639227
     81          6           0        3.617697   -2.525438    0.695472
     82          1           0        4.260763   -2.224615   -0.146809
     83          6           0        3.866623   -4.021320    0.939254
     84          1           0        3.225605   -4.392853    1.748899
     85          1           0        4.907503   -4.212058    1.224191
     86          1           0        3.647788   -4.609656    0.040645
     87          6           0        2.161313   -2.272947    0.277892
     88          1           0        1.476859   -2.473931    1.112278
     89          1           0        1.879573   -2.928540   -0.555056
     90          1           0        2.005546   -1.242271   -0.053042
     91          7           0        3.278013    1.050822    3.904480
     92          1           0        2.373770    1.143993    3.435699
     93          6           0        3.471361    1.753256    5.169851
     94          1           0        4.152150    1.167236    5.789846
     95          6           0        2.124376    1.830037    5.913690
     96          6           0        4.000132    3.196443    4.996047
     97          1           0        3.961671    3.693125    5.975744
     98          1           0        3.288337    3.714353    4.347936
     99          8           0        1.116498    2.450017    5.273879
    100          6           0        5.412550    3.324402    4.408277
    101          1           0        5.567457    2.594868    3.613728
    102          1           0        6.172837    3.115334    5.169368
    103          6           0        5.660126    4.729081    3.839242
    104          1           0        6.679799    4.816643    3.447717
    105          1           0        5.528524    5.489206    4.617653
    106          7           0        4.693911    4.993716    2.756398
    107          1           0        4.460225    4.173969    2.184405
    108          7           0        4.177056    7.215619    3.229327
    109          1           0        3.461298    7.856443    3.538209
    110          1           0        5.116228    7.380886    3.558945
    111          7           0        2.655544    5.853464    2.101045
    112          1           0        2.153888    4.924648    2.213867
    113          1           0        2.085649    6.675005    1.950224
    114          6           0        3.836224    6.011237    2.711053
    115          8           0        1.984494    1.401910    7.035372
    116          1           0        1.323611    2.784095    4.361679
 ---------------------------------------------------------------------

 SCF Done:  E(RB3LYP) =  -2782.47957400     A.U. after    1 cycles

 Alpha  occ. eigenvalues --  -19.30287 -19.26208 -19.21457 -19.20513 -19.19329
 Alpha  occ. eigenvalues --  -19.19291 -19.18868 -19.16238 -19.15199 -19.14340
 Alpha  occ. eigenvalues --  -19.14325 -14.59449 -14.49122 -14.46685 -14.45030
 Alpha  occ. eigenvalues --  -14.44643 -14.44495 -14.43468 -14.43339 -14.42848
 Alpha  occ. eigenvalues --  -14.38409 -10.43316 -10.41508 -10.40500 -10.39819
 Alpha  occ. eigenvalues --  -10.38395 -10.37234 -10.36133 -10.35987 -10.34070
 Alpha  occ. eigenvalues --  -10.33504 -10.33056 -10.31840 -10.31431 -10.31257
 Alpha  occ. eigenvalues --  -10.31027 -10.30678 -10.29904 -10.28354 -10.27605
 Alpha  occ. eigenvalues --  -10.26448 -10.26425 -10.25684 -10.25454 -10.25310
 Alpha  occ. eigenvalues --  -10.25002 -10.24901 -10.24407 -10.24353 -10.24329
 Alpha  occ. eigenvalues --  -10.24103 -10.24025 -10.23401 -10.23258 -10.23037
 Alpha  occ. eigenvalues --  -10.22609 -10.22139  -1.19160  -1.17449  -1.13509
 Alpha  occ. eigenvalues --   -1.13008  -1.12603  -1.10964  -1.10706  -1.10370
 Alpha  occ. eigenvalues --   -1.10020  -1.08832  -1.06221  -1.05845  -1.02196
 Alpha  occ. eigenvalues --   -1.01514  -1.01005  -0.99963  -0.99888  -0.99588
 Alpha  occ. eigenvalues --   -0.99008  -0.97694  -0.95326  -0.93554  -0.91977
 Alpha  occ. eigenvalues --   -0.88365  -0.87013  -0.86207  -0.84963  -0.84863
 Alpha  occ. eigenvalues --   -0.84499  -0.83479  -0.81176  -0.80881  -0.80289
 Alpha  occ. eigenvalues --   -0.78794  -0.78554  -0.77311  -0.74908  -0.74045
 Alpha  occ. eigenvalues --   -0.73820  -0.73602  -0.73426  -0.72761  -0.71610
 Alpha  occ. eigenvalues --   -0.71514  -0.70818  -0.69634  -0.69068  -0.68188
 Alpha  occ. eigenvalues --   -0.67148  -0.66890  -0.66746  -0.66306  -0.65673
 Alpha  occ. eigenvalues --   -0.65212  -0.65077  -0.64705  -0.64588  -0.63250
 Alpha  occ. eigenvalues --   -0.63211  -0.62491  -0.61676  -0.61270  -0.61032
 Alpha  occ. eigenvalues --   -0.59990  -0.59757  -0.59129  -0.58916  -0.58559
 Alpha  occ. eigenvalues --   -0.57586  -0.57467  -0.57012  -0.56538  -0.56029
 Alpha  occ. eigenvalues --   -0.55748  -0.55705  -0.54958  -0.54705  -0.54290
 Alpha  occ. eigenvalues --   -0.54253  -0.53736  -0.53242  -0.52704  -0.52470
 Alpha  occ. eigenvalues --   -0.52331  -0.52196  -0.51893  -0.51669  -0.51523
 Alpha  occ. eigenvalues --   -0.51369  -0.51085  -0.50882  -0.50263  -0.49965
 Alpha  occ. eigenvalues --   -0.49750  -0.49441  -0.49028  -0.48581  -0.48348
 Alpha  occ. eigenvalues --   -0.48129  -0.47965  -0.47887  -0.47669  -0.47430
 Alpha  occ. eigenvalues --   -0.47112  -0.47028  -0.46594  -0.46492  -0.46199
 Alpha  occ. eigenvalues --   -0.45840  -0.45749  -0.45546  -0.45093  -0.45036
 Alpha  occ. eigenvalues --   -0.44950  -0.44649  -0.44323  -0.43938  -0.43810
 Alpha  occ. eigenvalues --   -0.43600  -0.43410  -0.42832  -0.42630  -0.42548
 Alpha  occ. eigenvalues --   -0.42317  -0.42030  -0.41936  -0.41317  -0.41028
 Alpha  occ. eigenvalues --   -0.40700  -0.40291  -0.40093  -0.39770  -0.39765
 Alpha  occ. eigenvalues --   -0.39377  -0.38697  -0.38468  -0.37737  -0.37574
 Alpha  occ. eigenvalues --   -0.37501  -0.37241  -0.36839  -0.35828  -0.35663
 Alpha  occ. eigenvalues --   -0.34867  -0.34474  -0.34202  -0.33346  -0.33036
 Alpha  occ. eigenvalues --   -0.32259  -0.32109  -0.31749  -0.31123  -0.30988
 Alpha  occ. eigenvalues --   -0.30807  -0.30393  -0.29489  -0.29421  -0.28161
 Alpha  occ. eigenvalues --   -0.26648
 Alpha virt. eigenvalues --   -0.12224  -0.09958  -0.07631  -0.07289  -0.06877
 Alpha virt. eigenvalues --   -0.06535  -0.06177  -0.05958  -0.05163  -0.04637
 Alpha virt. eigenvalues --   -0.04148  -0.02583  -0.02352  -0.01604  -0.01503

 Mulliken charges:
               1
     1  N   -0.746980
     2  H    0.417266
     3  H    0.424920
     4  H    0.429716
     5  C   -0.124929
     6  H    0.215795
     7  C    0.641785
     8  C    0.126315
     9  H    0.170986
    10  O   -0.535916
    11  C   -0.490185
    12  H    0.197102
    13  H    0.181924
    14  H    0.182365
    15  O   -0.647344
    16  H    0.433577
    17  N   -0.596313
    18  H    0.373095
    19  C   -0.080173
    20  H    0.194875
    21  C    0.638053
    22  C   -0.343327
    23  H    0.175349
    24  H    0.160757
    25  O   -0.562922
    26  C    0.153553
    27  C   -0.194002
    28  H    0.130343
    29  C   -0.208094
    30  H    0.127927
    31  C   -0.137431
    32  H    0.178326
    33  C   -0.119700
    34  H    0.142742
    35  C   -0.135176
    36  H    0.166820
    37  N   -0.607662
    38  H    0.370733
    39  C   -0.018416
    40  H    0.169851
    41  C    0.613630
    42  C   -0.450880
    43  H    0.164288
    44  H    0.172072
    45  H    0.173696
    46  O   -0.537331
    47  N   -0.628016
    48  H    0.358585
    49  C   -0.030282
    50  H    0.167401
    51  C    0.611159
    52  C   -0.303663
    53  H    0.189978
    54  H    0.201294
    55  O   -0.542648
    56  C   -0.399675
    57  H    0.139180
    58  H    0.158901
    59  C    0.660223
    60  O   -0.564882
    61  O   -0.635681
    62  N   -0.587422
    63  H    0.339665
    64  C   -0.057664
    65  H    0.182862
    66  C    0.641858
    67  C   -0.472030
    68  H    0.179357
    69  H    0.158525
    70  H    0.171643
    71  O   -0.568771
    72  N   -0.596948
    73  H    0.366718
    74  C   -0.074831
    75  H    0.198335
    76  C    0.645677
    77  C   -0.290665
    78  H    0.172726
    79  H    0.155626
    80  O   -0.555520
    81  C   -0.094925
    82  H    0.125656
    83  C   -0.442683
    84  H    0.146944
    85  H    0.152688
    86  H    0.140833
    87  C   -0.466380
    88  H    0.148856
    89  H    0.134780
    90  H    0.161860
    91  N   -0.654031
    92  H    0.395912
    93  C   -0.048809
    94  H    0.186137
    95  C    0.579577
    96  C   -0.287032
    97  H    0.149499
    98  H    0.150389
    99  O   -0.616945
   100  C   -0.297225
   101  H    0.208092
   102  H    0.159757
   103  C   -0.165569
   104  H    0.170473
   105  H    0.148315
   106  N   -0.606919
   107  H    0.425638
   108  N   -0.750531
   109  H    0.365664
   110  H    0.370579
   111  N   -0.791723
   112  H    0.440914
   113  H    0.339108
   114  C    0.739017
   115  O   -0.456737
   116  H    0.456728
 Sum of Mulliken charges =   1.00000

 Dipole moment (field-independent basis, Debye):
    X=            -16.1998    Y=             -5.4925    Z=            -22.1586  Tot=             27.9930
 Quadrupole moment (field-independent basis, Debye-Ang):
   XX=           -107.2108   YY=           -115.9719   ZZ=           -287.9692
   XY=            206.1179   XZ=            124.5765   YZ=            120.4692

 Normal termination of Gaussian 16 at Sat Jun 25 09:45:34 2022.
