 Gaussian 16, Revision C.01,
 Gaussian 16:  ES64L-G16RevC.01  3-Jul-2019

 ----------------------------------------------------------------------
 # B3LYP/6-31G* empiricaldispersion=gd3 guess=read geom=check nosymm in
 tegral(ultrafinegrid)
 ----------------------------------------------------------------------

 -----------------------------------------------------
 Candidate Structure: Conf:35 Charge calc in gas phase
 -----------------------------------------------------
 Structure from the checkpoint file:  "conf-35.chk"
 Charge =  1 Multiplicity = 1

                          Input orientation:
 ---------------------------------------------------------------------
 Center     Atomic      Atomic             Coordinates (Angstroms)
 Number     Number       Type             X           Y           Z
 ---------------------------------------------------------------------
      1          7           0       -5.391635   -4.881384   -4.007937
      2          1           0       -6.305159   -4.832797   -3.529242
      3          1           0       -5.542750   -4.554963   -4.981511
      4          1           0       -4.988368   -5.828585   -3.974263
      5          6           0       -4.408605   -3.913399   -3.406900
      6          1           0       -4.523913   -3.939780   -2.322584
      7          6           0       -4.803963   -2.563545   -4.017460
      8          6           0       -2.991876   -4.365932   -3.824355
      9          1           0       -2.910212   -4.259010   -4.912836
     10          8           0       -5.263403   -2.566029   -5.162623
     11          6           0       -1.914337   -3.537519   -3.136186
     12          1           0       -1.991128   -2.483626   -3.422877
     13          1           0       -0.926351   -3.904281   -3.426793
     14          1           0       -2.013347   -3.596226   -2.045469
     15          8           0       -2.892115   -5.769944   -3.572505
     16          1           0       -2.515928   -5.904622   -2.687269
     17          7           0       -4.630224   -1.494253   -3.232196
     18          1           0       -4.335785   -1.656963   -2.268786
     19          6           0       -5.278853   -0.228815   -3.546327
     20          1           0       -5.508739   -0.261387   -4.615612
     21          6           0       -4.249050    0.902460   -3.340576
     22          6           0       -6.610885   -0.128639   -2.743112
     23          1           0       -6.383910    0.089495   -1.692130
     24          1           0       -7.202562    0.706708   -3.136227
     25          8           0       -3.063922    0.696580   -3.595192
     26          6           0       -7.399004   -1.420508   -2.840492
     27          6           0       -8.170670   -1.706248   -3.974949
     28          1           0       -8.270512   -0.958413   -4.757380
     29          6           0       -7.271893   -2.403754   -1.850036
     30          1           0       -6.665720   -2.205860   -0.970513
     31          6           0       -8.794272   -2.944909   -4.124187
     32          1           0       -9.392510   -3.144227   -5.008361
     33          6           0       -7.896312   -3.648118   -1.991409
     34          1           0       -7.815188   -4.385933   -1.196521
     35          6           0       -8.658810   -3.924345   -3.133515
     36          1           0       -9.171574   -4.877601   -3.233710
     37          7           0       -4.722058    2.095751   -2.899082
     38          1           0       -5.669363    2.155207   -2.550253
     39          6           0       -3.818611    3.183323   -2.470391
     40          1           0       -3.021844    3.248659   -3.215965
     41          6           0       -3.261942    2.720984   -1.104736
     42          6           0       -4.580179    4.496403   -2.362301
     43          1           0       -3.890503    5.304625   -2.103203
     44          1           0       -5.329510    4.436148   -1.566831
     45          1           0       -5.064428    4.741610   -3.312120
     46          8           0       -3.882161    2.898499   -0.065890
     47          7           0       -2.102370    1.991882   -1.188769
     48          1           0       -1.860496    1.693892   -2.130444
     49          6           0       -1.807733    1.005100   -0.148014
     50          1           0       -2.060328    1.475739    0.808776
     51          6           0       -0.306769    0.660172   -0.136528
     52          6           0       -2.687388   -0.240689   -0.358921
     53          1           0       -2.353271   -0.751433   -1.267610
     54          1           0       -3.709237    0.115143   -0.537638
     55          8           0        0.090026   -0.476996    0.131517
     56          6           0       -2.703223   -1.218683    0.812072
     57          1           0       -1.691462   -1.599473    0.993566
     58          1           0       -3.021699   -0.737228    1.744834
     59          6           0       -3.609429   -2.387840    0.556921
     60          8           0       -4.150392   -2.655798   -0.514927
     61          8           0       -3.773977   -3.158781    1.637902
     62          7           0        0.512441    1.690313   -0.416693
     63          1           0        0.147543    2.613930   -0.634052
     64          6           0        1.960571    1.589269   -0.368119
     65          1           0        2.245658    1.075176    0.557720
     66          6           0        2.492827    3.033261   -0.356766
     67          6           0        2.525913    0.808986   -1.568891
     68          1           0        3.617260    0.737858   -1.511404
     69          1           0        2.258937    1.312366   -2.504075
     70          1           0        2.106065   -0.199876   -1.569300
     71          8           0        1.774422    3.974158   -0.698374
     72          7           0        3.779676    3.158629    0.027945
     73          1           0        4.356002    2.333744    0.164528
     74          6           0        4.542184    4.391771   -0.094290
     75          1           0        4.038920    5.029788   -0.826715
     76          6           0        5.938078    3.999782   -0.604178
     77          6           0        4.676535    5.134065    1.255787
     78          1           0        5.176836    4.452258    1.956857
     79          1           0        5.350333    5.991510    1.120110
     80          8           0        6.350616    2.839222   -0.503754
     81          6           0        3.352293    5.627970    1.865932
     82          1           0        2.668724    4.770123    1.931075
     83          6           0        3.606801    6.147085    3.288951
     84          1           0        4.291682    7.004680    3.275240
     85          1           0        4.051433    5.374154    3.927355
     86          1           0        2.672714    6.476248    3.758126
     87          6           0        2.683993    6.706184    1.001064
     88          1           0        3.359855    7.558428    0.849379
     89          1           0        1.780266    7.085035    1.492201
     90          1           0        2.383904    6.311101    0.026627
     91          7           0        6.667642    5.010885   -1.119997
     92          1           0        6.333736    5.969313   -1.070851
     93          6           0        8.096872    4.894249   -1.363400
     94          1           0        8.475013    4.100930   -0.718730
     95          6           0        8.756253    6.225696   -0.960173
     96          6           0        8.414268    4.569609   -2.841129
     97          1           0        9.463193    4.812814   -3.040765
     98          1           0        7.820258    5.249493   -3.462947
     99          8           0       10.066560    6.193613   -0.759476
    100          6           0        8.124658    3.115155   -3.245981
    101          1           0        8.267367    3.022271   -4.331603
    102          1           0        7.076303    2.873108   -3.037724
    103          6           0        8.996665    2.062925   -2.535054
    104          1           0        8.741321    1.063887   -2.902018
    105          1           0        8.772816    2.053454   -1.465849
    106          7           0       10.437098    2.246229   -2.733475
    107          1           0       10.793107    1.983710   -3.644032
    108          7           0       10.955982    3.619913   -0.850415
    109          1           0       10.444505    5.250724   -0.744652
    110          1           0       10.345847    2.980631   -0.343402
    111          7           0       12.183744    3.776287   -2.798419
    112          1           0       12.017803    3.996445   -3.772191
    113          1           0       12.712035    4.476155   -2.292604
    114          6           0       11.153557    3.218285   -2.073192
    115          8           0        8.099037    7.246192   -0.881495
    116          1           0       -4.367456   -3.896276    1.401069
 ---------------------------------------------------------------------

 SCF Done:  E(RB3LYP) =  -2782.46314728     A.U. after    2 cycles

 Alpha  occ. eigenvalues --  -19.31144 -19.28838 -19.26570 -19.24944 -19.22158
 Alpha  occ. eigenvalues --  -19.20882 -19.20163 -19.18701 -19.18239 -19.18023
 Alpha  occ. eigenvalues --  -19.16842 -14.58308 -14.48225 -14.46888 -14.43903
 Alpha  occ. eigenvalues --  -14.42527 -14.42057 -14.41650 -14.41602 -14.40937
 Alpha  occ. eigenvalues --  -14.35251 -10.44083 -10.41975 -10.39610 -10.38208
 Alpha  occ. eigenvalues --  -10.38072 -10.36949 -10.36021 -10.35306 -10.35268
 Alpha  occ. eigenvalues --  -10.35267 -10.35038 -10.34857 -10.32477 -10.31513
 Alpha  occ. eigenvalues --  -10.31255 -10.31033 -10.30581 -10.30372 -10.30147
 Alpha  occ. eigenvalues --  -10.30114 -10.29974 -10.29870 -10.29830 -10.29134
 Alpha  occ. eigenvalues --  -10.29046 -10.28564 -10.28356 -10.28026 -10.26234
 Alpha  occ. eigenvalues --  -10.24774 -10.24697 -10.24416 -10.23765 -10.23189
 Alpha  occ. eigenvalues --  -10.21244 -10.20732  -1.22443  -1.17836  -1.16100
 Alpha  occ. eigenvalues --   -1.14280  -1.13218  -1.12473  -1.12183  -1.11991
 Alpha  occ. eigenvalues --   -1.10763  -1.10079  -1.09401  -1.05455  -1.04642
 Alpha  occ. eigenvalues --   -1.04231  -1.02860  -1.01162  -0.98954  -0.98761
 Alpha  occ. eigenvalues --   -0.98317  -0.96801  -0.95180  -0.92309  -0.90583
 Alpha  occ. eigenvalues --   -0.90091  -0.89556  -0.86783  -0.86468  -0.85508
 Alpha  occ. eigenvalues --   -0.85072  -0.84875  -0.84031  -0.82770  -0.81781
 Alpha  occ. eigenvalues --   -0.80464  -0.78223  -0.77923  -0.76066  -0.75811
 Alpha  occ. eigenvalues --   -0.73418  -0.73300  -0.72781  -0.72157  -0.72027
 Alpha  occ. eigenvalues --   -0.71881  -0.70954  -0.70515  -0.70206  -0.69693
 Alpha  occ. eigenvalues --   -0.69392  -0.68482  -0.66746  -0.66437  -0.65979
 Alpha  occ. eigenvalues --   -0.65129  -0.64647  -0.64000  -0.63825  -0.63774
 Alpha  occ. eigenvalues --   -0.63440  -0.62811  -0.62416  -0.62062  -0.61633
 Alpha  occ. eigenvalues --   -0.61361  -0.60820  -0.59843  -0.59569  -0.59266
 Alpha  occ. eigenvalues --   -0.59145  -0.58632  -0.57966  -0.57608  -0.57380
 Alpha  occ. eigenvalues --   -0.56868  -0.56803  -0.56482  -0.55692  -0.55451
 Alpha  occ. eigenvalues --   -0.55081  -0.54668  -0.54356  -0.53987  -0.53361
 Alpha  occ. eigenvalues --   -0.53326  -0.53026  -0.52864  -0.52594  -0.52263
 Alpha  occ. eigenvalues --   -0.51683  -0.51351  -0.51286  -0.51031  -0.50749
 Alpha  occ. eigenvalues --   -0.50674  -0.50497  -0.50306  -0.49730  -0.49596
 Alpha  occ. eigenvalues --   -0.49417  -0.49277  -0.49041  -0.48910  -0.48736
 Alpha  occ. eigenvalues --   -0.48491  -0.47921  -0.47740  -0.47488  -0.47129
 Alpha  occ. eigenvalues --   -0.46870  -0.46400  -0.46338  -0.46166  -0.46028
 Alpha  occ. eigenvalues --   -0.45838  -0.45662  -0.45438  -0.45285  -0.45225
 Alpha  occ. eigenvalues --   -0.44968  -0.44831  -0.44543  -0.44096  -0.43989
 Alpha  occ. eigenvalues --   -0.43598  -0.43470  -0.43292  -0.42989  -0.42751
 Alpha  occ. eigenvalues --   -0.42110  -0.42066  -0.41733  -0.41528  -0.41229
 Alpha  occ. eigenvalues --   -0.40351  -0.40264  -0.39695  -0.39227  -0.39190
 Alpha  occ. eigenvalues --   -0.38361  -0.37331  -0.37302  -0.36739  -0.36718
 Alpha  occ. eigenvalues --   -0.36605  -0.35895  -0.35454  -0.34628  -0.34090
 Alpha  occ. eigenvalues --   -0.33880  -0.33306  -0.32790  -0.32632  -0.32141
 Alpha  occ. eigenvalues --   -0.32082  -0.31752  -0.31519  -0.30841  -0.30259
 Alpha  occ. eigenvalues --   -0.29056
 Alpha virt. eigenvalues --   -0.12256  -0.11780  -0.11266  -0.10759  -0.09179
 Alpha virt. eigenvalues --   -0.07330  -0.06690  -0.05178  -0.04331  -0.03931
 Alpha virt. eigenvalues --   -0.03753  -0.03527  -0.02702  -0.02374  -0.01851

 Mulliken charges:
               1
     1  N   -0.747182
     2  H    0.408251
     3  H    0.417467
     4  H    0.414462
     5  C   -0.151703
     6  H    0.218246
     7  C    0.649299
     8  C    0.127930
     9  H    0.184957
    10  O   -0.539436
    11  C   -0.507905
    12  H    0.208298
    13  H    0.197694
    14  H    0.162467
    15  O   -0.630058
    16  H    0.416228
    17  N   -0.605089
    18  H    0.406693
    19  C   -0.078591
    20  H    0.226540
    21  C    0.635522
    22  C   -0.402547
    23  H    0.173236
    24  H    0.176652
    25  O   -0.532167
    26  C    0.159247
    27  C   -0.149910
    28  H    0.154437
    29  C   -0.181780
    30  H    0.151080
    31  C   -0.127295
    32  H    0.164538
    33  C   -0.184803
    34  H    0.149291
    35  C   -0.172309
    36  H    0.159429
    37  N   -0.606525
    38  H    0.351321
    39  C   -0.059070
    40  H    0.185295
    41  C    0.613669
    42  C   -0.474330
    43  H    0.186323
    44  H    0.179809
    45  H    0.166259
    46  O   -0.511578
    47  N   -0.617751
    48  H    0.362061
    49  C   -0.068930
    50  H    0.206273
    51  C    0.612777
    52  C   -0.277861
    53  H    0.162454
    54  H    0.140950
    55  O   -0.549731
    56  C   -0.376318
    57  H    0.247657
    58  H    0.199282
    59  C    0.595717
    60  O   -0.517019
    61  O   -0.530855
    62  N   -0.608325
    63  H    0.367470
    64  C   -0.031745
    65  H    0.177701
    66  C    0.615304
    67  C   -0.454900
    68  H    0.160761
    69  H    0.158515
    70  H    0.181628
    71  O   -0.538004
    72  N   -0.602236
    73  H    0.352440
    74  C   -0.076965
    75  H    0.184027
    76  C    0.621123
    77  C   -0.257141
    78  H    0.142880
    79  H    0.149786
    80  O   -0.557630
    81  C   -0.066508
    82  H    0.130775
    83  C   -0.445392
    84  H    0.148356
    85  H    0.140611
    86  H    0.146213
    87  C   -0.464306
    88  H    0.137670
    89  H    0.143738
    90  H    0.172660
    91  N   -0.601163
    92  H    0.356793
    93  C   -0.072260
    94  H    0.166380
    95  C    0.598444
    96  C   -0.267791
    97  H    0.144988
    98  H    0.159035
    99  O   -0.603190
   100  C   -0.259551
   101  H    0.131132
   102  H    0.164339
   103  C   -0.169525
   104  H    0.159690
   105  H    0.184014
   106  N   -0.576486
   107  H    0.325028
   108  N   -0.732187
   109  H    0.463120
   110  H    0.301477
   111  N   -0.737952
   112  H    0.330506
   113  H    0.357345
   114  C    0.641983
   115  O   -0.478711
   116  H    0.414967
 Sum of Mulliken charges =   1.00000

 Dipole moment (field-independent basis, Debye):
    X=            -17.2564    Y=            -15.5008    Z=            -16.2467  Tot=             28.3198
 Quadrupole moment (field-independent basis, Debye-Ang):
   XX=           -128.2924   YY=           -274.9155   ZZ=           -273.5335
   XY=             73.5534   XZ=             17.7409   YZ=             20.7905

 Normal termination of Gaussian 16 at Sat Jun 25 09:45:43 2022.
