 Gaussian 16, Revision C.01,
 Gaussian 16:  ES64L-G16RevC.01  3-Jul-2019

 ----------------------------------------------------------------------
 # B3LYP/6-31G* empiricaldispersion=gd3 guess=read geom=check nosymm in
 tegral(ultrafinegrid)
 ----------------------------------------------------------------------

 ------------------------------------------------------
 Candidate Structure: Conf:112 Charge calc in gas phase
 ------------------------------------------------------
 Structure from the checkpoint file:  "conf-112.chk"
 Charge =  1 Multiplicity = 1

                          Input orientation:
 ---------------------------------------------------------------------
 Center     Atomic      Atomic             Coordinates (Angstroms)
 Number     Number       Type             X           Y           Z
 ---------------------------------------------------------------------
      1          7           0       -5.125651   -3.389036   -0.584994
      2          1           0       -4.296658   -3.148694   -0.002111
      3          1           0       -5.848815   -2.655991   -0.476046
      4          1           0       -5.500975   -4.323665   -0.367820
      5          6           0       -4.724704   -3.368536   -2.029880
      6          1           0       -3.703529   -3.752963   -2.085490
      7          6           0       -4.833251   -1.889753   -2.447027
      8          6           0       -5.713723   -4.277485   -2.801259
      9          1           0       -6.690024   -3.778693   -2.801084
     10          8           0       -5.741783   -1.219699   -1.948516
     11          6           0       -5.256964   -4.539312   -4.229354
     12          1           0       -5.168445   -3.604862   -4.791527
     13          1           0       -5.981842   -5.180344   -4.737915
     14          1           0       -4.278049   -5.036590   -4.242972
     15          8           0       -5.901632   -5.473845   -2.041949
     16          1           0       -5.263704   -6.143435   -2.339532
     17          7           0       -3.920891   -1.482401   -3.331584
     18          1           0       -3.181160   -2.112251   -3.646867
     19          6           0       -3.705093   -0.119882   -3.813180
     20          1           0       -4.530446    0.182011   -4.468132
     21          6           0       -2.384421   -0.230444   -4.618607
     22          6           0       -3.580855    0.900515   -2.638834
     23          1           0       -4.392352    0.677542   -1.941671
     24          1           0       -2.636853    0.717249   -2.113534
     25          8           0       -1.826501   -1.332649   -4.726947
     26          6           0       -3.677889    2.348972   -3.071167
     27          6           0       -2.577852    3.213844   -2.968111
     28          1           0       -1.632283    2.850896   -2.574637
     29          6           0       -4.881177    2.843999   -3.597002
     30          1           0       -5.748171    2.189625   -3.662705
     31          6           0       -2.677208    4.541263   -3.393851
     32          1           0       -1.813906    5.194870   -3.309050
     33          6           0       -4.980539    4.169157   -4.019646
     34          1           0       -5.919675    4.538438   -4.421648
     35          6           0       -3.876617    5.020842   -3.921862
     36          1           0       -3.953885    6.052381   -4.252815
     37          7           0       -1.849604    0.912006   -5.087729
     38          1           0       -2.315740    1.782989   -4.850841
     39          6           0       -0.398486    1.024661   -5.358347
     40          1           0       -0.098829    0.121299   -5.895711
     41          6           0        0.273852    1.071466   -3.962310
     42          6           0       -0.109282    2.274718   -6.175410
     43          1           0        0.962680    2.347489   -6.377366
     44          1           0       -0.402332    3.170256   -5.619646
     45          1           0       -0.647596    2.240649   -7.126703
     46          8           0        0.587805    2.133347   -3.424636
     47          7           0        0.353751   -0.129458   -3.332549
     48          1           0        0.025845   -0.947205   -3.833967
     49          6           0        0.454109   -0.226288   -1.875019
     50          1           0        0.081431    0.723018   -1.468832
     51          6           0        1.910721   -0.338854   -1.385692
     52          6           0       -0.419135   -1.374562   -1.357432
     53          1           0       -0.016446   -2.330123   -1.711832
     54          1           0       -1.424415   -1.264096   -1.776723
     55          8           0        2.308503   -1.311327   -0.751434
     56          6           0       -0.490433   -1.389635    0.173394
     57          1           0        0.425553   -1.807740    0.598441
     58          1           0       -0.542088   -0.371335    0.586106
     59          6           0       -1.668395   -2.139517    0.725090
     60          8           0       -2.630852   -2.547637    0.076789
     61          8           0       -1.576664   -2.314642    2.047448
     62          7           0        2.679555    0.752848   -1.660684
     63          1           0        2.171022    1.553286   -2.029740
     64          6           0        3.741730    1.063886   -0.714234
     65          1           0        4.423277    0.209244   -0.674295
     66          6           0        3.094177    1.250626    0.685027
     67          6           0        4.494614    2.325903   -1.143396
     68          1           0        5.300781    2.549830   -0.438467
     69          1           0        3.818084    3.188383   -1.167475
     70          1           0        4.928103    2.192835   -2.139242
     71          8           0        1.893906    1.510640    0.800531
     72          7           0        3.941436    1.104176    1.720025
     73          1           0        4.939373    0.980187    1.571970
     74          6           0        3.584068    1.314668    3.113009
     75          1           0        2.775083    2.050839    3.153628
     76          6           0        4.847158    1.865632    3.803548
     77          6           0        3.149725    0.002252    3.806754
     78          1           0        3.991762   -0.698477    3.730680
     79          1           0        3.008654    0.206754    4.877274
     80          8           0        5.961302    1.705624    3.295988
     81          6           0        1.875800   -0.657172    3.246497
     82          1           0        2.008441   -0.782915    2.164064
     83          6           0        1.696578   -2.049920    3.869205
     84          1           0        1.571294   -1.980134    4.957787
     85          1           0        2.563355   -2.692045    3.673115
     86          1           0        0.806952   -2.546448    3.463220
     87          6           0        0.630899    0.209958    3.484188
     88          1           0        0.507808    0.430500    4.553228
     89          1           0       -0.273086   -0.315079    3.153155
     90          1           0        0.692891    1.150858    2.931446
     91          7           0        4.641198    2.462245    4.990782
     92          1           0        3.709191    2.629436    5.356050
     93          6           0        5.713897    2.944720    5.852076
     94          1           0        6.517319    2.204876    5.872482
     95          6           0        5.162272    3.134720    7.278152
     96          6           0        6.270894    4.289475    5.308941
     97          1           0        5.407910    4.922697    5.058755
     98          1           0        6.769421    4.065699    4.361152
     99          8           0        5.954875    2.991390    8.225015
    100          6           0        7.229382    5.043546    6.263035
    101          1           0        8.110595    5.391982    5.710758
    102          1           0        7.580867    4.368758    7.050346
    103          6           0        6.597054    6.291456    6.906713
    104          1           0        6.251255    6.980312    6.128682
    105          1           0        7.337918    6.851505    7.487039
    106          7           0        5.428221    6.015766    7.754329
    107          1           0        4.634073    5.605711    7.262077
    108          7           0        6.506610    5.957736    9.838081
    109          1           0        6.658589    5.383601   10.655295
    110          1           0        7.350347    6.316742    9.417543
    111          7           0        4.372911    5.041962    9.549426
    112          1           0        3.937477    4.377962    8.858191
    113          1           0        4.466565    4.664630   10.483753
    114          6           0        5.462922    5.634951    9.040344
    115          8           0        3.950747    3.563107    7.334994
    116          1           0       -2.369669   -2.782877    2.367963
 ---------------------------------------------------------------------

 SCF Done:  E(RB3LYP) =  -2782.47185103     A.U. after    2 cycles

 Alpha  occ. eigenvalues --  -19.31400 -19.28965 -19.27009 -19.24946 -19.23594
 Alpha  occ. eigenvalues --  -19.20771 -19.18303 -19.16524 -19.15704 -19.13349
 Alpha  occ. eigenvalues --  -19.12088 -14.56827 -14.48488 -14.46606 -14.44874
 Alpha  occ. eigenvalues --  -14.44550 -14.43661 -14.41227 -14.40843 -14.40595
 Alpha  occ. eigenvalues --  -14.39552 -10.44433 -10.42214 -10.40294 -10.39886
 Alpha  occ. eigenvalues --  -10.38339 -10.38194 -10.37499 -10.35235 -10.34901
 Alpha  occ. eigenvalues --  -10.33504 -10.32759 -10.32752 -10.31301 -10.30444
 Alpha  occ. eigenvalues --  -10.30401 -10.29714 -10.29298 -10.28914 -10.28744
 Alpha  occ. eigenvalues --  -10.28364 -10.28311 -10.27784 -10.27157 -10.26897
 Alpha  occ. eigenvalues --  -10.26828 -10.26752 -10.26668 -10.26046 -10.25447
 Alpha  occ. eigenvalues --  -10.24212 -10.23931 -10.23120 -10.23086 -10.23046
 Alpha  occ. eigenvalues --  -10.21714 -10.21251  -1.22668  -1.17615  -1.16228
 Alpha  occ. eigenvalues --   -1.15383  -1.13632  -1.12445  -1.11274  -1.10146
 Alpha  occ. eigenvalues --   -1.08758  -1.08267  -1.07345  -1.05762  -1.05257
 Alpha  occ. eigenvalues --   -1.03267  -1.01125  -0.98496  -0.98006  -0.97386
 Alpha  occ. eigenvalues --   -0.97195  -0.96299  -0.95568  -0.94017  -0.91934
 Alpha  occ. eigenvalues --   -0.89749  -0.88926  -0.85933  -0.85590  -0.84405
 Alpha  occ. eigenvalues --   -0.84398  -0.83549  -0.82371  -0.81966  -0.81652
 Alpha  occ. eigenvalues --   -0.80007  -0.77704  -0.77036  -0.75818  -0.75519
 Alpha  occ. eigenvalues --   -0.73010  -0.72639  -0.72440  -0.72167  -0.71410
 Alpha  occ. eigenvalues --   -0.70866  -0.70632  -0.70397  -0.69701  -0.68937
 Alpha  occ. eigenvalues --   -0.68337  -0.67743  -0.66797  -0.66240  -0.65561
 Alpha  occ. eigenvalues --   -0.65130  -0.65053  -0.64134  -0.63526  -0.63149
 Alpha  occ. eigenvalues --   -0.61853  -0.61843  -0.61706  -0.61416  -0.60944
 Alpha  occ. eigenvalues --   -0.60821  -0.60530  -0.59585  -0.59171  -0.58670
 Alpha  occ. eigenvalues --   -0.58593  -0.57875  -0.57421  -0.57122  -0.57076
 Alpha  occ. eigenvalues --   -0.56711  -0.56459  -0.55974  -0.55436  -0.55008
 Alpha  occ. eigenvalues --   -0.54868  -0.54041  -0.53702  -0.53429  -0.53309
 Alpha  occ. eigenvalues --   -0.52681  -0.52659  -0.52283  -0.51832  -0.51599
 Alpha  occ. eigenvalues --   -0.51103  -0.51088  -0.50641  -0.50321  -0.50099
 Alpha  occ. eigenvalues --   -0.49980  -0.49890  -0.49721  -0.49650  -0.49334
 Alpha  occ. eigenvalues --   -0.48701  -0.48568  -0.48533  -0.48415  -0.47936
 Alpha  occ. eigenvalues --   -0.47658  -0.47324  -0.47127  -0.46882  -0.46791
 Alpha  occ. eigenvalues --   -0.46425  -0.46344  -0.46100  -0.45799  -0.45600
 Alpha  occ. eigenvalues --   -0.45381  -0.44807  -0.44751  -0.44498  -0.44213
 Alpha  occ. eigenvalues --   -0.44087  -0.43587  -0.43546  -0.43365  -0.43055
 Alpha  occ. eigenvalues --   -0.42659  -0.42518  -0.42409  -0.42201  -0.42028
 Alpha  occ. eigenvalues --   -0.41871  -0.41705  -0.41193  -0.40873  -0.40565
 Alpha  occ. eigenvalues --   -0.40044  -0.39480  -0.39423  -0.38899  -0.38690
 Alpha  occ. eigenvalues --   -0.38222  -0.37976  -0.37272  -0.36991  -0.36718
 Alpha  occ. eigenvalues --   -0.36481  -0.35483  -0.35481  -0.33812  -0.32916
 Alpha  occ. eigenvalues --   -0.32759  -0.32571  -0.32513  -0.30993  -0.30615
 Alpha  occ. eigenvalues --   -0.30035  -0.29827  -0.29306  -0.28666  -0.27853
 Alpha  occ. eigenvalues --   -0.25658
 Alpha virt. eigenvalues --   -0.11879  -0.10901  -0.10255  -0.08344  -0.08215
 Alpha virt. eigenvalues --   -0.06732  -0.06394  -0.05421  -0.05332  -0.04349
 Alpha virt. eigenvalues --   -0.03751  -0.02584  -0.02398  -0.01524  -0.01073

 Mulliken charges:
               1
     1  N   -0.756272
     2  H    0.421736
     3  H    0.410884
     4  H    0.410699
     5  C   -0.124209
     6  H    0.199532
     7  C    0.658513
     8  C    0.127665
     9  H    0.188131
    10  O   -0.536282
    11  C   -0.495866
    12  H    0.187659
    13  H    0.203869
    14  H    0.161502
    15  O   -0.627314
    16  H    0.417641
    17  N   -0.634795
    18  H    0.375221
    19  C   -0.039270
    20  H    0.202153
    21  C    0.618865
    22  C   -0.386414
    23  H    0.210109
    24  H    0.166947
    25  O   -0.560224
    26  C    0.114706
    27  C   -0.224717
    28  H    0.172809
    29  C   -0.176481
    30  H    0.140967
    31  C   -0.130084
    32  H    0.158449
    33  C   -0.127369
    34  H    0.151942
    35  C   -0.126486
    36  H    0.153723
    37  N   -0.592281
    38  H    0.367936
    39  C   -0.068401
    40  H    0.190573
    41  C    0.615720
    42  C   -0.463063
    43  H    0.181201
    44  H    0.179539
    45  H    0.168721
    46  O   -0.529395
    47  N   -0.605986
    48  H    0.367321
    49  C   -0.084683
    50  H    0.193892
    51  C    0.652498
    52  C   -0.296306
    53  H    0.171349
    54  H    0.141906
    55  O   -0.530684
    56  C   -0.391831
    57  H    0.254421
    58  H    0.225715
    59  C    0.600242
    60  O   -0.530952
    61  O   -0.512429
    62  N   -0.589638
    63  H    0.360478
    64  C   -0.063139
    65  H    0.182373
    66  C    0.637327
    67  C   -0.471041
    68  H    0.172909
    69  H    0.163615
    70  H    0.172359
    71  O   -0.564693
    72  N   -0.600868
    73  H    0.353031
    74  C   -0.068434
    75  H    0.169683
    76  C    0.621790
    77  C   -0.249725
    78  H    0.146353
    79  H    0.142082
    80  O   -0.553850
    81  C   -0.077879
    82  H    0.150794
    83  C   -0.451373
    84  H    0.141329
    85  H    0.145987
    86  H    0.130171
    87  C   -0.472963
    88  H    0.132957
    89  H    0.125747
    90  H    0.175367
    91  N   -0.617475
    92  H    0.346245
    93  C   -0.004483
    94  H    0.172484
    95  C    0.576403
    96  C   -0.293366
    97  H    0.128929
    98  H    0.178981
    99  O   -0.581615
   100  C   -0.273595
   101  H    0.148466
   102  H    0.186413
   103  C   -0.179537
   104  H    0.177996
   105  H    0.148158
   106  N   -0.569258
   107  H    0.369202
   108  N   -0.750725
   109  H    0.367026
   110  H    0.364815
   111  N   -0.733889
   112  H    0.400343
   113  H    0.337060
   114  C    0.760211
   115  O   -0.648109
   116  H    0.415606
 Sum of Mulliken charges =   1.00000

 Dipole moment (field-independent basis, Debye):
    X=            -11.3602    Y=             -1.6425    Z=             -1.5354  Tot=             11.5806
 Quadrupole moment (field-independent basis, Debye-Ang):
   XX=           -207.6401   YY=           -210.2281   ZZ=           -183.7637
   XY=            118.3421   XZ=             97.8847   YZ=             72.6503

 Normal termination of Gaussian 16 at Sat Jun 25 09:45:46 2022.
