 Gaussian 16, Revision C.01,
 Gaussian 16:  ES64L-G16RevC.01  3-Jul-2019

 ----------------------------------------------------------------------
 # B3LYP/6-31G* empiricaldispersion=gd3 guess=read geom=check nosymm in
 tegral(ultrafinegrid)
 ----------------------------------------------------------------------

 -----------------------------------------------------
 Candidate Structure: Conf:95 Charge calc in gas phase
 -----------------------------------------------------
 Structure from the checkpoint file:  "conf-95.chk"
 Charge =  1 Multiplicity = 1

                          Input orientation:
 ---------------------------------------------------------------------
 Center     Atomic      Atomic             Coordinates (Angstroms)
 Number     Number       Type             X           Y           Z
 ---------------------------------------------------------------------
      1          7           0       -6.273557   -4.303234   -2.247796
      2          1           0       -7.051768   -3.624525   -2.283185
      3          1           0       -6.304872   -4.844319   -3.134825
      4          1           0       -6.324593   -4.907862   -1.415770
      5          6           0       -4.943339   -3.604067   -2.263628
      6          1           0       -5.019898   -2.708333   -1.644032
      7          6           0       -4.726717   -3.272655   -3.748489
      8          6           0       -3.888305   -4.579257   -1.698119
      9          1           0       -3.783533   -5.411802   -2.404080
     10          8           0       -5.207922   -4.041624   -4.587488
     11          6           0       -2.544932   -3.889753   -1.495651
     12          1           0       -2.151476   -3.511847   -2.444777
     13          1           0       -1.826693   -4.598845   -1.075597
     14          1           0       -2.649721   -3.034353   -0.816755
     15          8           0       -4.420165   -5.162121   -0.504928
     16          1           0       -4.152056   -4.619619    0.254998
     17          7           0       -4.049271   -2.150501   -3.981440
     18          1           0       -3.768092   -1.580153   -3.179516
     19          6           0       -4.063955   -1.487423   -5.273321
     20          1           0       -4.208684   -2.256300   -6.037889
     21          6           0       -2.676338   -0.831548   -5.428244
     22          6           0       -5.244796   -0.457381   -5.310643
     23          1           0       -4.912882    0.447930   -4.791466
     24          1           0       -5.450496   -0.195575   -6.355925
     25          8           0       -1.720022   -1.245421   -4.781870
     26          6           0       -6.499340   -0.996280   -4.655905
     27          6           0       -7.396039   -1.813754   -5.356832
     28          1           0       -7.220163   -2.020800   -6.409159
     29          6           0       -6.734854   -0.755969   -3.294266
     30          1           0       -6.036158   -0.142043   -2.732435
     31          6           0       -8.498575   -2.382362   -4.718560
     32          1           0       -9.184530   -3.008240   -5.281962
     33          6           0       -7.840070   -1.320184   -2.647416
     34          1           0       -8.025080   -1.095553   -1.599388
     35          6           0       -8.727317   -2.138723   -3.359218
     36          1           0       -9.604921   -2.553245   -2.869401
     37          7           0       -2.578773    0.256305   -6.248775
     38          1           0       -3.447214    0.659894   -6.574709
     39          6           0       -1.551485    1.238444   -5.902210
     40          1           0       -0.572829    0.768432   -6.033598
     41          6           0       -1.739803    1.608725   -4.409119
     42          6           0       -1.673588    2.477277   -6.791965
     43          1           0       -0.888810    3.199018   -6.548223
     44          1           0       -2.641663    2.968742   -6.638613
     45          1           0       -1.576953    2.203137   -7.846815
     46          8           0       -2.851758    1.549132   -3.872019
     47          7           0       -0.628081    1.983724   -3.752437
     48          1           0        0.280450    2.023452   -4.203323
     49          6           0       -0.637438    2.330909   -2.341564
     50          1           0       -1.601195    2.789169   -2.108083
     51          6           0        0.527645    3.294191   -2.090008
     52          6           0       -0.400280    1.095173   -1.435082
     53          1           0       -0.382854    1.418482   -0.389860
     54          1           0        0.601762    0.711764   -1.653960
     55          8           0        1.536769    3.243086   -2.787011
     56          6           0       -1.385279   -0.060758   -1.634025
     57          1           0       -1.352111   -0.453223   -2.654582
     58          1           0       -1.083887   -0.894631   -0.983572
     59          6           0       -2.833210    0.205128   -1.316618
     60          8           0       -3.752841   -0.559966   -1.597718
     61          8           0       -3.049467    1.329104   -0.624382
     62          7           0        0.375512    4.125099   -1.018256
     63          1           0       -0.386937    3.884913   -0.392585
     64          6           0        1.566584    4.586820   -0.300397
     65          1           0        2.315248    4.838628   -1.054739
     66          6           0        2.044622    3.405110    0.571417
     67          6           0        1.236672    5.801064    0.569165
     68          1           0        2.134636    6.150693    1.088468
     69          1           0        0.490917    5.535546    1.327100
     70          1           0        0.844562    6.617039   -0.044937
     71          8           0        1.209723    2.681952    1.124227
     72          7           0        3.375549    3.232865    0.654317
     73          1           0        4.020526    3.906444    0.253722
     74          6           0        4.012918    2.164434    1.407684
     75          1           0        3.313761    1.834247    2.180454
     76          6           0        5.287510    2.751632    2.035331
     77          6           0        4.412643    0.980643    0.492945
     78          1           0        5.159748    1.358024   -0.218239
     79          1           0        4.920081    0.227347    1.110959
     80          8           0        5.843037    3.733664    1.526205
     81          6           0        3.261599    0.316798   -0.284183
     82          1           0        2.736267    1.107212   -0.838155
     83          6           0        3.832108   -0.672656   -1.311234
     84          1           0        4.381875   -1.481613   -0.813218
     85          1           0        4.519805   -0.178138   -2.007011
     86          1           0        3.029680   -1.132058   -1.901697
     87          6           0        2.259566   -0.381190    0.646543
     88          1           0        2.762918   -1.142349    1.256940
     89          1           0        1.482679   -0.892318    0.062366
     90          1           0        1.762097    0.333148    1.307426
     91          7           0        5.760179    2.090578    3.100776
     92          1           0        5.297492    1.284768    3.522346
     93          6           0        7.033919    2.386052    3.728741
     94          1           0        7.813087    2.365468    2.956769
     95          6           0        7.324756    1.212448    4.731504
     96          6           0        7.047854    3.787282    4.416945
     97          1           0        7.387432    3.660814    5.449086
     98          1           0        6.015490    4.140600    4.489496
     99          8           0        8.518508    1.161742    5.196724
    100          6           0        7.910559    4.841324    3.680826
    101          1           0        7.272943    5.468213    3.050814
    102          1           0        8.571679    4.338125    2.969551
    103          6           0        8.732805    5.796384    4.570038
    104          1           0        8.063760    6.520967    5.045963
    105          1           0        9.429027    6.368740    3.945794
    106          7           0        9.475282    5.167837    5.693210
    107          1           0        9.439394    5.666647    6.572565
    108          7           0       10.087690    3.094987    4.752114
    109          1           0        9.526100    2.138288    4.756525
    110          1           0       10.272357    3.569197    3.879475
    111          7           0        9.683125    3.251806    7.005188
    112          1           0        8.987729    3.600854    7.652688
    113          1           0        9.732468    2.236173    6.974828
    114          6           0        9.751089    3.849233    5.787766
    115          8           0        6.390783    0.445497    4.989694
    116          1           0       -4.011970    1.410947   -0.484741
 ---------------------------------------------------------------------

 SCF Done:  E(RB3LYP) =  -2782.45593272     A.U. after    2 cycles

 Alpha  occ. eigenvalues --  -19.29852 -19.27916 -19.24506 -19.23500 -19.21054
 Alpha  occ. eigenvalues --  -19.20017 -19.19525 -19.17418 -19.16209 -19.13406
 Alpha  occ. eigenvalues --  -19.12293 -14.56968 -14.46400 -14.45340 -14.44663
 Alpha  occ. eigenvalues --  -14.44261 -14.44095 -14.42944 -14.41768 -14.41352
 Alpha  occ. eigenvalues --  -14.39563 -10.42607 -10.40495 -10.39963 -10.38068
 Alpha  occ. eigenvalues --  -10.37154 -10.37103 -10.37012 -10.36266 -10.34528
 Alpha  occ. eigenvalues --  -10.33538 -10.33146 -10.32022 -10.31089 -10.30867
 Alpha  occ. eigenvalues --  -10.30647 -10.29809 -10.29650 -10.29415 -10.29273
 Alpha  occ. eigenvalues --  -10.29102 -10.28978 -10.28864 -10.28761 -10.28658
 Alpha  occ. eigenvalues --  -10.28334 -10.28285 -10.26961 -10.26951 -10.26441
 Alpha  occ. eigenvalues --  -10.25217 -10.24883 -10.24230 -10.23788 -10.23627
 Alpha  occ. eigenvalues --  -10.22117 -10.21833  -1.20922  -1.16518  -1.14996
 Alpha  occ. eigenvalues --   -1.13439  -1.11837  -1.11499  -1.11114  -1.10861
 Alpha  occ. eigenvalues --   -1.09286  -1.08990  -1.07857  -1.06025  -1.03953
 Alpha  occ. eigenvalues --   -1.01411  -1.00697  -0.99676  -0.98983  -0.98201
 Alpha  occ. eigenvalues --   -0.97876  -0.96186  -0.95670  -0.95529  -0.91111
 Alpha  occ. eigenvalues --   -0.88971  -0.88429  -0.86235  -0.85847  -0.85241
 Alpha  occ. eigenvalues --   -0.84373  -0.84279  -0.83810  -0.81709  -0.81215
 Alpha  occ. eigenvalues --   -0.80443  -0.78498  -0.76544  -0.74953  -0.74395
 Alpha  occ. eigenvalues --   -0.73498  -0.72918  -0.72820  -0.71802  -0.71552
 Alpha  occ. eigenvalues --   -0.70701  -0.70090  -0.69946  -0.69369  -0.69201
 Alpha  occ. eigenvalues --   -0.68729  -0.68168  -0.67542  -0.67010  -0.66752
 Alpha  occ. eigenvalues --   -0.65465  -0.64798  -0.64121  -0.63972  -0.62862
 Alpha  occ. eigenvalues --   -0.62401  -0.61900  -0.61374  -0.61174  -0.60840
 Alpha  occ. eigenvalues --   -0.60674  -0.59564  -0.59034  -0.58741  -0.58309
 Alpha  occ. eigenvalues --   -0.57866  -0.57654  -0.57470  -0.56815  -0.56321
 Alpha  occ. eigenvalues --   -0.56224  -0.55911  -0.55539  -0.55265  -0.55157
 Alpha  occ. eigenvalues --   -0.54486  -0.54297  -0.54139  -0.53857  -0.53368
 Alpha  occ. eigenvalues --   -0.52928  -0.52727  -0.52373  -0.51907  -0.51703
 Alpha  occ. eigenvalues --   -0.51586  -0.51409  -0.51148  -0.50506  -0.50231
 Alpha  occ. eigenvalues --   -0.49908  -0.49855  -0.49599  -0.49195  -0.49125
 Alpha  occ. eigenvalues --   -0.49046  -0.48858  -0.48698  -0.48297  -0.48086
 Alpha  occ. eigenvalues --   -0.47984  -0.47493  -0.47333  -0.47045  -0.46796
 Alpha  occ. eigenvalues --   -0.46424  -0.46255  -0.45924  -0.45875  -0.45446
 Alpha  occ. eigenvalues --   -0.45354  -0.45062  -0.44850  -0.44666  -0.44569
 Alpha  occ. eigenvalues --   -0.44193  -0.43842  -0.43779  -0.43709  -0.43350
 Alpha  occ. eigenvalues --   -0.43216  -0.43124  -0.42800  -0.42695  -0.42203
 Alpha  occ. eigenvalues --   -0.42081  -0.41524  -0.41083  -0.41066  -0.40774
 Alpha  occ. eigenvalues --   -0.40333  -0.40045  -0.38624  -0.38247  -0.37790
 Alpha  occ. eigenvalues --   -0.37523  -0.37220  -0.37124  -0.36901  -0.35894
 Alpha  occ. eigenvalues --   -0.35340  -0.35130  -0.34688  -0.34596  -0.34488
 Alpha  occ. eigenvalues --   -0.34045  -0.33667  -0.33385  -0.32696  -0.31804
 Alpha  occ. eigenvalues --   -0.30833  -0.30053  -0.29844  -0.28324  -0.27903
 Alpha  occ. eigenvalues --   -0.26539
 Alpha virt. eigenvalues --   -0.11211  -0.10528  -0.09737  -0.09352  -0.07901
 Alpha virt. eigenvalues --   -0.06733  -0.06090  -0.05979  -0.05282  -0.03651
 Alpha virt. eigenvalues --   -0.03010  -0.02570  -0.02331  -0.01685  -0.00912

 Mulliken charges:
               1
     1  N   -0.749229
     2  H    0.408366
     3  H    0.415951
     4  H    0.411880
     5  C   -0.147211
     6  H    0.214743
     7  C    0.646522
     8  C    0.126814
     9  H    0.184851
    10  O   -0.547581
    11  C   -0.506554
    12  H    0.207948
    13  H    0.194805
    14  H    0.158298
    15  O   -0.629127
    16  H    0.414950
    17  N   -0.606981
    18  H    0.412430
    19  C   -0.065335
    20  H    0.214201
    21  C    0.626239
    22  C   -0.411621
    23  H    0.204919
    24  H    0.163103
    25  O   -0.515477
    26  C    0.155519
    27  C   -0.148551
    28  H    0.151538
    29  C   -0.186764
    30  H    0.160752
    31  C   -0.128726
    32  H    0.160405
    33  C   -0.186921
    34  H    0.149414
    35  C   -0.176466
    36  H    0.155953
    37  N   -0.584012
    38  H    0.341295
    39  C   -0.053746
    40  H    0.186907
    41  C    0.637814
    42  C   -0.478839
    43  H    0.180665
    44  H    0.166116
    45  H    0.182871
    46  O   -0.567680
    47  N   -0.601969
    48  H    0.356781
    49  C   -0.069370
    50  H    0.186936
    51  C    0.616294
    52  C   -0.284148
    53  H    0.199336
    54  H    0.177018
    55  O   -0.526307
    56  C   -0.416007
    57  H    0.236777
    58  H    0.188180
    59  C    0.653064
    60  O   -0.533382
    61  O   -0.542076
    62  N   -0.572035
    63  H    0.339160
    64  C   -0.078729
    65  H    0.184418
    66  C    0.630401
    67  C   -0.458150
    68  H    0.168426
    69  H    0.163924
    70  H    0.172738
    71  O   -0.554686
    72  N   -0.590582
    73  H    0.350613
    74  C   -0.075915
    75  H    0.179836
    76  C    0.623003
    77  C   -0.254902
    78  H    0.146040
    79  H    0.150816
    80  O   -0.564988
    81  C   -0.078724
    82  H    0.138388
    83  C   -0.445312
    84  H    0.147005
    85  H    0.148190
    86  H    0.132066
    87  C   -0.469302
    88  H    0.141261
    89  H    0.117416
    90  H    0.183400
    91  N   -0.620805
    92  H    0.355853
    93  C   -0.036872
    94  H    0.148934
    95  C    0.592214
    96  C   -0.275382
    97  H    0.137362
    98  H    0.162314
    99  O   -0.645075
   100  C   -0.287965
   101  H    0.187218
   102  H    0.144582
   103  C   -0.151468
   104  H    0.167558
   105  H    0.176299
   106  N   -0.587558
   107  H    0.345865
   108  N   -0.729539
   109  H    0.431189
   110  H    0.340802
   111  N   -0.717457
   112  H    0.347982
   113  H    0.387751
   114  C    0.684563
   115  O   -0.537215
   116  H    0.419500
 Sum of Mulliken charges =   1.00000

 Dipole moment (field-independent basis, Debye):
    X=            -12.7754    Y=              2.9575    Z=             -4.6697  Tot=             13.9199
 Quadrupole moment (field-independent basis, Debye-Ang):
   XX=           -108.2108   YY=           -230.2225   ZZ=           -239.2743
   XY=            148.5081   XZ=            110.3411   YZ=             67.6931

 Normal termination of Gaussian 16 at Sat Jun 25 09:45:46 2022.
