 Gaussian 16, Revision C.01,
 Gaussian 16:  ES64L-G16RevC.01  3-Jul-2019

 ----------------------------------------------------------------------
 # B3LYP/6-31G* empiricaldispersion=gd3 guess=read geom=check nosymm in
 tegral(ultrafinegrid)
 ----------------------------------------------------------------------

 ------------------------------------------------------
 Candidate Structure: Conf:879 Charge calc in gas phase
 ------------------------------------------------------
 Structure from the checkpoint file:  "conf-879.chk"
 Charge =  1 Multiplicity = 1

                          Input orientation:
 ---------------------------------------------------------------------
 Center     Atomic      Atomic             Coordinates (Angstroms)
 Number     Number       Type             X           Y           Z
 ---------------------------------------------------------------------
      1          7           0       -7.962427   -2.928937   -1.202870
      2          1           0       -8.329446   -2.324049   -0.463101
      3          1           0       -8.412108   -2.660648   -2.103583
      4          1           0       -8.123493   -3.924631   -0.968257
      5          6           0       -6.483260   -2.761437   -1.448926
      6          1           0       -5.978850   -2.559995   -0.502234
      7          6           0       -6.383782   -1.620521   -2.474083
      8          6           0       -6.013021   -4.118754   -2.054842
      9          1           0       -6.468730   -4.202577   -3.048781
     10          8           0       -7.310756   -1.514057   -3.282959
     11          6           0       -4.502091   -4.225712   -2.159905
     12          1           0       -4.109085   -3.464147   -2.839856
     13          1           0       -4.239130   -5.211825   -2.552991
     14          1           0       -4.032451   -4.089813   -1.178771
     15          8           0       -6.610871   -5.159570   -1.275871
     16          1           0       -5.976851   -5.461223   -0.604439
     17          7           0       -5.286654   -0.858646   -2.418481
     18          1           0       -4.591111   -1.054054   -1.703991
     19          6           0       -4.922282    0.073339   -3.481707
     20          1           0       -5.748436    0.055437   -4.199847
     21          6           0       -3.672273   -0.501703   -4.194183
     22          6           0       -4.782297    1.517465   -2.929864
     23          1           0       -4.582746    2.198271   -3.765519
     24          1           0       -5.770122    1.800479   -2.549721
     25          8           0       -3.310378   -1.663410   -3.992807
     26          6           0       -3.738483    1.691097   -1.844769
     27          6           0       -4.062313    1.412355   -0.507934
     28          1           0       -5.073369    1.098891   -0.256935
     29          6           0       -2.437848    2.123504   -2.144083
     30          1           0       -2.152405    2.345949   -3.167194
     31          6           0       -3.108600    1.552043    0.501734
     32          1           0       -3.375244    1.338457    1.533237
     33          6           0       -1.480259    2.266040   -1.135785
     34          1           0       -0.469925    2.582491   -1.381591
     35          6           0       -1.815875    1.978205    0.189494
     36          1           0       -1.072816    2.086503    0.970877
     37          7           0       -3.036995    0.316486   -5.061438
     38          1           0       -3.294909    1.292991   -5.105029
     39          6           0       -1.727050   -0.035385   -5.640403
     40          1           0       -1.765995   -1.100630   -5.881142
     41          6           0       -0.686023    0.239830   -4.533157
     42          6           0       -1.456057    0.795368   -6.887474
     43          1           0       -0.506267    0.491789   -7.336629
     44          1           0       -1.372118    1.854962   -6.627676
     45          1           0       -2.252668    0.655014   -7.623855
     46          8           0       -0.221388    1.371236   -4.376566
     47          7           0       -0.422506   -0.799877   -3.708282
     48          1           0       -0.914224   -1.668243   -3.876815
     49          6           0        0.225572   -0.615301   -2.403498
     50          1           0       -0.040603    0.392589   -2.069871
     51          6           0        1.766043   -0.605936   -2.452284
     52          6           0       -0.290007   -1.609561   -1.364683
     53          1           0        0.220498   -1.390483   -0.424696
     54          1           0       -0.003147   -2.632590   -1.631088
     55          8           0        2.433466   -1.390201   -1.789781
     56          6           0       -1.806065   -1.484491   -1.173931
     57          1           0       -2.123389   -0.448455   -1.346835
     58          1           0       -2.368546   -2.083928   -1.892930
     59          6           0       -2.280937   -1.807429    0.213896
     60          8           0       -1.632025   -1.921250    1.221513
     61          8           0       -3.665615   -1.924156    0.251853
     62          7           0        2.304976    0.430908   -3.167242
     63          1           0        1.620000    1.107130   -3.499923
     64          6           0        3.520791    1.028556   -2.615771
     65          1           0        4.298005    0.260079   -2.589571
     66          6           0        3.183966    1.486575   -1.173418
     67          6           0        3.964885    2.217160   -3.468718
     68          1           0        4.887194    2.649814   -3.068774
     69          1           0        3.193952    2.996132   -3.465071
     70          1           0        4.144017    1.901665   -4.501084
     71          8           0        2.071445    1.958240   -0.914616
     72          7           0        4.160074    1.313966   -0.263782
     73          1           0        5.069126    0.955849   -0.535237
     74          6           0        4.023652    1.619133    1.150172
     75          1           0        3.259854    2.394318    1.253293
     76          6           0        5.387978    2.127227    1.641103
     77          6           0        3.643549    0.364942    1.979298
     78          1           0        4.456577   -0.362960    1.855747
     79          1           0        3.632528    0.644143    3.042857
     80          8           0        6.427854    1.797598    1.069950
     81          6           0        2.303709   -0.298180    1.612958
     82          1           0        2.318478   -0.514316    0.538089
     83          6           0        2.160580   -1.636648    2.352458
     84          1           0        2.161957   -1.488178    3.440457
     85          1           0        2.981211   -2.319819    2.104275
     86          1           0        1.216985   -2.126283    2.084016
     87          6           0        1.106599    0.613942    1.912947
     88          1           0        1.085536    0.895100    2.974744
     89          1           0        0.167302    0.093346    1.690323
     90          1           0        1.144724    1.521799    1.304341
     91          7           0        5.342972    2.900883    2.750768
     92          1           0        4.480853    2.946431    3.286707
     93          6           0        6.532846    3.187386    3.547707
     94          1           0        7.089301    2.248022    3.689334
     95          6           0        6.018528    3.589824    4.950726
     96          6           0        7.485036    4.184210    2.875346
     97          1           0        7.697129    3.806978    1.870418
     98          1           0        8.432283    4.160531    3.421503
     99          8           0        6.831284    4.251047    5.760377
    100          6           0        6.955722    5.619220    2.824471
    101          1           0        6.583595    5.920947    3.806576
    102          1           0        6.106448    5.685690    2.132851
    103          6           0        8.012269    6.636109    2.371060
    104          1           0        7.625628    7.651803    2.536668
    105          1           0        8.184644    6.528416    1.294929
    106          7           0        9.337319    6.499352    2.984863
    107          1           0       10.129810    6.583384    2.366593
    108          7           0        8.796319    6.000058    5.202544
    109          1           0        9.136419    6.155182    6.150246
    110          1           0        7.591457    4.770515    5.342638
    111          7           0       10.948007    6.829068    4.591364
    112          1           0       11.277467    7.667952    4.128603
    113          1           0       11.225336    6.780542    5.563008
    114          6           0        9.636435    6.444077    4.319085
    115          8           0        4.908357    3.240589    5.310766
    116          1           0       -3.878889   -2.016215    1.200496
 ---------------------------------------------------------------------

 SCF Done:  E(RB3LYP) =  -2782.44987708     A.U. after    2 cycles

 Alpha  occ. eigenvalues --  -19.30501 -19.30302 -19.26555 -19.24119 -19.23430
 Alpha  occ. eigenvalues --  -19.20627 -19.20048 -19.17746 -19.16424 -19.16189
 Alpha  occ. eigenvalues --  -19.16034 -14.60298 -14.50101 -14.47488 -14.44959
 Alpha  occ. eigenvalues --  -14.40866 -14.40813 -14.40727 -14.40029 -14.39918
 Alpha  occ. eigenvalues --  -14.35182 -10.43785 -10.41939 -10.40531 -10.40434
 Alpha  occ. eigenvalues --  -10.39376 -10.37506 -10.35753 -10.34907 -10.34674
 Alpha  occ. eigenvalues --  -10.34267 -10.33436 -10.33101 -10.33056 -10.30668
 Alpha  occ. eigenvalues --  -10.30304 -10.30057 -10.28974 -10.28655 -10.28425
 Alpha  occ. eigenvalues --  -10.28005 -10.27721 -10.27530 -10.27504 -10.27447
 Alpha  occ. eigenvalues --  -10.27261 -10.26781 -10.26678 -10.26654 -10.26616
 Alpha  occ. eigenvalues --  -10.23777 -10.22820 -10.22646 -10.22318 -10.22300
 Alpha  occ. eigenvalues --  -10.20757 -10.20676  -1.20395  -1.19483  -1.17598
 Alpha  occ. eigenvalues --   -1.15361  -1.13860  -1.12397  -1.11717  -1.11633
 Alpha  occ. eigenvalues --   -1.09637  -1.08307  -1.07562  -1.06690  -1.03814
 Alpha  occ. eigenvalues --   -1.03636  -1.03507  -1.01129  -0.97388  -0.97229
 Alpha  occ. eigenvalues --   -0.96627  -0.94663  -0.94493  -0.93223  -0.90305
 Alpha  occ. eigenvalues --   -0.89941  -0.88866  -0.86394  -0.85246  -0.85224
 Alpha  occ. eigenvalues --   -0.83743  -0.83136  -0.82825  -0.82742  -0.81113
 Alpha  occ. eigenvalues --   -0.79653  -0.78105  -0.77380  -0.76329  -0.74878
 Alpha  occ. eigenvalues --   -0.74497  -0.73329  -0.72516  -0.72261  -0.71979
 Alpha  occ. eigenvalues --   -0.71776  -0.70845  -0.70452  -0.69034  -0.68442
 Alpha  occ. eigenvalues --   -0.67596  -0.67249  -0.67140  -0.66808  -0.66353
 Alpha  occ. eigenvalues --   -0.64909  -0.64724  -0.63676  -0.63236  -0.62813
 Alpha  occ. eigenvalues --   -0.62489  -0.61457  -0.60736  -0.60721  -0.60410
 Alpha  occ. eigenvalues --   -0.60251  -0.60066  -0.59400  -0.58998  -0.58784
 Alpha  occ. eigenvalues --   -0.58465  -0.58303  -0.58053  -0.57796  -0.57486
 Alpha  occ. eigenvalues --   -0.56963  -0.56643  -0.55668  -0.55295  -0.55078
 Alpha  occ. eigenvalues --   -0.54660  -0.54170  -0.53782  -0.53317  -0.53243
 Alpha  occ. eigenvalues --   -0.52709  -0.52302  -0.52170  -0.51600  -0.51382
 Alpha  occ. eigenvalues --   -0.51071  -0.50876  -0.50872  -0.50360  -0.50348
 Alpha  occ. eigenvalues --   -0.50261  -0.50089  -0.49932  -0.49706  -0.49287
 Alpha  occ. eigenvalues --   -0.48898  -0.48513  -0.48171  -0.47943  -0.47550
 Alpha  occ. eigenvalues --   -0.47483  -0.47381  -0.47246  -0.47114  -0.46930
 Alpha  occ. eigenvalues --   -0.46541  -0.46510  -0.45846  -0.45654  -0.45207
 Alpha  occ. eigenvalues --   -0.45120  -0.44516  -0.44281  -0.44000  -0.43597
 Alpha  occ. eigenvalues --   -0.43549  -0.43253  -0.43113  -0.42950  -0.42598
 Alpha  occ. eigenvalues --   -0.42489  -0.42378  -0.42275  -0.42091  -0.41893
 Alpha  occ. eigenvalues --   -0.41454  -0.41270  -0.40838  -0.40698  -0.39890
 Alpha  occ. eigenvalues --   -0.39656  -0.39627  -0.38826  -0.38671  -0.38382
 Alpha  occ. eigenvalues --   -0.37915  -0.37526  -0.37236  -0.36349  -0.36047
 Alpha  occ. eigenvalues --   -0.35898  -0.35419  -0.33852  -0.33738  -0.33464
 Alpha  occ. eigenvalues --   -0.33211  -0.33193  -0.31956  -0.31495  -0.31127
 Alpha  occ. eigenvalues --   -0.30495  -0.30118  -0.29503  -0.29453  -0.29126
 Alpha  occ. eigenvalues --   -0.28428
 Alpha virt. eigenvalues --   -0.13234  -0.10325  -0.10231  -0.09241  -0.09173
 Alpha virt. eigenvalues --   -0.08291  -0.06695  -0.05735  -0.05393  -0.04955
 Alpha virt. eigenvalues --   -0.03380  -0.02997  -0.02650  -0.02202  -0.02075

 Mulliken charges:
               1
     1  N   -0.740983
     2  H    0.414739
     3  H    0.424757
     4  H    0.427578
     5  C   -0.142812
     6  H    0.201462
     7  C    0.640070
     8  C    0.128330
     9  H    0.192042
    10  O   -0.528380
    11  C   -0.535568
    12  H    0.232533
    13  H    0.196883
    14  H    0.163616
    15  O   -0.633155
    16  H    0.423880
    17  N   -0.595636
    18  H    0.398379
    19  C   -0.101712
    20  H    0.224031
    21  C    0.646427
    22  C   -0.379818
    23  H    0.165255
    24  H    0.179313
    25  O   -0.538770
    26  C    0.159077
    27  C   -0.189649
    28  H    0.109393
    29  C   -0.198372
    30  H    0.148912
    31  C   -0.139062
    32  H    0.142049
    33  C   -0.162901
    34  H    0.202780
    35  C   -0.133550
    36  H    0.176816
    37  N   -0.593587
    38  H    0.348259
    39  C   -0.058418
    40  H    0.181909
    41  C    0.638128
    42  C   -0.470488
    43  H    0.184719
    44  H    0.180617
    45  H    0.167331
    46  O   -0.541798
    47  N   -0.593019
    48  H    0.352317
    49  C   -0.096891
    50  H    0.211427
    51  C    0.628203
    52  C   -0.309065
    53  H    0.224968
    54  H    0.168004
    55  O   -0.511163
    56  C   -0.414428
    57  H    0.206918
    58  H    0.190465
    59  C    0.605453
    60  O   -0.424814
    61  O   -0.623732
    62  N   -0.596137
    63  H    0.366995
    64  C   -0.053288
    65  H    0.172951
    66  C    0.630653
    67  C   -0.468909
    68  H    0.167005
    69  H    0.166581
    70  H    0.169883
    71  O   -0.564987
    72  N   -0.588398
    73  H    0.350523
    74  C   -0.076198
    75  H    0.175755
    76  C    0.618453
    77  C   -0.259280
    78  H    0.147818
    79  H    0.145558
    80  O   -0.542788
    81  C   -0.089429
    82  H    0.163976
    83  C   -0.452506
    84  H    0.138478
    85  H    0.144856
    86  H    0.148620
    87  C   -0.490228
    88  H    0.134222
    89  H    0.142045
    90  H    0.172519
    91  N   -0.614690
    92  H    0.356033
    93  C   -0.050525
    94  H    0.185994
    95  C    0.584168
    96  C   -0.293894
    97  H    0.175487
    98  H    0.162113
    99  O   -0.616377
   100  C   -0.277074
   101  H    0.166933
   102  H    0.146807
   103  C   -0.118618
   104  H    0.155922
   105  H    0.148455
   106  N   -0.602441
   107  H    0.334775
   108  N   -0.715666
   109  H    0.295120
   110  H    0.476185
   111  N   -0.760322
   112  H    0.333681
   113  H    0.335725
   114  C    0.658620
   115  O   -0.482355
   116  H    0.411933
 Sum of Mulliken charges =   1.00000

 Dipole moment (field-independent basis, Debye):
    X=            -18.9782    Y=             -1.5240    Z=             -7.9007  Tot=             20.6135
 Quadrupole moment (field-independent basis, Debye-Ang):
   XX=            -17.8653   YY=           -233.1658   ZZ=           -302.3769
   XY=            166.0524   XZ=             54.9419   YZ=             19.4732

 Normal termination of Gaussian 16 at Sat Jun 25 10:10:50 2022.
