 Gaussian 16, Revision C.01,
 Gaussian 16:  ES64L-G16RevC.01  3-Jul-2019

 ----------------------------------------------------------------------
 # B3LYP/6-31G* empiricaldispersion=gd3 guess=read geom=check nosymm in
 tegral(ultrafinegrid)
 ----------------------------------------------------------------------

 ------------------------------------------------------
 Candidate Structure: Conf:446 Charge calc in gas phase
 ------------------------------------------------------
 Structure from the checkpoint file:  "conf-446.chk"
 Charge =  1 Multiplicity = 1

                          Input orientation:
 ---------------------------------------------------------------------
 Center     Atomic      Atomic             Coordinates (Angstroms)
 Number     Number       Type             X           Y           Z
 ---------------------------------------------------------------------
      1          7           0        3.724311    3.765217   -1.527303
      2          1           0        4.031214    4.293008   -2.347581
      3          1           0        4.167475    2.803605   -1.535077
      4          1           0        2.686856    3.564974   -1.612621
      5          6           0        4.023440    4.498227   -0.265775
      6          1           0        5.091904    4.729105   -0.232894
      7          1           0        3.458865    5.435233   -0.261263
      8          6           0        3.611537    3.603353    0.911785
      9          8           0        3.066856    2.521019    0.701442
     10          7           0        3.886923    4.073339    2.140362
     11          1           0        4.275504    4.998198    2.264880
     12          6           0        3.495322    3.314308    3.327351
     13          1           0        3.596277    3.971802    4.192018
     14          1           0        4.161021    2.462249    3.476972
     15          6           0        2.037951    2.874578    3.189521
     16          8           0        1.161281    3.714042    2.902340
     17          7           0        1.779713    1.574359    3.367166
     18          1           0        2.497970    0.972077    3.766403
     19          6           0        0.417470    1.077644    3.236453
     20          1           0        0.350865    0.098705    3.709227
     21          1           0       -0.266335    1.766054    3.740793
     22          6           0        0.087703    0.946036    1.745040
     23          8           0        0.229774   -0.130626    1.132229
     24          7           0       -0.325227    2.082425    1.148719
     25          1           0       -0.159958    2.940829    1.675062
     26          6           0       -0.643372    2.166732   -0.270318
     27          1           0       -1.328167    1.352925   -0.528148
     28          1           0       -1.139189    3.119627   -0.456469
     29          6           0        0.604644    2.111365   -1.164400
     30          8           0        1.098081    3.144238   -1.642095
     31          7           0        1.061913    0.862420   -1.392310
     32          1           0        0.670277    0.149296   -0.775988
     33          6           0        2.266075    0.563666   -2.150001
     34          1           0        2.438137    1.364142   -2.869783
     35          1           0        2.109111   -0.364637   -2.711463
     36          6           0        3.509477    0.428227   -1.256266
     37          8           0        4.495499    1.169709   -1.372901
     38          7           0        3.434241   -0.531435   -0.318804
     39          1           0        2.676234   -1.200407   -0.354315
     40          6           0        4.396682   -0.652185    0.770707
     41          1           0        5.348831   -1.063484    0.425506
     42          1           0        4.583278    0.352271    1.167222
     43          6           0        3.900193   -1.557692    1.897524
     44          8           0        4.712672   -2.200138    2.562055
     45          7           0        2.558306   -1.619514    2.097979
     46          1           0        1.907337   -0.958800    1.672669
     47          6           0        1.986423   -2.528700    3.089248
     48          1           0        0.928955   -2.658485    2.857851
     49          1           0        2.502176   -3.491109    3.020793
     50          6           0        2.088805   -1.954544    4.509169
     51          8           0        1.137548   -1.407071    5.059096
     52          7           0        3.318019   -2.088065    5.083918
     53          1           0        4.080124   -2.335641    4.453514
     54          6           0        3.625185   -1.366119    6.290811
     55          1           0        4.338146   -1.935733    6.897581
     56          1           0        2.698070   -1.257700    6.863789
     57          6           0        4.173987    0.037131    5.997204
     58          8           0        4.035945    0.589423    4.906008
     59          7           0        4.812602    0.644717    7.034942
     60          1           0        5.021065    0.099326    7.860798
     61          6           0        5.496980    1.918965    6.847387
     62          1           0        6.070217    1.906844    5.917622
     63          1           0        6.191647    2.062415    7.680237
     64          6           0        4.576047    3.144072    6.768322
     65          8           0        4.888515    4.103269    6.071343
     66          7           0        3.467399    3.119076    7.562235
     67          1           0        3.140474    2.212037    7.870515
     68          6           0        2.465194    4.164953    7.421034
     69          1           0        2.967945    5.122680    7.290492
     70          1           0        1.853470    4.201995    8.327468
     71          6           0        1.568883    3.858203    6.222476
     72          8           0        1.168608    2.737164    5.980356
     73          8           0        1.332806    4.935043    5.461949
     74          1           0        0.889481    4.635424    4.633745
 ---------------------------------------------------------------------

 SCF Done:  E(RB3LYP) =  -2157.08981093     A.U. after    1 cycles

 Alpha  occ. eigenvalues --  -19.27204 -19.24585 -19.24546 -19.24541 -19.23526
 Alpha  occ. eigenvalues --  -19.23477 -19.22104 -19.21996 -19.21691 -19.20981
 Alpha  occ. eigenvalues --  -19.20519 -14.54891 -14.48657 -14.48533 -14.48061
 Alpha  occ. eigenvalues --  -14.47774 -14.46771 -14.46031 -14.45653 -14.45446
 Alpha  occ. eigenvalues --  -14.44376 -10.42092 -10.41444 -10.41189 -10.40242
 Alpha  occ. eigenvalues --  -10.40099 -10.39789 -10.39248 -10.39024 -10.38297
 Alpha  occ. eigenvalues --  -10.38265 -10.37481 -10.35131 -10.33768 -10.33227
 Alpha  occ. eigenvalues --  -10.33036 -10.32656 -10.32510 -10.31767 -10.31751
 Alpha  occ. eigenvalues --  -10.31242  -1.18446  -1.17182  -1.16149  -1.15670
 Alpha  occ. eigenvalues --   -1.15147  -1.14591  -1.13671  -1.13287  -1.12856
 Alpha  occ. eigenvalues --   -1.12154  -1.10065  -1.09627  -1.05381  -1.04583
 Alpha  occ. eigenvalues --   -1.04185  -1.03760  -1.03069  -1.01965  -1.01823
 Alpha  occ. eigenvalues --   -1.01349  -1.00977  -0.88612  -0.88273  -0.86657
 Alpha  occ. eigenvalues --   -0.85723  -0.84168  -0.83069  -0.81860  -0.80645
 Alpha  occ. eigenvalues --   -0.79074  -0.78200  -0.72238  -0.72106  -0.71307
 Alpha  occ. eigenvalues --   -0.70887  -0.70613  -0.70008  -0.69370  -0.68782
 Alpha  occ. eigenvalues --   -0.68518  -0.67539  -0.66888  -0.66803  -0.66189
 Alpha  occ. eigenvalues --   -0.64578  -0.64167  -0.63705  -0.62634  -0.61784
 Alpha  occ. eigenvalues --   -0.61377  -0.61260  -0.60436  -0.60190  -0.59741
 Alpha  occ. eigenvalues --   -0.59152  -0.58651  -0.58525  -0.58279  -0.58152
 Alpha  occ. eigenvalues --   -0.56759  -0.56573  -0.56398  -0.56018  -0.55872
 Alpha  occ. eigenvalues --   -0.55228  -0.54693  -0.54361  -0.54213  -0.53638
 Alpha  occ. eigenvalues --   -0.53399  -0.52801  -0.52784  -0.52514  -0.52260
 Alpha  occ. eigenvalues --   -0.51640  -0.51344  -0.50936  -0.50758  -0.50161
 Alpha  occ. eigenvalues --   -0.50138  -0.50017  -0.49285  -0.49098  -0.48686
 Alpha  occ. eigenvalues --   -0.48477  -0.48377  -0.47880  -0.47435  -0.47244
 Alpha  occ. eigenvalues --   -0.46981  -0.46589  -0.45973  -0.45741  -0.44803
 Alpha  occ. eigenvalues --   -0.40941  -0.40212  -0.40016  -0.39007  -0.38533
 Alpha  occ. eigenvalues --   -0.38440  -0.38347  -0.37824  -0.37622  -0.37297
 Alpha  occ. eigenvalues --   -0.36612  -0.36564  -0.36150  -0.35689  -0.35417
 Alpha  occ. eigenvalues --   -0.34879  -0.34741  -0.34387  -0.33989  -0.32996
 Alpha virt. eigenvalues --   -0.11544  -0.10575  -0.10198  -0.09654  -0.09093
 Alpha virt. eigenvalues --   -0.08495  -0.08197  -0.08035  -0.07101  -0.06817
 Alpha virt. eigenvalues --   -0.06622  -0.03646  -0.02946  -0.02675  -0.00209

 Mulliken charges:
               1
     1  N   -0.803853
     2  H    0.392637
     3  H    0.446127
     4  H    0.454366
     5  C   -0.280154
     6  H    0.223523
     7  H    0.230603
     8  C    0.649844
     9  O   -0.531662
    10  N   -0.587421
    11  H    0.357732
    12  C   -0.253263
    13  H    0.229576
    14  H    0.209294
    15  C    0.654069
    16  O   -0.605957
    17  N   -0.592172
    18  H    0.406551
    19  C   -0.264454
    20  H    0.236239
    21  H    0.200968
    22  C    0.615074
    23  O   -0.570682
    24  N   -0.565527
    25  H    0.390493
    26  C   -0.241539
    27  H    0.202716
    28  H    0.204474
    29  C    0.638891
    30  O   -0.567392
    31  N   -0.566674
    32  H    0.377831
    33  C   -0.267001
    34  H    0.190540
    35  H    0.204828
    36  C    0.681905
    37  O   -0.563490
    38  N   -0.598903
    39  H    0.346706
    40  C   -0.189699
    41  H    0.213277
    42  H    0.211596
    43  C    0.585648
    44  O   -0.524252
    45  N   -0.632870
    46  H    0.389359
    47  C   -0.242959
    48  H    0.198540
    49  H    0.197991
    50  C    0.589196
    51  O   -0.506876
    52  N   -0.568930
    53  H    0.379047
    54  C   -0.256166
    55  H    0.180144
    56  H    0.229237
    57  C    0.624844
    58  O   -0.525311
    59  N   -0.606507
    60  H    0.351637
    61  C   -0.227079
    62  H    0.205322
    63  H    0.199751
    64  C    0.613433
    65  O   -0.521255
    66  N   -0.561438
    67  H    0.345339
    68  C   -0.230372
    69  H    0.217988
    70  H    0.199801
    71  C    0.582248
    72  O   -0.469524
    73  O   -0.575238
    74  H    0.439233
 Sum of Mulliken charges =   1.00000

 Dipole moment (field-independent basis, Debye):
    X=             16.2868    Y=             10.1570    Z=              7.8196  Tot=             20.7261
 Quadrupole moment (field-independent basis, Debye-Ang):
   XX=           -164.3671   YY=           -177.5220   ZZ=           -118.7545
   XY=             38.9050   XZ=             45.6651   YZ=             -2.1291

 Normal termination of Gaussian 16 at Sun Jul  3 18:10:28 2022.
