 Gaussian 16, Revision C.01,
 Gaussian 16:  ES64L-G16RevC.01  3-Jul-2019

 ----------------------------------------------------------------------
 # B3LYP/6-31G* empiricaldispersion=gd3 guess=read geom=check nosymm in
 tegral(ultrafinegrid)
 ----------------------------------------------------------------------

 -----------------------------------------------------
 Candidate Structure: Conf:34 Charge calc in gas phase
 -----------------------------------------------------
 Structure from the checkpoint file:  "conf-34.chk"
 Charge =  1 Multiplicity = 1

                          Input orientation:
 ---------------------------------------------------------------------
 Center     Atomic      Atomic             Coordinates (Angstroms)
 Number     Number       Type             X           Y           Z
 ---------------------------------------------------------------------
      1          7           0        3.185023    6.725213   -0.602701
      2          1           0        3.810971    7.103219   -1.358912
      3          1           0        3.696197    6.632002    0.289345
      4          1           0        2.899730    5.768998   -0.949185
      5          6           0        1.982661    7.550241   -0.330267
      6          1           0        2.192710    8.594320   -0.579631
      7          1           0        1.158664    7.196165   -0.954574
      8          6           0        1.684934    7.425931    1.172322
      9          8           0        2.566029    6.992129    1.921401
     10          7           0        0.483694    7.854200    1.588615
     11          1           0       -0.229219    8.086688    0.909633
     12          6           0        0.117305    7.873301    3.009049
     13          1           0       -0.721801    8.556614    3.137424
     14          1           0        0.977513    8.240892    3.575705
     15          6           0       -0.325341    6.488466    3.513238
     16          8           0       -1.502910    6.212037    3.696185
     17          7           0        0.688569    5.609408    3.739794
     18          1           0        1.620559    5.839230    3.415364
     19          6           0        0.364016    4.256284    4.132488
     20          1           0        1.296010    3.708903    4.302458
     21          1           0       -0.197252    4.275058    5.072552
     22          6           0       -0.421710    3.511582    3.046049
     23          8           0       -0.126060    3.617080    1.850222
     24          7           0       -1.413239    2.713172    3.489887
     25          1           0       -1.611084    2.668146    4.478582
     26          6           0       -2.150532    1.854118    2.585765
     27          1           0       -2.866624    1.271874    3.171533
     28          1           0       -2.712607    2.463375    1.868142
     29          6           0       -1.187561    0.887635    1.875743
     30          8           0       -0.253030    0.364435    2.458559
     31          7           0       -1.449509    0.682425    0.548024
     32          1           0       -2.159378    1.239352    0.093089
     33          6           0       -0.521293   -0.061861   -0.278642
     34          1           0       -1.034976   -0.469101   -1.152816
     35          1           0       -0.130664   -0.902813    0.301225
     36          6           0        0.694844    0.727604   -0.772986
     37          8           0        1.469904    0.206493   -1.582422
     38          7           0        0.865169    1.980740   -0.291341
     39          1           0        0.250169    2.359781    0.426932
     40          6           0        2.114147    2.701450   -0.482918
     41          1           0        2.152864    3.487686    0.272357
     42          1           0        2.962657    2.019523   -0.339860
     43          6           0        2.250508    3.353292   -1.861121
     44          8           0        2.433624    4.584550   -2.000410
     45          7           0        2.192515    2.532664   -2.912978
     46          1           0        2.074131    1.532038   -2.716510
     47          6           0        2.325994    3.028018   -4.274555
     48          1           0        2.314984    2.167563   -4.946762
     49          1           0        1.479304    3.676527   -4.527884
     50          6           0        3.667393    3.752587   -4.448891
     51          8           0        4.729410    3.177514   -4.228047
     52          7           0        3.592578    5.052992   -4.853478
     53          1           0        2.703567    5.520799   -4.735397
     54          6           0        4.783372    5.900386   -4.815592
     55          1           0        4.577960    6.830982   -5.345245
     56          1           0        5.602928    5.372384   -5.308230
     57          6           0        5.114456    6.227607   -3.354918
     58          8           0        4.667059    7.253474   -2.815224
     59          7           0        5.848648    5.291335   -2.715523
     60          1           0        5.915937    4.389664   -3.190262
     61          6           0        6.079933    5.318725   -1.280712
     62          1           0        5.271608    4.814545   -0.737037
     63          1           0        6.115188    6.365334   -0.962183
     64          6           0        7.380482    4.638665   -0.833660
     65          8           0        7.477537    4.203085    0.305234
     66          7           0        8.368792    4.594618   -1.755345
     67          1           0        8.263920    5.010285   -2.673855
     68          6           0        9.659193    4.014688   -1.453681
     69          1           0        9.560908    2.967924   -1.142829
     70          1           0       10.153969    4.538054   -0.625822
     71          6           0       10.526542    4.099331   -2.694156
     72          8           0       10.174886    4.601263   -3.740965
     73          8           0       11.732027    3.551603   -2.480302
     74          1           0       12.246086    3.638181   -3.305824
 ---------------------------------------------------------------------

 SCF Done:  E(RB3LYP) =  -2157.05222124     A.U. after    3 cycles

 Alpha  occ. eigenvalues --  -19.28074 -19.26455 -19.25153 -19.24484 -19.23031
 Alpha  occ. eigenvalues --  -19.22793 -19.22258 -19.21513 -19.21222 -19.20617
 Alpha  occ. eigenvalues --  -19.19759 -14.54001 -14.50485 -14.47819 -14.47620
 Alpha  occ. eigenvalues --  -14.47319 -14.46678 -14.46055 -14.45730 -14.45512
 Alpha  occ. eigenvalues --  -14.44806 -10.43533 -10.41047 -10.41033 -10.40973
 Alpha  occ. eigenvalues --  -10.40228 -10.39169 -10.38630 -10.38536 -10.38442
 Alpha  occ. eigenvalues --  -10.38191 -10.37719 -10.34251 -10.34179 -10.33942
 Alpha  occ. eigenvalues --  -10.33720 -10.33577 -10.33076 -10.32821 -10.32182
 Alpha  occ. eigenvalues --  -10.31819  -1.19209  -1.18442  -1.16392  -1.15796
 Alpha  occ. eigenvalues --   -1.14672  -1.14314  -1.13436  -1.13045  -1.12494
 Alpha  occ. eigenvalues --   -1.12059  -1.10388  -1.09784  -1.06265  -1.04394
 Alpha  occ. eigenvalues --   -1.03932  -1.03575  -1.02944  -1.02606  -1.01818
 Alpha  occ. eigenvalues --   -1.01219  -1.00965  -0.88999  -0.88087  -0.86608
 Alpha  occ. eigenvalues --   -0.85946  -0.84380  -0.83446  -0.82242  -0.80882
 Alpha  occ. eigenvalues --   -0.79771  -0.78484  -0.72875  -0.72231  -0.70878
 Alpha  occ. eigenvalues --   -0.70740  -0.70594  -0.70396  -0.68867  -0.68787
 Alpha  occ. eigenvalues --   -0.68273  -0.67965  -0.67804  -0.67605  -0.65461
 Alpha  occ. eigenvalues --   -0.64744  -0.64133  -0.64008  -0.63497  -0.62438
 Alpha  occ. eigenvalues --   -0.61681  -0.61172  -0.60569  -0.60220  -0.59363
 Alpha  occ. eigenvalues --   -0.59277  -0.58745  -0.58472  -0.58346  -0.57455
 Alpha  occ. eigenvalues --   -0.57227  -0.57141  -0.56978  -0.56049  -0.55529
 Alpha  occ. eigenvalues --   -0.55388  -0.54630  -0.54052  -0.53675  -0.53489
 Alpha  occ. eigenvalues --   -0.53381  -0.52908  -0.52606  -0.52516  -0.52066
 Alpha  occ. eigenvalues --   -0.51924  -0.51426  -0.51154  -0.50908  -0.50605
 Alpha  occ. eigenvalues --   -0.50430  -0.50055  -0.49951  -0.49759  -0.49282
 Alpha  occ. eigenvalues --   -0.48936  -0.48772  -0.48211  -0.47873  -0.47668
 Alpha  occ. eigenvalues --   -0.47131  -0.46665  -0.45738  -0.45150  -0.44735
 Alpha  occ. eigenvalues --   -0.41201  -0.40355  -0.40317  -0.39968  -0.39818
 Alpha  occ. eigenvalues --   -0.38836  -0.38186  -0.37833  -0.37115  -0.36822
 Alpha  occ. eigenvalues --   -0.36777  -0.36686  -0.35759  -0.35348  -0.34933
 Alpha  occ. eigenvalues --   -0.34462  -0.34204  -0.34141  -0.33721  -0.33635
 Alpha virt. eigenvalues --   -0.12162  -0.11228  -0.10644  -0.08938  -0.08588
 Alpha virt. eigenvalues --   -0.07884  -0.07644  -0.07449  -0.07132  -0.06107
 Alpha virt. eigenvalues --   -0.05285  -0.04613  -0.02419  -0.02017  -0.00862

 Mulliken charges:
               1
     1  N   -0.820954
     2  H    0.444897
     3  H    0.402684
     4  H    0.438477
     5  C   -0.255662
     6  H    0.237898
     7  H    0.217094
     8  C    0.634623
     9  O   -0.530918
    10  N   -0.578065
    11  H    0.359242
    12  C   -0.250460
    13  H    0.207165
    14  H    0.209534
    15  C    0.603456
    16  O   -0.498235
    17  N   -0.577961
    18  H    0.370938
    19  C   -0.241535
    20  H    0.201057
    21  H    0.186428
    22  C    0.662239
    23  O   -0.568514
    24  N   -0.559514
    25  H    0.356240
    26  C   -0.232088
    27  H    0.203311
    28  H    0.176500
    29  C    0.594803
    30  O   -0.491020
    31  N   -0.600585
    32  H    0.339207
    33  C   -0.226461
    34  H    0.196672
    35  H    0.235357
    36  C    0.615434
    37  O   -0.542085
    38  N   -0.619715
    39  H    0.410404
    40  C   -0.240739
    41  H    0.177447
    42  H    0.213928
    43  C    0.622509
    44  O   -0.604756
    45  N   -0.567558
    46  H    0.408696
    47  C   -0.221678
    48  H    0.213925
    49  H    0.173069
    50  C    0.618633
    51  O   -0.516212
    52  N   -0.561656
    53  H    0.345167
    54  C   -0.238375
    55  H    0.202540
    56  H    0.212403
    57  C    0.609320
    58  O   -0.563203
    59  N   -0.594503
    60  H    0.390121
    61  C   -0.237190
    62  H    0.170118
    63  H    0.196222
    64  C    0.604253
    65  O   -0.508570
    66  N   -0.612369
    67  H    0.358450
    68  C   -0.178348
    69  H    0.216613
    70  H    0.214678
    71  C    0.569521
    72  O   -0.460285
    73  O   -0.551009
    74  H    0.428950
 Sum of Mulliken charges =   1.00000

 Dipole moment (field-independent basis, Debye):
    X=              8.3376    Y=             26.7735    Z=             -4.7757  Tot=             28.4455
 Quadrupole moment (field-independent basis, Debye-Ang):
   XX=           -135.4364   YY=            -60.8346   ZZ=           -183.5690
   XY=             64.2493   XZ=            -41.2492   YZ=            -23.0473

 Normal termination of Gaussian 16 at Sun Jul  3 18:10:39 2022.
