 Gaussian 16, Revision C.01,
 Gaussian 16:  ES64L-G16RevC.01  3-Jul-2019

 ----------------------------------------------------------------------
 # B3LYP/6-31G* empiricaldispersion=gd3 guess=read geom=check nosymm in
 tegral(ultrafinegrid)
 ----------------------------------------------------------------------

 ------------------------------------------------------
 Candidate Structure: Conf:879 Charge calc in gas phase
 ------------------------------------------------------
 Structure from the checkpoint file:  "conf-879.chk"
 Charge =  1 Multiplicity = 1

                          Input orientation:
 ---------------------------------------------------------------------
 Center     Atomic      Atomic             Coordinates (Angstroms)
 Number     Number       Type             X           Y           Z
 ---------------------------------------------------------------------
      1          7           0        1.817463   -1.754854    2.109845
      2          1           0        1.343976   -0.899460    2.513378
      3          1           0        2.207195   -2.347344    2.867605
      4          1           0        2.649490   -1.382145    1.629437
      5          6           0        0.975392   -2.570588    1.201986
      6          1           0        1.380808   -3.585740    1.176875
      7          1           0       -0.045263   -2.592578    1.591578
      8          6           0        1.041289   -1.986795   -0.209675
      9          8           0        1.974544   -1.249696   -0.541910
     10          7           0        0.049911   -2.359128   -1.044659
     11          1           0       -0.760855   -2.808954   -0.638474
     12          6           0       -0.157463   -1.679940   -2.307317
     13          1           0       -0.551845   -2.382032   -3.048515
     14          1           0        0.811717   -1.315513   -2.659377
     15          6           0       -1.108654   -0.485785   -2.111697
     16          8           0       -1.422864   -0.105734   -0.981769
     17          7           0       -1.585395    0.087769   -3.237983
     18          1           0       -1.164707   -0.144915   -4.127616
     19          6           0       -2.387160    1.300881   -3.147902
     20          1           0       -2.650741    1.611859   -4.161704
     21          1           0       -3.311732    1.079019   -2.605425
     22          6           0       -1.576834    2.423389   -2.476133
     23          8           0       -0.413129    2.632375   -2.780605
     24          7           0       -2.235302    3.132970   -1.513738
     25          1           0       -3.154716    2.837843   -1.216901
     26          6           0       -1.532519    4.137289   -0.735265
     27          1           0       -0.985343    4.805412   -1.405451
     28          1           0       -2.257369    4.740456   -0.182713
     29          6           0       -0.490249    3.599499    0.253758
     30          8           0        0.251723    4.391168    0.838287
     31          7           0       -0.438592    2.259681    0.446847
     32          1           0       -1.025572    1.643664   -0.106683
     33          6           0        0.731579    1.638597    1.047530
     34          1           0        1.633073    2.174914    0.722574
     35          1           0        0.795098    0.618077    0.676535
     36          6           0        0.758572    1.615224    2.577751
     37          8           0        0.950658    0.564658    3.218640
     38          7           0        0.620500    2.813937    3.172082
     39          1           0        0.639098    3.625433    2.545846
     40          6           0        1.000436    3.009571    4.556500
     41          1           0        0.446289    3.859641    4.967995
     42          1           0        0.740906    2.116009    5.128892
     43          6           0        2.503872    3.319756    4.625463
     44          8           0        3.059166    3.902560    3.693192
     45          7           0        3.167119    2.931884    5.743140
     46          1           0        2.698112    2.356283    6.429010
     47          6           0        4.598654    3.192063    5.915369
     48          1           0        4.805371    4.210978    5.574484
     49          1           0        4.852652    3.103435    6.971575
     50          6           0        5.457639    2.179996    5.136795
     51          8           0        6.144953    1.331481    5.707497
     52          7           0        5.358736    2.283810    3.786521
     53          1           0        4.681877    2.949034    3.412896
     54          6           0        5.938461    1.279966    2.906271
     55          1           0        7.000032    1.152529    3.139745
     56          1           0        5.834240    1.619358    1.875154
     57          6           0        5.173666   -0.039907    3.060904
     58          8           0        4.145561   -0.281065    2.431615
     59          7           0        5.700181   -0.900616    3.986044
     60          1           0        6.294871   -0.447954    4.680311
     61          6           0        4.877721   -2.006637    4.454832
     62          1           0        3.912343   -1.660637    4.840890
     63          1           0        5.410544   -2.510104    5.267393
     64          6           0        4.565204   -3.029451    3.365374
     65          8           0        3.448587   -3.562978    3.298250
     66          7           0        5.556807   -3.343598    2.507562
     67          1           0        6.383607   -2.760329    2.505880
     68          6           0        5.274381   -4.192181    1.357915
     69          1           0        4.876983   -5.153097    1.686835
     70          1           0        6.207744   -4.359993    0.813514
     71          6           0        4.242880   -3.572144    0.411707
     72          8           0        3.313914   -4.182410   -0.073780
     73          8           0        4.487248   -2.269330    0.198559
     74          1           0        3.746398   -1.891990   -0.332701
 ---------------------------------------------------------------------

 SCF Done:  E(RB3LYP) =  -2157.08333311     A.U. after    1 cycles

 Alpha  occ. eigenvalues --  -19.28376 -19.25303 -19.24001 -19.23436 -19.23340
 Alpha  occ. eigenvalues --  -19.23296 -19.23070 -19.22017 -19.21460 -19.20879
 Alpha  occ. eigenvalues --  -19.20566 -14.51909 -14.49283 -14.48062 -14.47507
 Alpha  occ. eigenvalues --  -14.47195 -14.46537 -14.46233 -14.45193 -14.45176
 Alpha  occ. eigenvalues --  -14.44813 -10.42536 -10.41712 -10.40902 -10.40342
 Alpha  occ. eigenvalues --  -10.39633 -10.39220 -10.39215 -10.38434 -10.38335
 Alpha  occ. eigenvalues --  -10.37771 -10.36243 -10.34991 -10.33759 -10.33708
 Alpha  occ. eigenvalues --  -10.33473 -10.32856 -10.32662 -10.32560 -10.32198
 Alpha  occ. eigenvalues --  -10.32003  -1.19770  -1.17268  -1.15723  -1.15406
 Alpha  occ. eigenvalues --   -1.14639  -1.14466  -1.13809  -1.13216  -1.12791
 Alpha  occ. eigenvalues --   -1.12260  -1.10828  -1.07892  -1.05560  -1.04016
 Alpha  occ. eigenvalues --   -1.04014  -1.02830  -1.02579  -1.02551  -1.02165
 Alpha  occ. eigenvalues --   -1.01437  -1.00593  -0.88638  -0.87329  -0.86319
 Alpha  occ. eigenvalues --   -0.85573  -0.84418  -0.82880  -0.81918  -0.80416
 Alpha  occ. eigenvalues --   -0.79269  -0.78072  -0.72523  -0.71906  -0.71108
 Alpha  occ. eigenvalues --   -0.70442  -0.69848  -0.69139  -0.68745  -0.68496
 Alpha  occ. eigenvalues --   -0.67947  -0.67703  -0.67044  -0.66201  -0.65172
 Alpha  occ. eigenvalues --   -0.63789  -0.63443  -0.63226  -0.62851  -0.62288
 Alpha  occ. eigenvalues --   -0.61844  -0.61166  -0.60373  -0.60183  -0.59358
 Alpha  occ. eigenvalues --   -0.58996  -0.58511  -0.57973  -0.57828  -0.57363
 Alpha  occ. eigenvalues --   -0.57098  -0.56848  -0.56273  -0.55986  -0.55585
 Alpha  occ. eigenvalues --   -0.54852  -0.54583  -0.54248  -0.53918  -0.53649
 Alpha  occ. eigenvalues --   -0.53260  -0.53044  -0.52556  -0.52328  -0.52034
 Alpha  occ. eigenvalues --   -0.51549  -0.51184  -0.50806  -0.50539  -0.50383
 Alpha  occ. eigenvalues --   -0.50190  -0.50052  -0.49827  -0.49440  -0.48822
 Alpha  occ. eigenvalues --   -0.48753  -0.48433  -0.48108  -0.47724  -0.47064
 Alpha  occ. eigenvalues --   -0.46833  -0.46421  -0.46273  -0.45965  -0.44780
 Alpha  occ. eigenvalues --   -0.41259  -0.39800  -0.39304  -0.39120  -0.38419
 Alpha  occ. eigenvalues --   -0.38286  -0.38247  -0.38100  -0.37937  -0.37710
 Alpha  occ. eigenvalues --   -0.37073  -0.36929  -0.36722  -0.35639  -0.35256
 Alpha  occ. eigenvalues --   -0.34668  -0.34337  -0.33947  -0.33805  -0.33306
 Alpha virt. eigenvalues --   -0.11431  -0.09983  -0.09861  -0.09699  -0.09088
 Alpha virt. eigenvalues --   -0.08726  -0.08409  -0.07607  -0.07053  -0.06598
 Alpha virt. eigenvalues --   -0.03958  -0.02642  -0.02244  -0.01674  -0.01456

 Mulliken charges:
               1
     1  N   -0.822744
     2  H    0.442133
     3  H    0.426302
     4  H    0.430005
     5  C   -0.278199
     6  H    0.266918
     7  H    0.203673
     8  C    0.659694
     9  O   -0.550096
    10  N   -0.551213
    11  H    0.352905
    12  C   -0.266184
    13  H    0.202064
    14  H    0.238077
    15  C    0.630073
    16  O   -0.542308
    17  N   -0.564388
    18  H    0.357645
    19  C   -0.238003
    20  H    0.204708
    21  H    0.181006
    22  C    0.600179
    23  O   -0.496727
    24  N   -0.601796
    25  H    0.344278
    26  C   -0.226084
    27  H    0.228248
    28  H    0.196202
    29  C    0.621753
    30  O   -0.530871
    31  N   -0.610686
    32  H    0.396810
    33  C   -0.253241
    34  H    0.213354
    35  H    0.170034
    36  C    0.627717
    37  O   -0.576770
    38  N   -0.562532
    39  H    0.400654
    40  C   -0.249553
    41  H    0.207798
    42  H    0.189938
    43  C    0.626359
    44  O   -0.525385
    45  N   -0.586667
    46  H    0.348860
    47  C   -0.238420
    48  H    0.212727
    49  H    0.198844
    50  C    0.593013
    51  O   -0.527253
    52  N   -0.586500
    53  H    0.392441
    54  C   -0.228446
    55  H    0.192054
    56  H    0.197014
    57  C    0.591268
    58  O   -0.533047
    59  N   -0.598501
    60  H    0.382718
    61  C   -0.226662
    62  H    0.185492
    63  H    0.206868
    64  C    0.623843
    65  O   -0.568765
    66  N   -0.550170
    67  H    0.358029
    68  C   -0.211846
    69  H    0.220175
    70  H    0.202465
    71  C    0.575494
    72  O   -0.469131
    73  O   -0.579296
    74  H    0.451656
 Sum of Mulliken charges =   1.00000

 Dipole moment (field-independent basis, Debye):
    X=              5.1071    Y=             -2.7155    Z=              6.4449  Tot=              8.6598
 Quadrupole moment (field-independent basis, Debye-Ang):
   XX=           -150.7850   YY=           -210.4848   ZZ=           -153.3332
   XY=            -26.2234   XZ=             51.5595   YZ=             13.7107

 Normal termination of Gaussian 16 at Sun Jul  3 18:10:15 2022.
