 Gaussian 16, Revision C.01,
 Gaussian 16:  ES64L-G16RevC.01  3-Jul-2019

 ----------------------------------------------------------------------
 # B3LYP/6-31G* empiricaldispersion=gd3 guess=read geom=check nosymm in
 tegral(ultrafinegrid)
 ----------------------------------------------------------------------

 ------------------------------------------------------
 Candidate Structure: Conf:474 Charge calc in gas phase
 ------------------------------------------------------
 Structure from the checkpoint file:  "conf-474.chk"
 Charge =  1 Multiplicity = 1

                          Input orientation:
 ---------------------------------------------------------------------
 Center     Atomic      Atomic             Coordinates (Angstroms)
 Number     Number       Type             X           Y           Z
 ---------------------------------------------------------------------
      1          7           0       -1.990289    6.657892   -1.951383
      2          1           0       -1.332073    5.874681   -2.131426
      3          1           0       -2.039025    7.200612   -2.819645
      4          1           0       -1.539625    7.218223   -1.200297
      5          6           0       -3.322943    6.074016   -1.611918
      6          1           0       -3.210193    5.507916   -0.687178
      7          1           0       -4.043704    6.882917   -1.471616
      8          6           0       -3.699896    5.210196   -2.823152
      9          8           0       -3.507600    5.676816   -3.946170
     10          7           0       -4.168660    3.961077   -2.587015
     11          1           0       -4.051521    3.601314   -1.647524
     12          6           0       -4.133566    2.946902   -3.654009
     13          1           0       -4.515371    3.395441   -4.573253
     14          1           0       -4.759998    2.102808   -3.367158
     15          6           0       -2.671129    2.487464   -3.786059
     16          8           0       -2.254033    1.466252   -3.228830
     17          7           0       -1.855218    3.373241   -4.410264
     18          1           0       -2.290391    4.236914   -4.719772
     19          6           0       -0.460131    3.460282   -4.004978
     20          1           0        0.143680    2.650922   -4.419559
     21          1           0       -0.073763    4.408503   -4.381119
     22          6           0       -0.379320    3.474503   -2.464744
     23          8           0       -1.260342    4.042669   -1.787564
     24          7           0        0.648942    2.829591   -1.912928
     25          1           0        1.365410    2.451368   -2.533986
     26          6           0        0.717839    2.471449   -0.500649
     27          1           0        1.704167    2.716183   -0.105383
     28          1           0       -0.059683    3.020514    0.034233
     29          6           0        0.525581    0.948477   -0.374618
     30          8           0        1.409958    0.231790    0.077670
     31          7           0       -0.644306    0.453088   -0.877029
     32          1           0       -1.267781    1.078605   -1.375806
     33          6           0       -0.704408   -0.957507   -1.262643
     34          1           0       -1.719128   -1.174593   -1.606392
     35          1           0       -0.457745   -1.594093   -0.413257
     36          6           0        0.333229   -1.241734   -2.363779
     37          8           0        1.237097   -2.059865   -2.231944
     38          7           0        0.230580   -0.441554   -3.471753
     39          1           0       -0.500949    0.263802   -3.515763
     40          6           0        1.354239   -0.350402   -4.397802
     41          1           0        1.745766   -1.352531   -4.586623
     42          1           0        1.024773    0.098472   -5.335453
     43          6           0        2.388929    0.572774   -3.743947
     44          8           0        2.334666    1.804722   -3.939602
     45          7           0        3.229444   -0.011126   -2.870783
     46          1           0        3.022878   -0.990451   -2.673187
     47          6           0        3.942122    0.677733   -1.781093
     48          1           0        3.321715    0.651282   -0.881248
     49          1           0        4.859627    0.112403   -1.584396
     50          6           0        4.315434    2.143000   -2.031278
     51          8           0        3.863331    3.041674   -1.316879
     52          7           0        5.211786    2.378678   -3.019680
     53          1           0        5.539157    1.599330   -3.573876
     54          6           0        5.812821    3.691054   -3.220720
     55          1           0        6.528726    3.617553   -4.043611
     56          1           0        6.364589    4.000047   -2.327843
     57          6           0        4.849458    4.843876   -3.529737
     58          8           0        5.221721    5.997529   -3.375728
     59          7           0        3.602139    4.508836   -3.973950
     60          1           0        3.317699    3.534419   -4.012492
     61          6           0        2.605454    5.533851   -4.177168
     62          1           0        1.945911    5.267553   -5.006578
     63          1           0        3.119643    6.463971   -4.443518
     64          6           0        1.726615    5.853964   -2.964559
     65          8           0        0.605830    6.370420   -3.115048
     66          7           0        2.227441    5.596915   -1.740785
     67          1           0        3.066334    5.033110   -1.634377
     68          6           0        1.426001    5.900898   -0.572225
     69          1           0        2.010869    5.649279    0.317226
     70          1           0        0.497459    5.324482   -0.558121
     71          6           0        1.041706    7.375532   -0.481748
     72          8           0       -0.089220    7.782275   -0.256246
     73          8           0        2.091858    8.180595   -0.618772
     74          1           0        1.783539    9.104396   -0.540750
 ---------------------------------------------------------------------

 SCF Done:  E(RB3LYP) =  -2157.07945434     A.U. after    3 cycles

 Alpha  occ. eigenvalues --  -19.31405 -19.26544 -19.26210 -19.25382 -19.24964
 Alpha  occ. eigenvalues --  -19.24789 -19.23439 -19.23239 -19.21889 -19.21670
 Alpha  occ. eigenvalues --  -19.20079 -14.55817 -14.50434 -14.48358 -14.48262
 Alpha  occ. eigenvalues --  -14.48145 -14.47434 -14.47353 -14.46276 -14.45888
 Alpha  occ. eigenvalues --  -14.44999 -10.44752 -10.43594 -10.41876 -10.41780
 Alpha  occ. eigenvalues --  -10.41354 -10.40476 -10.40086 -10.38934 -10.38659
 Alpha  occ. eigenvalues --  -10.38625 -10.37814 -10.35657 -10.35018 -10.34711
 Alpha  occ. eigenvalues --  -10.33757 -10.33388 -10.33388 -10.32874 -10.32782
 Alpha  occ. eigenvalues --  -10.32193  -1.22819  -1.18606  -1.17163  -1.16326
 Alpha  occ. eigenvalues --   -1.15917  -1.14992  -1.14695  -1.14047  -1.13732
 Alpha  occ. eigenvalues --   -1.13153  -1.12318  -1.10933  -1.06506  -1.05082
 Alpha  occ. eigenvalues --   -1.04693  -1.04406  -1.03855  -1.03391  -1.02821
 Alpha  occ. eigenvalues --   -1.01307  -1.01098  -0.89602  -0.87867  -0.87314
 Alpha  occ. eigenvalues --   -0.86857  -0.85154  -0.84134  -0.82551  -0.81421
 Alpha  occ. eigenvalues --   -0.79985  -0.78891  -0.74288  -0.72899  -0.72276
 Alpha  occ. eigenvalues --   -0.71604  -0.71172  -0.70729  -0.69899  -0.69482
 Alpha  occ. eigenvalues --   -0.69282  -0.69041  -0.68065  -0.67825  -0.66239
 Alpha  occ. eigenvalues --   -0.65577  -0.65177  -0.64188  -0.63655  -0.63157
 Alpha  occ. eigenvalues --   -0.62582  -0.62148  -0.61364  -0.61256  -0.60446
 Alpha  occ. eigenvalues --   -0.60225  -0.59842  -0.59621  -0.59370  -0.58459
 Alpha  occ. eigenvalues --   -0.58313  -0.57913  -0.57200  -0.56666  -0.56412
 Alpha  occ. eigenvalues --   -0.56113  -0.55460  -0.55241  -0.54828  -0.54366
 Alpha  occ. eigenvalues --   -0.54155  -0.53835  -0.53667  -0.53410  -0.53006
 Alpha  occ. eigenvalues --   -0.52638  -0.52378  -0.51945  -0.51590  -0.51487
 Alpha  occ. eigenvalues --   -0.51445  -0.51353  -0.50816  -0.50480  -0.50371
 Alpha  occ. eigenvalues --   -0.49823  -0.49341  -0.48810  -0.48482  -0.47976
 Alpha  occ. eigenvalues --   -0.47872  -0.47459  -0.46671  -0.46454  -0.45415
 Alpha  occ. eigenvalues --   -0.43921  -0.41809  -0.40818  -0.40565  -0.39957
 Alpha  occ. eigenvalues --   -0.39873  -0.39584  -0.38823  -0.38497  -0.38307
 Alpha  occ. eigenvalues --   -0.37748  -0.37518  -0.37335  -0.36996  -0.36824
 Alpha  occ. eigenvalues --   -0.35131  -0.34706  -0.34206  -0.33772  -0.33559
 Alpha virt. eigenvalues --   -0.14201  -0.12214  -0.11737  -0.11382  -0.10193
 Alpha virt. eigenvalues --   -0.09661  -0.09260  -0.08360  -0.07570  -0.06465
 Alpha virt. eigenvalues --   -0.05555  -0.04082  -0.02763  -0.02554  -0.01631

 Mulliken charges:
               1
     1  N   -0.779025
     2  H    0.445829
     3  H    0.410453
     4  H    0.443071
     5  C   -0.244715
     6  H    0.215899
     7  H    0.235451
     8  C    0.627266
     9  O   -0.522500
    10  N   -0.554849
    11  H    0.356251
    12  C   -0.249927
    13  H    0.221086
    14  H    0.210033
    15  C    0.598375
    16  O   -0.534269
    17  N   -0.562881
    18  H    0.379470
    19  C   -0.266358
    20  H    0.202653
    21  H    0.211579
    22  C    0.630036
    23  O   -0.625242
    24  N   -0.617858
    25  H    0.416693
    26  C   -0.259514
    27  H    0.219186
    28  H    0.195581
    29  C    0.584253
    30  O   -0.488817
    31  N   -0.594952
    32  H    0.366854
    33  C   -0.231043
    34  H    0.191877
    35  H    0.222565
    36  C    0.593237
    37  O   -0.506624
    38  N   -0.607103
    39  H    0.373182
    40  C   -0.225790
    41  H    0.208588
    42  H    0.190635
    43  C    0.580936
    44  O   -0.566216
    45  N   -0.572820
    46  H    0.390304
    47  C   -0.262033
    48  H    0.254241
    49  H    0.195041
    50  C    0.597517
    51  O   -0.534023
    52  N   -0.584597
    53  H    0.352474
    54  C   -0.226320
    55  H    0.201107
    56  H    0.214514
    57  C    0.590936
    58  O   -0.501127
    59  N   -0.634339
    60  H    0.399575
    61  C   -0.240604
    62  H    0.181708
    63  H    0.235658
    64  C    0.621107
    65  O   -0.599993
    66  N   -0.579774
    67  H    0.405805
    68  C   -0.218506
    69  H    0.211979
    70  H    0.185171
    71  C    0.615768
    72  O   -0.512343
    73  O   -0.514338
    74  H    0.434559
 Sum of Mulliken charges =   1.00000

 Dipole moment (field-independent basis, Debye):
    X=             -2.3683    Y=             19.3219    Z=            -12.4202  Tot=             23.0913
 Quadrupole moment (field-independent basis, Debye-Ang):
   XX=           -168.3580   YY=           -123.5291   ZZ=           -189.3975
   XY=            -33.7027   XZ=             -7.7407   YZ=            -23.9807

 Normal termination of Gaussian 16 at Sun Jul  3 18:11:09 2022.
