 Gaussian 16, Revision C.01,
 Gaussian 16:  ES64L-G16RevC.01  3-Jul-2019

 ----------------------------------------------------------------------
 # B3LYP/6-31G* empiricaldispersion=gd3 guess=read geom=check nosymm in
 tegral(ultrafinegrid)
 ----------------------------------------------------------------------

 -----------------------------------------------------
 Candidate Structure: Conf:81 Charge calc in gas phase
 -----------------------------------------------------
 Structure from the checkpoint file:  "conf-81.chk"
 Charge =  1 Multiplicity = 1

                          Input orientation:
 ---------------------------------------------------------------------
 Center     Atomic      Atomic             Coordinates (Angstroms)
 Number     Number       Type             X           Y           Z
 ---------------------------------------------------------------------
      1          7           0       -4.454666    0.424486    2.444909
      2          1           0       -5.422108    0.233100    2.174439
      3          1           0       -4.404495    1.297151    3.033299
      4          1           0       -3.903509    0.705915    1.568056
      5          6           0       -3.851195   -0.722676    3.182867
      6          1           0       -4.497398   -0.976263    4.026926
      7          1           0       -3.791629   -1.580680    2.507466
      8          6           0       -2.438080   -0.313830    3.613690
      9          8           0       -1.706683    0.294847    2.839416
     10          7           0       -2.072223   -0.617539    4.883344
     11          1           0       -2.674805   -1.169004    5.479212
     12          6           0       -0.757788   -0.196203    5.369102
     13          1           0        0.045376   -0.705451    4.831515
     14          1           0       -0.688774   -0.443944    6.431647
     15          6           0       -0.557086    1.315291    5.146239
     16          8           0        0.457263    1.738320    4.604344
     17          7           0       -1.572070    2.102746    5.598843
     18          1           0       -2.423940    1.623704    5.866340
     19          6           0       -1.811811    3.427651    5.040047
     20          1           0       -2.294591    4.057583    5.793236
     21          1           0       -0.855451    3.877544    4.771640
     22          6           0       -2.751716    3.262832    3.838525
     23          8           0       -3.747025    2.520064    3.975608
     24          7           0       -2.425505    3.909300    2.718555
     25          1           0       -1.537153    4.423251    2.644474
     26          6           0       -3.101981    3.683064    1.444371
     27          1           0       -4.159258    3.478875    1.613382
     28          1           0       -3.006944    4.592688    0.845246
     29          6           0       -2.470344    2.487140    0.705007
     30          8           0       -3.126179    1.465169    0.420476
     31          7           0       -1.169327    2.612907    0.447089
     32          1           0       -0.714661    3.510827    0.643859
     33          6           0       -0.335952    1.482085    0.040179
     34          1           0       -0.315716    1.380437   -1.048529
     35          1           0       -0.758373    0.575698    0.478878
     36          6           0        1.093196    1.780316    0.505709
     37          8           0        1.840107    2.461873   -0.189232
     38          7           0        1.445393    1.307217    1.731019
     39          1           0        0.734658    0.915587    2.337820
     40          6           0        2.747902    1.652740    2.303175
     41          1           0        2.822719    1.155339    3.273223
     42          1           0        3.548549    1.308170    1.646657
     43          6           0        2.927722    3.174935    2.460418
     44          8           0        3.840944    3.793975    1.939132
     45          7           0        1.947460    3.781484    3.205436
     46          1           0        1.204168    3.203319    3.581208
     47          6           0        1.699692    5.202709    3.025827
     48          1           0        1.041335    5.566224    3.818537
     49          1           0        2.646587    5.744879    3.067139
     50          6           0        1.002790    5.351881    1.675673
     51          8           0       -0.218746    5.071076    1.557160
     52          7           0        1.773694    5.659336    0.641806
     53          1           0        2.782523    5.756721    0.756454
     54          6           0        1.329827    5.600832   -0.736824
     55          1           0        0.426006    6.204662   -0.870303
     56          1           0        1.104614    4.562528   -1.010441
     57          6           0        2.477745    6.120743   -1.612785
     58          8           0        3.558869    6.438843   -1.126392
     59          7           0        2.198441    6.186819   -2.930316
     60          1           0        1.332336    5.832817   -3.325616
     61          6           0        3.201768    6.554199   -3.903449
     62          1           0        4.108299    5.948008   -3.771339
     63          1           0        3.499885    7.603729   -3.784796
     64          6           0        2.613695    6.318498   -5.296726
     65          8           0        1.498527    5.830291   -5.448317
     66          7           0        3.407306    6.715566   -6.330118
     67          1           0        4.374410    6.932209   -6.126010
     68          6           0        3.081765    6.348967   -7.693046
     69          1           0        3.469059    7.100722   -8.387716
     70          1           0        1.994993    6.332158   -7.797619
     71          6           0        3.601422    4.987909   -8.149241
     72          8           0        3.353635    4.512832   -9.230526
     73          8           0        4.381972    4.389133   -7.219038
     74          1           0        4.663633    3.537241   -7.603594
 ---------------------------------------------------------------------

 SCF Done:  E(RB3LYP) =  -2157.05589786     A.U. after    3 cycles

 Alpha  occ. eigenvalues --  -19.27299 -19.26015 -19.25651 -19.25270 -19.24152
 Alpha  occ. eigenvalues --  -19.22475 -19.20425 -19.19758 -19.19439 -19.18949
 Alpha  occ. eigenvalues --  -19.18725 -14.55920 -14.52220 -14.49083 -14.48831
 Alpha  occ. eigenvalues --  -14.47140 -14.45311 -14.45194 -14.43690 -14.43406
 Alpha  occ. eigenvalues --  -14.42902 -10.44902 -10.42462 -10.42354 -10.40882
 Alpha  occ. eigenvalues --  -10.40100 -10.38602 -10.38216 -10.37751 -10.36871
 Alpha  occ. eigenvalues --  -10.36570 -10.36125 -10.36120 -10.35663 -10.34895
 Alpha  occ. eigenvalues --  -10.32194 -10.31712 -10.30694 -10.30648 -10.30116
 Alpha  occ. eigenvalues --  -10.30103  -1.19748  -1.17263  -1.16647  -1.16644
 Alpha  occ. eigenvalues --   -1.15432  -1.13465  -1.12503  -1.11535  -1.11298
 Alpha  occ. eigenvalues --   -1.10767  -1.10568  -1.08044  -1.07671  -1.05589
 Alpha  occ. eigenvalues --   -1.05292  -1.03287  -1.01627  -1.01210  -1.00086
 Alpha  occ. eigenvalues --   -0.99599  -0.99381  -0.90929  -0.88418  -0.86112
 Alpha  occ. eigenvalues --   -0.85069  -0.84067  -0.83024  -0.81721  -0.80266
 Alpha  occ. eigenvalues --   -0.78191  -0.76325  -0.75067  -0.73059  -0.72070
 Alpha  occ. eigenvalues --   -0.71001  -0.70824  -0.68853  -0.68623  -0.68311
 Alpha  occ. eigenvalues --   -0.68000  -0.67222  -0.66733  -0.66441  -0.65969
 Alpha  occ. eigenvalues --   -0.65467  -0.64601  -0.63393  -0.62979  -0.62452
 Alpha  occ. eigenvalues --   -0.62024  -0.61203  -0.60254  -0.59811  -0.59325
 Alpha  occ. eigenvalues --   -0.59087  -0.58006  -0.57625  -0.57271  -0.56958
 Alpha  occ. eigenvalues --   -0.56545  -0.56081  -0.55919  -0.55505  -0.55380
 Alpha  occ. eigenvalues --   -0.54987  -0.54380  -0.54314  -0.53903  -0.53490
 Alpha  occ. eigenvalues --   -0.53304  -0.52938  -0.52674  -0.52438  -0.52005
 Alpha  occ. eigenvalues --   -0.51399  -0.51332  -0.50852  -0.50545  -0.50517
 Alpha  occ. eigenvalues --   -0.49791  -0.49417  -0.49012  -0.48502  -0.47717
 Alpha  occ. eigenvalues --   -0.47487  -0.46895  -0.46755  -0.46188  -0.45999
 Alpha  occ. eigenvalues --   -0.45790  -0.45323  -0.44890  -0.44483  -0.42564
 Alpha  occ. eigenvalues --   -0.42167  -0.41547  -0.41108  -0.40628  -0.38992
 Alpha  occ. eigenvalues --   -0.38242  -0.37756  -0.37717  -0.37214  -0.36759
 Alpha  occ. eigenvalues --   -0.36012  -0.35771  -0.35695  -0.33949  -0.33773
 Alpha  occ. eigenvalues --   -0.32723  -0.32686  -0.32572  -0.31784  -0.31453
 Alpha virt. eigenvalues --   -0.14319  -0.12342  -0.11109  -0.10038  -0.08302
 Alpha virt. eigenvalues --   -0.07830  -0.07104  -0.05974  -0.05447  -0.05151
 Alpha virt. eigenvalues --   -0.04856  -0.03969  -0.03009  -0.02385  -0.01464

 Mulliken charges:
               1
     1  N   -0.800563
     2  H    0.396955
     3  H    0.442484
     4  H    0.462917
     5  C   -0.262433
     6  H    0.202886
     7  H    0.242135
     8  C    0.639058
     9  O   -0.504030
    10  N   -0.607835
    11  H    0.358980
    12  C   -0.231748
    13  H    0.218559
    14  H    0.209914
    15  C    0.615108
    16  O   -0.510117
    17  N   -0.544633
    18  H    0.341585
    19  C   -0.251457
    20  H    0.214549
    21  H    0.200688
    22  C    0.650114
    23  O   -0.600083
    24  N   -0.586505
    25  H    0.391642
    26  C   -0.259551
    27  H    0.186602
    28  H    0.218752
    29  C    0.639264
    30  O   -0.586592
    31  N   -0.614070
    32  H    0.411007
    33  C   -0.184131
    34  H    0.201363
    35  H    0.190135
    36  C    0.552456
    37  O   -0.493152
    38  N   -0.599334
    39  H    0.359679
    40  C   -0.226850
    41  H    0.182863
    42  H    0.211209
    43  C    0.594612
    44  O   -0.490417
    45  N   -0.605394
    46  H    0.374167
    47  C   -0.226867
    48  H    0.166992
    49  H    0.205293
    50  C    0.616490
    51  O   -0.607498
    52  N   -0.554148
    53  H    0.393204
    54  C   -0.222067
    55  H    0.187575
    56  H    0.212914
    57  C    0.617243
    58  O   -0.517003
    59  N   -0.624132
    60  H    0.356975
    61  C   -0.196148
    62  H    0.202572
    63  H    0.195626
    64  C    0.602335
    65  O   -0.517165
    66  N   -0.582759
    67  H    0.343889
    68  C   -0.243059
    69  H    0.204320
    70  H    0.233133
    71  C    0.586625
    72  O   -0.439589
    73  O   -0.566410
    74  H    0.420866
 Sum of Mulliken charges =   1.00000

 Dipole moment (field-independent basis, Debye):
    X=            -12.4402    Y=              6.3913    Z=             14.9271  Tot=             20.4555
 Quadrupole moment (field-independent basis, Debye-Ang):
   XX=           -168.4574   YY=           -166.9641   ZZ=           -138.5546
   XY=             10.4898   XZ=            -77.3855   YZ=            -22.7883

 Normal termination of Gaussian 16 at Sun Jul  3 18:10:46 2022.
