 Gaussian 16, Revision C.01,
 Gaussian 16:  ES64L-G16RevC.01  3-Jul-2019

 ----------------------------------------------------------------------
 # B3LYP/6-31G* empiricaldispersion=gd3 guess=read geom=check nosymm in
 tegral(ultrafinegrid)
 ----------------------------------------------------------------------

 ------------------------------------------------------
 Candidate Structure: Conf:876 Charge calc in gas phase
 ------------------------------------------------------
 Structure from the checkpoint file:  "conf-876.chk"
 Charge =  1 Multiplicity = 1

                          Input orientation:
 ---------------------------------------------------------------------
 Center     Atomic      Atomic             Coordinates (Angstroms)
 Number     Number       Type             X           Y           Z
 ---------------------------------------------------------------------
      1          7           0        2.892383    7.512833    3.954273
      2          1           0        3.161941    8.305840    3.364655
      3          1           0        3.442243    6.692260    3.674615
      4          1           0        1.862126    7.236552    3.804536
      5          6           0        3.091873    7.767289    5.436701
      6          1           0        4.153299    7.699122    5.674569
      7          1           0        2.711311    8.765559    5.661332
      8          6           0        2.289673    6.609288    6.046798
      9          8           0        2.744544    5.477605    5.971889
     10          7           0        1.017080    6.916150    6.415348
     11          1           0        0.738107    7.888066    6.366786
     12          6           0       -0.029033    5.949636    6.134482
     13          1           0       -0.924793    6.158083    6.717885
     14          1           0        0.321434    4.956716    6.425601
     15          6           0       -0.344476    5.935213    4.623446
     16          8           0        0.412871    6.494598    3.790640
     17          7           0       -1.444405    5.279064    4.275589
     18          1           0       -2.013621    4.836012    5.008551
     19          6           0       -1.794967    5.020584    2.890094
     20          1           0       -2.559327    5.732062    2.550136
     21          1           0       -0.903468    5.154919    2.275815
     22          6           0       -2.349166    3.600419    2.751843
     23          8           0       -2.782378    2.986023    3.724834
     24          7           0       -2.356975    3.110290    1.489807
     25          1           0       -1.899062    3.635651    0.756291
     26          6           0       -2.903907    1.805083    1.143536
     27          1           0       -3.472847    1.451277    2.007748
     28          1           0       -3.584256    1.891014    0.293299
     29          6           0       -1.854193    0.748954    0.766913
     30          8           0       -2.103146   -0.102431   -0.071880
     31          7           0       -0.681853    0.809719    1.469127
     32          1           0       -0.489013    1.629968    2.036097
     33          6           0        0.453659    0.010601    1.066497
     34          1           0        0.163055   -0.544091    0.166793
     35          1           0        0.717121   -0.728722    1.835440
     36          6           0        1.640546    0.921934    0.754093
     37          8           0        1.482683    2.028136    0.234449
     38          7           0        2.865913    0.453670    1.122111
     39          1           0        2.923180   -0.401089    1.659221
     40          6           0        4.063859    1.295830    1.066326
     41          1           0        4.950339    0.666668    1.144585
     42          1           0        4.072084    1.832799    0.114530
     43          6           0        4.007220    2.245187    2.272563
     44          8           0        4.564389    1.997082    3.336435
     45          7           0        3.167156    3.316716    2.091447
     46          1           0        2.561226    3.247210    1.271718
     47          6           0        2.560915    3.926373    3.270016
     48          1           0        3.333107    4.148281    4.008377
     49          1           0        2.037688    4.837149    2.975439
     50          6           0        1.506664    2.962264    3.825201
     51          8           0        0.355075    2.950983    3.365494
     52          7           0        1.937189    2.072226    4.740376
     53          1           0        2.925533    2.068597    4.966234
     54          6           0        1.120557    0.925908    5.137510
     55          1           0        1.779955    0.172694    5.568890
     56          1           0        0.626036    0.515470    4.249777
     57          6           0        0.078013    1.278633    6.212091
     58          8           0        0.306539    1.094931    7.408147
     59          7           0       -1.086425    1.779722    5.739532
     60          1           0       -1.187763    2.027312    4.760891
     61          6           0       -2.195662    2.096000    6.626983
     62          1           0       -2.308456    1.289825    7.358102
     63          1           0       -3.096843    2.183926    6.023214
     64          6           0       -1.969498    3.436686    7.331062
     65          8           0       -2.452709    4.492332    6.892646
     66          7           0       -1.172835    3.376989    8.418720
     67          1           0       -0.715316    2.488812    8.613357
     68          6           0       -0.859381    4.531411    9.232668
     69          1           0       -1.635832    5.285778    9.076771
     70          1           0        0.097304    4.991032    8.950801
     71          6           0       -0.772644    4.253033   10.726705
     72          8           0       -0.469394    5.105516   11.526062
     73          8           0       -1.051420    2.972120   11.041658
     74          1           0       -0.958140    2.888852   12.010204
 ---------------------------------------------------------------------

 SCF Done:  E(RB3LYP) =  -2157.03652525     A.U. after    1 cycles

 Alpha  occ. eigenvalues --  -19.28178 -19.27197 -19.26360 -19.23654 -19.22404
 Alpha  occ. eigenvalues --  -19.22382 -19.22305 -19.21964 -19.21665 -19.20973
 Alpha  occ. eigenvalues --  -19.19264 -14.60702 -14.50893 -14.48240 -14.47728
 Alpha  occ. eigenvalues --  -14.47479 -14.46960 -14.46008 -14.45548 -14.45076
 Alpha  occ. eigenvalues --  -14.43951 -10.44619 -10.42443 -10.41374 -10.40726
 Alpha  occ. eigenvalues --  -10.40378 -10.39935 -10.39434 -10.39173 -10.38456
 Alpha  occ. eigenvalues --  -10.38164 -10.36718 -10.35475 -10.33972 -10.33801
 Alpha  occ. eigenvalues --  -10.33180 -10.33177 -10.32724 -10.31992 -10.31531
 Alpha  occ. eigenvalues --  -10.31206  -1.19818  -1.18935  -1.16933  -1.15492
 Alpha  occ. eigenvalues --   -1.14794  -1.14515  -1.14388  -1.13655  -1.13327
 Alpha  occ. eigenvalues --   -1.12428  -1.11284  -1.09969  -1.07325  -1.04770
 Alpha  occ. eigenvalues --   -1.03702  -1.03229  -1.03076  -1.02410  -1.02099
 Alpha  occ. eigenvalues --   -1.01112  -1.00232  -0.91094  -0.87787  -0.87267
 Alpha  occ. eigenvalues --   -0.85924  -0.84715  -0.83860  -0.82066  -0.80628
 Alpha  occ. eigenvalues --   -0.79034  -0.77987  -0.75808  -0.73935  -0.73223
 Alpha  occ. eigenvalues --   -0.71242  -0.70728  -0.70500  -0.69745  -0.69278
 Alpha  occ. eigenvalues --   -0.68483  -0.67769  -0.67559  -0.66987  -0.66734
 Alpha  occ. eigenvalues --   -0.65752  -0.64436  -0.64322  -0.63488  -0.62753
 Alpha  occ. eigenvalues --   -0.62410  -0.61890  -0.61372  -0.61024  -0.60245
 Alpha  occ. eigenvalues --   -0.59222  -0.58623  -0.58447  -0.58091  -0.57730
 Alpha  occ. eigenvalues --   -0.57237  -0.56998  -0.56792  -0.56546  -0.56233
 Alpha  occ. eigenvalues --   -0.55731  -0.55184  -0.54972  -0.54909  -0.54152
 Alpha  occ. eigenvalues --   -0.53795  -0.53400  -0.53132  -0.52286  -0.51807
 Alpha  occ. eigenvalues --   -0.51525  -0.51116  -0.50856  -0.50813  -0.50741
 Alpha  occ. eigenvalues --   -0.49970  -0.49864  -0.49385  -0.49172  -0.48816
 Alpha  occ. eigenvalues --   -0.48617  -0.48425  -0.48164  -0.47884  -0.47320
 Alpha  occ. eigenvalues --   -0.46986  -0.46625  -0.46401  -0.46216  -0.44273
 Alpha  occ. eigenvalues --   -0.41977  -0.40960  -0.39995  -0.39837  -0.39386
 Alpha  occ. eigenvalues --   -0.39032  -0.38394  -0.38033  -0.37327  -0.37239
 Alpha  occ. eigenvalues --   -0.36923  -0.36461  -0.36353  -0.35720  -0.34721
 Alpha  occ. eigenvalues --   -0.34487  -0.33899  -0.33682  -0.33298  -0.32624
 Alpha virt. eigenvalues --   -0.15495  -0.11553  -0.10612  -0.10368  -0.09336
 Alpha virt. eigenvalues --   -0.08490  -0.08046  -0.07814  -0.07445  -0.07147
 Alpha virt. eigenvalues --   -0.06750  -0.05689  -0.05563  -0.02939  -0.02582

 Mulliken charges:
               1
     1  N   -0.771786
     2  H    0.414840
     3  H    0.423448
     4  H    0.458776
     5  C   -0.263552
     6  H    0.246995
     7  H    0.219562
     8  C    0.573810
     9  O   -0.471332
    10  N   -0.540735
    11  H    0.347835
    12  C   -0.287210
    13  H    0.241288
    14  H    0.235879
    15  C    0.635092
    16  O   -0.607403
    17  N   -0.587965
    18  H    0.413374
    19  C   -0.218356
    20  H    0.204652
    21  H    0.198132
    22  C    0.635667
    23  O   -0.536275
    24  N   -0.600789
    25  H    0.349830
    26  C   -0.240429
    27  H    0.223732
    28  H    0.204035
    29  C    0.588224
    30  O   -0.489378
    31  N   -0.619401
    32  H    0.390699
    33  C   -0.224804
    34  H    0.238405
    35  H    0.157415
    36  C    0.602307
    37  O   -0.533946
    38  N   -0.586123
    39  H    0.349598
    40  C   -0.232065
    41  H    0.201172
    42  H    0.204775
    43  C    0.571636
    44  O   -0.508694
    45  N   -0.582989
    46  H    0.378945
    47  C   -0.262060
    48  H    0.199443
    49  H    0.160518
    50  C    0.597236
    51  O   -0.562934
    52  N   -0.558280
    53  H    0.378605
    54  C   -0.247372
    55  H    0.201917
    56  H    0.182974
    57  C    0.605233
    58  O   -0.520241
    59  N   -0.602937
    60  H    0.391194
    61  C   -0.230596
    62  H    0.194564
    63  H    0.216986
    64  C    0.591209
    65  O   -0.551874
    66  N   -0.574586
    67  H    0.386022
    68  C   -0.227739
    69  H    0.220817
    70  H    0.190983
    71  C    0.583563
    72  O   -0.442433
    73  O   -0.555468
    74  H    0.428362
 Sum of Mulliken charges =   1.00000

 Dipole moment (field-independent basis, Debye):
    X=              9.4538    Y=             28.7632    Z=             19.6678  Tot=             36.1043
 Quadrupole moment (field-independent basis, Debye-Ang):
   XX=           -198.1904   YY=             -8.3664   ZZ=           -139.1800
   XY=             59.0458   XZ=             22.7614   YZ=            112.3838

 Normal termination of Gaussian 16 at Sun Jul  3 18:10:16 2022.
