 Gaussian 16, Revision C.01,
 Gaussian 16:  ES64L-G16RevC.01  3-Jul-2019

 ----------------------------------------------------------------------
 # B3LYP/6-31G* empiricaldispersion=gd3 guess=read geom=check nosymm in
 tegral(ultrafinegrid)
 ----------------------------------------------------------------------

 ------------------------------------------------------
 Candidate Structure: Conf:211 Charge calc in gas phase
 ------------------------------------------------------
 Structure from the checkpoint file:  "conf-211.chk"
 Charge =  1 Multiplicity = 1

                          Input orientation:
 ---------------------------------------------------------------------
 Center     Atomic      Atomic             Coordinates (Angstroms)
 Number     Number       Type             X           Y           Z
 ---------------------------------------------------------------------
      1          7           0       -2.963844    3.995701   -3.920205
      2          1           0       -3.901267    3.646254   -3.707006
      3          1           0       -2.642781    3.561642   -4.833260
      4          1           0       -2.323340    3.633691   -3.172704
      5          6           0       -2.959174    5.480020   -4.032718
      6          1           0       -3.666600    5.773139   -4.813837
      7          1           0       -3.257652    5.907077   -3.073995
      8          6           0       -1.534638    5.912450   -4.377476
      9          8           0       -0.666693    5.061466   -4.559517
     10          7           0       -1.293260    7.238711   -4.415667
     11          1           0       -2.052985    7.896101   -4.301833
     12          6           0        0.069137    7.744899   -4.632670
     13          1           0        0.088234    8.796077   -4.330853
     14          1           0        0.347203    7.662740   -5.683643
     15          6           0        1.054669    6.925958   -3.781006
     16          8           0        2.008781    6.321684   -4.277661
     17          7           0        0.754292    6.928700   -2.458596
     18          1           0       -0.136348    7.352740   -2.223033
     19          6           0        1.099698    5.837524   -1.571466
     20          1           0        1.823107    5.179040   -2.055056
     21          1           0        1.565212    6.209856   -0.651516
     22          6           0       -0.179538    5.057585   -1.215276
     23          8           0       -1.298818    5.466172   -1.545612
     24          7           0        0.027148    3.943115   -0.480328
     25          1           0        0.978754    3.574392   -0.440715
     26          6           0       -1.067863    3.040132   -0.159876
     27          1           0       -0.914209    2.618271    0.838170
     28          1           0       -1.996113    3.612559   -0.165376
     29          6           0       -1.134539    1.957007   -1.239168
     30          8           0       -1.595586    2.200981   -2.367606
     31          7           0       -0.581884    0.784257   -0.904173
     32          1           0       -0.198587    0.645156    0.026605
     33          6           0       -0.222782   -0.274956   -1.833879
     34          1           0       -0.063813    0.143300   -2.828953
     35          1           0       -1.009471   -1.037961   -1.893103
     36          6           0        1.058640   -0.908202   -1.277509
     37          8           0        1.257462   -0.904596   -0.055885
     38          7           0        1.913478   -1.434295   -2.179059
     39          1           0        1.841520   -1.081825   -3.130083
     40          6           0        3.247994   -1.881324   -1.763899
     41          1           0        3.156684   -2.406442   -0.810621
     42          1           0        3.652003   -2.553074   -2.520926
     43          6           0        4.165284   -0.653225   -1.662757
     44          8           0        4.997393   -0.385238   -2.526429
     45          7           0        3.899406    0.159766   -0.600149
     46          1           0        3.102368   -0.081547   -0.016834
     47          6           0        4.379718    1.537016   -0.581311
     48          1           0        4.233863    1.952662    0.416215
     49          1           0        5.444696    1.547487   -0.827315
     50          6           0        3.571455    2.372072   -1.583789
     51          8           0        2.587582    3.043935   -1.247489
     52          7           0        3.980971    2.273423   -2.868437
     53          1           0        4.633193    1.518387   -3.076590
     54          6           0        3.167153    2.795424   -3.945090
     55          1           0        3.774280    2.813922   -4.856149
     56          1           0        2.874399    3.827209   -3.732066
     57          6           0        1.945380    1.908245   -4.232373
     58          8           0        1.983151    0.683654   -4.101210
     59          7           0        0.869190    2.564255   -4.718497
     60          1           0        0.834000    3.577220   -4.686260
     61          6           0       -0.301903    1.874670   -5.242856
     62          1           0       -1.061654    1.730674   -4.473252
     63          1           0        0.017508    0.889957   -5.600985
     64          6           0       -0.883467    2.711480   -6.379493
     65          8           0       -2.041176    3.153284   -6.351078
     66          7           0       -0.017124    2.978399   -7.385154
     67          1           0        0.933326    2.667357   -7.221077
     68          6           0       -0.120080    4.211822   -8.154106
     69          1           0       -1.168192    4.432855   -8.350556
     70          1           0        0.395773    4.092716   -9.111919
     71          6           0        0.486124    5.392356   -7.384296
     72          8           0        0.057600    6.522692   -7.472468
     73          8           0        1.517036    5.006552   -6.619775
     74          1           0        1.772459    5.708124   -5.961638
 ---------------------------------------------------------------------

 SCF Done:  E(RB3LYP) =  -2157.10451032     A.U. after    1 cycles

 Alpha  occ. eigenvalues --  -19.28020 -19.25480 -19.24681 -19.24348 -19.23921
 Alpha  occ. eigenvalues --  -19.23398 -19.23325 -19.22967 -19.22717 -19.22688
 Alpha  occ. eigenvalues --  -19.21110 -14.55021 -14.49857 -14.48079 -14.47623
 Alpha  occ. eigenvalues --  -14.46997 -14.46898 -14.46832 -14.46504 -14.45716
 Alpha  occ. eigenvalues --  -14.45191 -10.43058 -10.41696 -10.41152 -10.41083
 Alpha  occ. eigenvalues --  -10.40797 -10.40216 -10.39918 -10.39679 -10.39181
 Alpha  occ. eigenvalues --  -10.38075 -10.38022 -10.34200 -10.34136 -10.33713
 Alpha  occ. eigenvalues --  -10.33461 -10.33425 -10.33192 -10.32891 -10.32293
 Alpha  occ. eigenvalues --  -10.32015  -1.19340  -1.18053  -1.15950  -1.15891
 Alpha  occ. eigenvalues --   -1.15208  -1.14837  -1.14616  -1.14420  -1.13831
 Alpha  occ. eigenvalues --   -1.12661  -1.10798  -1.10119  -1.06016  -1.04775
 Alpha  occ. eigenvalues --   -1.04411  -1.03507  -1.03294  -1.02962  -1.02642
 Alpha  occ. eigenvalues --   -1.02369  -1.01198  -0.89049  -0.88010  -0.87507
 Alpha  occ. eigenvalues --   -0.86011  -0.84870  -0.83545  -0.82488  -0.80793
 Alpha  occ. eigenvalues --   -0.79526  -0.78138  -0.73044  -0.72062  -0.71384
 Alpha  occ. eigenvalues --   -0.71074  -0.70566  -0.70069  -0.69708  -0.68978
 Alpha  occ. eigenvalues --   -0.68806  -0.68247  -0.68059  -0.66972  -0.65783
 Alpha  occ. eigenvalues --   -0.65077  -0.64923  -0.63655  -0.62999  -0.62263
 Alpha  occ. eigenvalues --   -0.61607  -0.61124  -0.60716  -0.59881  -0.59793
 Alpha  occ. eigenvalues --   -0.59460  -0.59237  -0.58663  -0.58510  -0.58068
 Alpha  occ. eigenvalues --   -0.57817  -0.57273  -0.57047  -0.56654  -0.56342
 Alpha  occ. eigenvalues --   -0.56168  -0.55968  -0.55425  -0.55175  -0.54428
 Alpha  occ. eigenvalues --   -0.54354  -0.53699  -0.53190  -0.52723  -0.52426
 Alpha  occ. eigenvalues --   -0.52133  -0.51873  -0.51363  -0.51156  -0.50850
 Alpha  occ. eigenvalues --   -0.50520  -0.49937  -0.49855  -0.49452  -0.49377
 Alpha  occ. eigenvalues --   -0.49169  -0.49022  -0.48675  -0.48049  -0.47629
 Alpha  occ. eigenvalues --   -0.47277  -0.47156  -0.46773  -0.46533  -0.46156
 Alpha  occ. eigenvalues --   -0.41239  -0.40696  -0.40130  -0.39890  -0.39320
 Alpha  occ. eigenvalues --   -0.38650  -0.38358  -0.38267  -0.38115  -0.37769
 Alpha  occ. eigenvalues --   -0.37537  -0.37533  -0.36943  -0.36536  -0.36336
 Alpha  occ. eigenvalues --   -0.35647  -0.35442  -0.35137  -0.34125  -0.33674
 Alpha virt. eigenvalues --   -0.11928  -0.11144  -0.10769  -0.10171  -0.09594
 Alpha virt. eigenvalues --   -0.08876  -0.08407  -0.08128  -0.07731  -0.06674
 Alpha virt. eigenvalues --   -0.06428  -0.04484  -0.02134  -0.01577  -0.00356

 Mulliken charges:
               1
     1  N   -0.794337
     2  H    0.392153
     3  H    0.449585
     4  H    0.446055
     5  C   -0.269910
     6  H    0.222671
     7  H    0.239899
     8  C    0.685426
     9  O   -0.550595
    10  N   -0.612787
    11  H    0.354833
    12  C   -0.246518
    13  H    0.197236
    14  H    0.247654
    15  C    0.611529
    16  O   -0.544210
    17  N   -0.535762
    18  H    0.343475
    19  C   -0.260869
    20  H    0.236567
    21  H    0.205760
    22  C    0.607417
    23  O   -0.568544
    24  N   -0.593312
    25  H    0.392359
    26  C   -0.236353
    27  H    0.182625
    28  H    0.202380
    29  C    0.624813
    30  O   -0.562203
    31  N   -0.579350
    32  H    0.366602
    33  C   -0.222723
    34  H    0.211225
    35  H    0.208101
    36  C    0.599188
    37  O   -0.544145
    38  N   -0.580751
    39  H    0.387080
    40  C   -0.243271
    41  H    0.208988
    42  H    0.203050
    43  C    0.596222
    44  O   -0.516665
    45  N   -0.582151
    46  H    0.374314
    47  C   -0.232218
    48  H    0.187798
    49  H    0.206104
    50  C    0.592389
    51  O   -0.558112
    52  N   -0.556974
    53  H    0.389067
    54  C   -0.266826
    55  H    0.204277
    56  H    0.211479
    57  C    0.623077
    58  O   -0.554056
    59  N   -0.623364
    60  H    0.396548
    61  C   -0.240399
    62  H    0.205793
    63  H    0.204380
    64  C    0.613470
    65  O   -0.558112
    66  N   -0.532539
    67  H    0.355776
    68  C   -0.249380
    69  H    0.223443
    70  H    0.212391
    71  C    0.611061
    72  O   -0.464679
    73  O   -0.611948
    74  H    0.458804
 Sum of Mulliken charges =   1.00000

 Dipole moment (field-independent basis, Debye):
    X=             -4.5140    Y=             18.4308    Z=            -14.9601  Tot=             24.1635
 Quadrupole moment (field-independent basis, Debye-Ang):
   XX=           -197.8059   YY=           -114.8002   ZZ=           -156.5331
   XY=            -33.4310   XZ=             21.1452   YZ=            -61.5927

 Normal termination of Gaussian 16 at Sun Jul  3 18:10:23 2022.
