 Gaussian 16, Revision C.01,
 Gaussian 16:  ES64L-G16RevC.01  3-Jul-2019

 ----------------------------------------------------------------------
 # B3LYP/6-31G* empiricaldispersion=gd3 guess=read geom=check nosymm in
 tegral(ultrafinegrid)
 ----------------------------------------------------------------------

 ------------------------------------------------------
 Candidate Structure: Conf:962 Charge calc in gas phase
 ------------------------------------------------------
 Structure from the checkpoint file:  "conf-962.chk"
 Charge =  1 Multiplicity = 1

                          Input orientation:
 ---------------------------------------------------------------------
 Center     Atomic      Atomic             Coordinates (Angstroms)
 Number     Number       Type             X           Y           Z
 ---------------------------------------------------------------------
      1          7           0        3.095249    3.705387   -0.392022
      2          1           0        2.032192    3.592035   -0.352210
      3          1           0        3.378017    3.884069   -1.357898
      4          1           0        3.562229    2.856409   -0.023449
      5          6           0        3.469977    4.808718    0.549049
      6          1           0        4.423534    5.242570    0.238285
      7          1           0        2.679930    5.559765    0.516704
      8          6           0        3.612745    4.104871    1.916570
      9          8           0        4.053601    2.956744    1.914357
     10          7           0        3.226749    4.820158    2.982551
     11          1           0        2.781406    5.718637    2.815728
     12          6           0        2.761975    4.215323    4.230789
     13          1           0        3.324710    4.607091    5.085279
     14          1           0        2.894336    3.135855    4.189918
     15          6           0        1.291042    4.647969    4.345216
     16          8           0        0.973450    5.783986    3.977126
     17          7           0        0.405561    3.757677    4.859072
     18          1           0        0.654484    2.766646    4.804595
     19          6           0       -1.035528    4.034157    4.779696
     20          1           0       -1.554467    3.335327    5.435876
     21          1           0       -1.213887    5.059091    5.112864
     22          6           0       -1.563815    3.809638    3.351553
     23          8           0       -2.197466    2.798518    3.049925
     24          7           0       -1.252617    4.789476    2.459753
     25          1           0       -0.589723    5.498314    2.761921
     26          6           0       -1.516182    4.629153    1.033868
     27          1           0       -2.544526    4.281899    0.898606
     28          1           0       -1.393062    5.593301    0.539970
     29          6           0       -0.520652    3.635071    0.425075
     30          8           0        0.497390    4.040386   -0.168945
     31          7           0       -0.837614    2.339030    0.608655
     32          1           0       -1.577273    2.186826    1.298776
     33          6           0        0.163451    1.299168    0.512335
     34          1           0        0.731194    1.425599   -0.415588
     35          1           0       -0.332382    0.325980    0.460618
     36          6           0        1.119601    1.380544    1.723138
     37          8           0        1.184991    2.420298    2.388095
     38          7           0        1.874677    0.301476    1.962044
     39          1           0        1.749211   -0.581357    1.473807
     40          6           0        2.792927    0.264536    3.086911
     41          1           0        3.466148    1.122440    3.046076
     42          1           0        2.239937    0.321636    4.031607
     43          6           0        3.571286   -1.043826    3.049383
     44          8           0        3.238602   -1.985691    2.335517
     45          7           0        4.637251   -1.047221    3.889630
     46          1           0        4.737593   -0.239184    4.501738
     47          6           0        5.341693   -2.266331    4.243438
     48          1           0        4.719806   -3.119676    3.952335
     49          1           0        6.295027   -2.350476    3.704732
     50          6           0        5.545426   -2.254904    5.759004
     51          8           0        4.639105   -1.940756    6.523054
     52          7           0        6.811345   -2.477390    6.221294
     53          1           0        7.534473   -2.819508    5.603894
     54          6           0        7.084737   -2.283191    7.642640
     55          1           0        8.149138   -2.459904    7.821107
     56          1           0        6.501460   -2.969045    8.261407
     57          6           0        6.696785   -0.861166    8.092491
     58          8           0        6.187771   -0.643572    9.183511
     59          7           0        6.971536    0.131248    7.187800
     60          1           0        7.228994   -0.162544    6.254793
     61          6           0        6.298626    1.422772    7.297414
     62          1           0        6.790695    2.141935    6.641356
     63          1           0        6.368350    1.763954    8.332463
     64          6           0        4.842475    1.256870    6.846080
     65          8           0        4.497213    1.434727    5.667604
     66          7           0        3.988120    0.828476    7.798224
     67          1           0        4.388700    0.500669    8.672330
     68          6           0        2.679891    0.333474    7.408745
     69          1           0        2.150723    0.017081    8.313089
     70          1           0        2.770761   -0.524530    6.738266
     71          6           0        1.828303    1.380730    6.716958
     72          8           0        1.084348    1.120155    5.784923
     73          8           0        1.930897    2.601833    7.260988
     74          1           0        1.316159    3.196979    6.781383
 ---------------------------------------------------------------------

 SCF Done:  E(RB3LYP) =  -2157.06732083     A.U. after    1 cycles

 Alpha  occ. eigenvalues --  -19.29065 -19.25118 -19.24715 -19.24008 -19.23816
 Alpha  occ. eigenvalues --  -19.22126 -19.21933 -19.21892 -19.21809 -19.20895
 Alpha  occ. eigenvalues --  -19.20401 -14.56963 -14.48580 -14.47087 -14.47076
 Alpha  occ. eigenvalues --  -14.46900 -14.46099 -14.45998 -14.45618 -14.45562
 Alpha  occ. eigenvalues --  -14.44419 -10.42493 -10.42216 -10.40826 -10.40594
 Alpha  occ. eigenvalues --  -10.39264 -10.39020 -10.38878 -10.38548 -10.38525
 Alpha  occ. eigenvalues --  -10.38238 -10.37443 -10.34143 -10.33776 -10.33277
 Alpha  occ. eigenvalues --  -10.32749 -10.32510 -10.32265 -10.32206 -10.32099
 Alpha  occ. eigenvalues --  -10.30435  -1.20363  -1.17513  -1.15830  -1.15602
 Alpha  occ. eigenvalues --   -1.14357  -1.13827  -1.13449  -1.13369  -1.12516
 Alpha  occ. eigenvalues --   -1.12053  -1.11430  -1.11263  -1.05156  -1.03909
 Alpha  occ. eigenvalues --   -1.03356  -1.03055  -1.02153  -1.02093  -1.02011
 Alpha  occ. eigenvalues --   -1.01079  -1.01030  -0.88694  -0.87345  -0.86394
 Alpha  occ. eigenvalues --   -0.85242  -0.84533  -0.83069  -0.81736  -0.80256
 Alpha  occ. eigenvalues --   -0.79177  -0.77492  -0.72289  -0.72156  -0.71965
 Alpha  occ. eigenvalues --   -0.71249  -0.70107  -0.69709  -0.69013  -0.68613
 Alpha  occ. eigenvalues --   -0.68046  -0.67650  -0.67156  -0.67045  -0.65524
 Alpha  occ. eigenvalues --   -0.64812  -0.64166  -0.63116  -0.62635  -0.61762
 Alpha  occ. eigenvalues --   -0.61008  -0.60710  -0.60416  -0.59677  -0.59100
 Alpha  occ. eigenvalues --   -0.58712  -0.58626  -0.58174  -0.57831  -0.57321
 Alpha  occ. eigenvalues --   -0.57098  -0.57012  -0.56381  -0.55648  -0.55348
 Alpha  occ. eigenvalues --   -0.55076  -0.54839  -0.54516  -0.54171  -0.53459
 Alpha  occ. eigenvalues --   -0.53094  -0.52870  -0.52423  -0.52289  -0.51940
 Alpha  occ. eigenvalues --   -0.51237  -0.51101  -0.50867  -0.50570  -0.50243
 Alpha  occ. eigenvalues --   -0.50187  -0.49908  -0.49649  -0.49141  -0.48656
 Alpha  occ. eigenvalues --   -0.48341  -0.48120  -0.47877  -0.47675  -0.47418
 Alpha  occ. eigenvalues --   -0.47227  -0.46528  -0.45792  -0.45691  -0.44115
 Alpha  occ. eigenvalues --   -0.41579  -0.39975  -0.39711  -0.39312  -0.39133
 Alpha  occ. eigenvalues --   -0.38502  -0.38202  -0.37471  -0.37348  -0.36859
 Alpha  occ. eigenvalues --   -0.36148  -0.36009  -0.35691  -0.35316  -0.35157
 Alpha  occ. eigenvalues --   -0.34491  -0.34360  -0.34163  -0.33986  -0.33464
 Alpha virt. eigenvalues --   -0.12254  -0.10411  -0.10276  -0.09268  -0.08956
 Alpha virt. eigenvalues --   -0.08642  -0.08210  -0.07676  -0.07106  -0.06758
 Alpha virt. eigenvalues --   -0.05348  -0.03467  -0.02600  -0.02015  -0.00690

 Mulliken charges:
               1
     1  N   -0.768077
     2  H    0.453456
     3  H    0.402543
     4  H    0.411040
     5  C   -0.273886
     6  H    0.232541
     7  H    0.226139
     8  C    0.651687
     9  O   -0.513068
    10  N   -0.580722
    11  H    0.358647
    12  C   -0.235020
    13  H    0.206275
    14  H    0.240604
    15  C    0.614010
    16  O   -0.542038
    17  N   -0.635330
    18  H    0.407830
    19  C   -0.247136
    20  H    0.204397
    21  H    0.205738
    22  C    0.612978
    23  O   -0.524147
    24  N   -0.581058
    25  H    0.377543
    26  C   -0.241647
    27  H    0.208493
    28  H    0.192652
    29  C    0.631076
    30  O   -0.590764
    31  N   -0.540857
    32  H    0.391983
    33  C   -0.269276
    34  H    0.183520
    35  H    0.203348
    36  C    0.623864
    37  O   -0.559613
    38  N   -0.604158
    39  H    0.359869
    40  C   -0.267730
    41  H    0.233184
    42  H    0.234655
    43  C    0.590198
    44  O   -0.524056
    45  N   -0.625630
    46  H    0.384299
    47  C   -0.201912
    48  H    0.224732
    49  H    0.159734
    50  C    0.572509
    51  O   -0.497434
    52  N   -0.613886
    53  H    0.348532
    54  C   -0.214105
    55  H    0.194843
    56  H    0.218870
    57  C    0.608738
    58  O   -0.512837
    59  N   -0.563712
    60  H    0.331599
    61  C   -0.233458
    62  H    0.185856
    63  H    0.205511
    64  C    0.600847
    65  O   -0.561491
    66  N   -0.554839
    67  H    0.381302
    68  C   -0.217493
    69  H    0.203552
    70  H    0.228649
    71  C    0.614526
    72  O   -0.492847
    73  O   -0.562849
    74  H    0.428706
 Sum of Mulliken charges =   1.00000

 Dipole moment (field-independent basis, Debye):
    X=             18.1843    Y=             12.6932    Z=             10.6723  Tot=             24.6107
 Quadrupole moment (field-independent basis, Debye-Ang):
   XX=           -114.7125   YY=           -158.7405   ZZ=           -157.5152
   XY=             11.4086   XZ=             59.7639   YZ=              2.2516

 Normal termination of Gaussian 16 at Sun Jul  3 18:10:16 2022.
