 Gaussian 16, Revision C.01,
 Gaussian 16:  ES64L-G16RevC.01  3-Jul-2019

 ----------------------------------------------------------------------
 # B3LYP/6-31G* empiricaldispersion=gd3 guess=read geom=check nosymm in
 tegral(ultrafinegrid)
 ----------------------------------------------------------------------

 ------------------------------------------------------
 Candidate Structure: Conf:574 Charge calc in gas phase
 ------------------------------------------------------
 Structure from the checkpoint file:  "conf-574.chk"
 Charge =  1 Multiplicity = 1

                          Input orientation:
 ---------------------------------------------------------------------
 Center     Atomic      Atomic             Coordinates (Angstroms)
 Number     Number       Type             X           Y           Z
 ---------------------------------------------------------------------
      1          7           0       -3.612205    4.090791   -3.401494
      2          1           0       -4.431769    3.482954   -3.312055
      3          1           0       -3.126568    3.869919   -4.308490
      4          1           0       -2.902592    3.808398   -2.680107
      5          6           0       -3.967683    5.548183   -3.281930
      6          1           0       -4.718863    5.780493   -4.038684
      7          1           0       -4.376948    5.726110   -2.284853
      8          6           0       -2.665648    6.294240   -3.597121
      9          8           0       -2.148348    6.109771   -4.693234
     10          7           0       -2.092561    7.000334   -2.592798
     11          1           0       -2.540193    7.044632   -1.686309
     12          6           0       -0.656070    7.314373   -2.651250
     13          1           0       -0.420414    8.067317   -1.900252
     14          1           0       -0.415906    7.690683   -3.647150
     15          6           0        0.063747    6.002377   -2.304580
     16          8           0        0.329732    5.714735   -1.130180
     17          7           0        0.185373    5.124487   -3.325930
     18          1           0       -0.207080    5.373749   -4.228037
     19          6           0        0.597904    3.745972   -3.126441
     20          1           0        0.912229    3.316027   -4.073747
     21          1           0        1.468188    3.710355   -2.460610
     22          6           0       -0.443507    2.822772   -2.490159
     23          8           0       -0.469369    1.620747   -2.715829
     24          7           0       -1.325596    3.389718   -1.563311
     25          1           0       -0.994051    4.290272   -1.214564
     26          6           0       -1.753607    2.484696   -0.476478
     27          1           0       -2.445182    3.027242    0.174964
     28          1           0       -2.271740    1.623800   -0.897374
     29          6           0       -0.591925    1.918276    0.366542
     30          8           0       -0.742566    0.868765    0.966071
     31          7           0        0.567122    2.648545    0.367096
     32          1           0        0.594662    3.580573   -0.029874
     33          6           0        1.748045    2.211182    1.095246
     34          1           0        1.461965    1.343513    1.697438
     35          1           0        2.099108    2.992288    1.774490
     36          6           0        2.941358    1.814479    0.218363
     37          8           0        4.077582    1.856022    0.665103
     38          7           0        2.657804    1.404782   -1.057121
     39          1           0        1.702750    1.254264   -1.357445
     40          6           0        3.715273    0.868561   -1.883620
     41          1           0        4.636004    1.416539   -1.659052
     42          1           0        3.919387   -0.188329   -1.648700
     43          6           0        3.358139    0.974055   -3.361759
     44          8           0        2.228689    1.305519   -3.745823
     45          7           0        4.337918    0.643349   -4.230133
     46          1           0        5.229661    0.323991   -3.874761
     47          6           0        4.161641    0.731390   -5.675806
     48          1           0        3.586219    1.637523   -5.897163
     49          1           0        5.139171    0.819841   -6.150281
     50          6           0        3.446599   -0.448771   -6.349311
     51          8           0        3.837074   -0.861878   -7.440892
     52          7           0        2.364053   -0.950579   -5.701649
     53          1           0        1.951946   -0.386679   -4.965615
     54          6           0        1.567148   -2.027484   -6.284167
     55          1           0        1.017400   -2.536026   -5.491537
     56          1           0        2.252310   -2.733215   -6.762426
     57          6           0        0.541731   -1.502470   -7.299870
     58          8           0       -0.672160   -1.591119   -7.096918
     59          7           0        1.083762   -0.911729   -8.391934
     60          1           0        2.098299   -0.853956   -8.448980
     61          6           0        0.269747   -0.218406   -9.383975
     62          1           0       -0.574959   -0.855930   -9.664778
     63          1           0        0.883050   -0.020107  -10.262802
     64          6           0       -0.225443    1.130430   -8.837109
     65          8           0        0.300519    2.197678   -9.117450
     66          7           0       -1.302978    1.012222   -7.991644
     67          1           0       -1.501075    0.071658   -7.648313
     68          6           0       -1.749656    2.143229   -7.230975
     69          1           0       -2.842684    2.231026   -7.232298
     70          1           0       -1.350493    3.046532   -7.708815
     71          6           0       -1.310117    2.177742   -5.778556
     72          8           0       -1.796701    2.983578   -4.977300
     73          8           0       -0.368220    1.316727   -5.449253
     74          1           0       -0.197760    1.346873   -4.468346
 ---------------------------------------------------------------------

 SCF Done:  E(RB3LYP) =  -2157.03205521     A.U. after    1 cycles

 Alpha  occ. eigenvalues --  -19.30766 -19.28147 -19.27325 -19.26855 -19.26346
 Alpha  occ. eigenvalues --  -19.23444 -19.21738 -19.20895 -19.19907 -19.19718
 Alpha  occ. eigenvalues --  -19.19399 -14.59933 -14.53126 -14.50655 -14.50378
 Alpha  occ. eigenvalues --  -14.47724 -14.46809 -14.45146 -14.45102 -14.43817
 Alpha  occ. eigenvalues --  -14.43479 -10.45844 -10.44686 -10.43901 -10.43399
 Alpha  occ. eigenvalues --  -10.41932 -10.40452 -10.39581 -10.38091 -10.37433
 Alpha  occ. eigenvalues --  -10.37353 -10.36814 -10.36424 -10.35991 -10.35404
 Alpha  occ. eigenvalues --  -10.33091 -10.32918 -10.32915 -10.31672 -10.31008
 Alpha  occ. eigenvalues --  -10.30345  -1.22590  -1.20757  -1.19145  -1.17947
 Alpha  occ. eigenvalues --   -1.15278  -1.14745  -1.13956  -1.13243  -1.12812
 Alpha  occ. eigenvalues --   -1.11901  -1.11710  -1.10900  -1.08788  -1.07097
 Alpha  occ. eigenvalues --   -1.06002  -1.03631  -1.02652  -1.01259  -1.00847
 Alpha  occ. eigenvalues --   -1.00660  -0.99720  -0.92210  -0.89108  -0.86701
 Alpha  occ. eigenvalues --   -0.86030  -0.85235  -0.84127  -0.82809  -0.81247
 Alpha  occ. eigenvalues --   -0.79194  -0.77618  -0.76021  -0.74743  -0.73523
 Alpha  occ. eigenvalues --   -0.73233  -0.72513  -0.71734  -0.70444  -0.69307
 Alpha  occ. eigenvalues --   -0.68504  -0.68153  -0.67935  -0.67721  -0.67043
 Alpha  occ. eigenvalues --   -0.66020  -0.65529  -0.65318  -0.64551  -0.63392
 Alpha  occ. eigenvalues --   -0.62922  -0.62647  -0.62162  -0.61740  -0.60750
 Alpha  occ. eigenvalues --   -0.60169  -0.59487  -0.59066  -0.58848  -0.58046
 Alpha  occ. eigenvalues --   -0.57697  -0.57536  -0.56812  -0.56741  -0.56497
 Alpha  occ. eigenvalues --   -0.56253  -0.55840  -0.55532  -0.55375  -0.54336
 Alpha  occ. eigenvalues --   -0.54169  -0.54071  -0.53840  -0.53749  -0.53213
 Alpha  occ. eigenvalues --   -0.52463  -0.51857  -0.51694  -0.51368  -0.51038
 Alpha  occ. eigenvalues --   -0.50600  -0.50122  -0.49893  -0.49363  -0.49062
 Alpha  occ. eigenvalues --   -0.48840  -0.48409  -0.47994  -0.47516  -0.46860
 Alpha  occ. eigenvalues --   -0.46613  -0.45737  -0.45506  -0.45017  -0.44435
 Alpha  occ. eigenvalues --   -0.43935  -0.43692  -0.43219  -0.42551  -0.42116
 Alpha  occ. eigenvalues --   -0.41122  -0.39343  -0.38686  -0.38594  -0.37504
 Alpha  occ. eigenvalues --   -0.36936  -0.36436  -0.35398  -0.35395  -0.34811
 Alpha  occ. eigenvalues --   -0.33920  -0.33722  -0.32758  -0.32552  -0.31579
 Alpha virt. eigenvalues --   -0.16528  -0.14323  -0.12291  -0.11429  -0.09877
 Alpha virt. eigenvalues --   -0.09481  -0.08060  -0.07787  -0.07237  -0.06246
 Alpha virt. eigenvalues --   -0.05980  -0.05150  -0.04046  -0.02606  -0.02395

 Mulliken charges:
               1
     1  N   -0.784174
     2  H    0.409604
     3  H    0.452492
     4  H    0.438482
     5  C   -0.261392
     6  H    0.251609
     7  H    0.209487
     8  C    0.609688
     9  O   -0.488362
    10  N   -0.573378
    11  H    0.358429
    12  C   -0.238555
    13  H    0.222065
    14  H    0.224978
    15  C    0.570929
    16  O   -0.523112
    17  N   -0.568553
    18  H    0.388249
    19  C   -0.246431
    20  H    0.216531
    21  H    0.227958
    22  C    0.629138
    23  O   -0.503214
    24  N   -0.689061
    25  H    0.370652
    26  C   -0.255709
    27  H    0.189150
    28  H    0.220045
    29  C    0.604078
    30  O   -0.476402
    31  N   -0.637130
    32  H    0.351482
    33  C   -0.238803
    34  H    0.234797
    35  H    0.201626
    36  C    0.597328
    37  O   -0.496298
    38  N   -0.620054
    39  H    0.359755
    40  C   -0.207972
    41  H    0.216522
    42  H    0.198227
    43  C    0.601999
    44  O   -0.564326
    45  N   -0.576797
    46  H    0.357963
    47  C   -0.243724
    48  H    0.207255
    49  H    0.205972
    50  C    0.600292
    51  O   -0.516482
    52  N   -0.586638
    53  H    0.368566
    54  C   -0.240756
    55  H    0.189677
    56  H    0.208137
    57  C    0.606930
    58  O   -0.539310
    59  N   -0.589975
    60  H    0.383970
    61  C   -0.232969
    62  H    0.193015
    63  H    0.195613
    64  C    0.581839
    65  O   -0.498821
    66  N   -0.586083
    67  H    0.378380
    68  C   -0.229176
    69  H    0.182408
    70  H    0.234519
    71  C    0.609233
    72  O   -0.562502
    73  O   -0.566401
    74  H    0.483494
 Sum of Mulliken charges =   1.00000

 Dipole moment (field-independent basis, Debye):
    X=             -9.3009    Y=             21.0098    Z=            -15.2499  Tot=             27.5768
 Quadrupole moment (field-independent basis, Debye-Ang):
   XX=           -160.5646   YY=           -114.6947   ZZ=           -199.1553
   XY=            -68.3746   XZ=             17.5141   YZ=            -42.9829

 Normal termination of Gaussian 16 at Sun Jul  3 18:10:13 2022.
