 Gaussian 16, Revision C.01,
 Gaussian 16:  ES64L-G16RevC.01  3-Jul-2019

 ----------------------------------------------------------------------
 # B3LYP/6-31G* empiricaldispersion=gd3 guess=read geom=check nosymm in
 tegral(ultrafinegrid)
 ----------------------------------------------------------------------

 ------------------------------------------------------
 Candidate Structure: Conf:883 Charge calc in gas phase
 ------------------------------------------------------
 Structure from the checkpoint file:  "conf-883.chk"
 Charge =  1 Multiplicity = 1

                          Input orientation:
 ---------------------------------------------------------------------
 Center     Atomic      Atomic             Coordinates (Angstroms)
 Number     Number       Type             X           Y           Z
 ---------------------------------------------------------------------
      1          7           0        6.839481    0.418679    1.690172
      2          1           0        6.305480   -0.487931    1.549784
      3          1           0        7.815603    0.301438    1.412400
      4          1           0        6.760447    0.658368    2.708177
      5          6           0        6.143687    1.555937    1.006872
      6          1           0        6.883792    2.235703    0.579274
      7          1           0        5.484257    1.173335    0.226772
      8          6           0        5.321721    2.236569    2.118993
      9          8           0        5.474045    1.849136    3.285050
     10          7           0        4.512678    3.213600    1.727071
     11          1           0        4.356580    3.409101    0.739522
     12          6           0        3.490610    3.773076    2.593128
     13          1           0        3.901649    4.564876    3.231378
     14          1           0        3.090232    2.988631    3.244017
     15          6           0        2.414607    4.355660    1.671306
     16          8           0        2.680507    4.608184    0.494102
     17          7           0        1.204939    4.581561    2.225957
     18          1           0        1.001110    4.207521    3.143310
     19          6           0        0.076254    5.022672    1.401029
     20          1           0       -0.729012    5.348736    2.059367
     21          1           0        0.404219    5.860831    0.781659
     22          6           0       -0.429023    3.835967    0.566258
     23          8           0       -1.261525    3.051117    1.024085
     24          7           0        0.163940    3.694339   -0.643564
     25          1           0        1.005387    4.236268   -0.808055
     26          6           0       -0.075587    2.532529   -1.492264
     27          1           0       -1.146676    2.308562   -1.462297
     28          1           0        0.209760    2.776375   -2.515816
     29          6           0        0.722395    1.281172   -1.077074
     30          8           0        1.503304    0.726492   -1.836665
     31          7           0        0.453323    0.845483    0.190821
     32          1           0       -0.280011    1.318505    0.713058
     33          6           0        1.010588   -0.387546    0.690762
     34          1           0        1.303972   -1.004023   -0.167707
     35          1           0        0.267369   -0.934934    1.277237
     36          6           0        2.301981   -0.209640    1.485808
     37          8           0        3.228813    0.526060    1.100443
     38          7           0        2.412314   -0.985589    2.586409
     39          1           0        1.667297   -1.658110    2.804538
     40          6           0        3.677905   -1.134436    3.289223
     41          1           0        4.176720   -0.163080    3.352276
     42          1           0        3.492244   -1.510496    4.295774
     43          6           0        4.548383   -2.163406    2.561165
     44          8           0        4.797418   -3.269323    2.999829
     45          7           0        5.032967   -1.748800    1.295126
     46          1           0        4.403854   -1.058938    0.866303
     47          6           0        5.358375   -2.846656    0.375313
     48          1           0        5.883028   -2.434968   -0.492905
     49          1           0        6.018617   -3.550427    0.884492
     50          6           0        4.062726   -3.506790   -0.118104
     51          8           0        3.059558   -2.816267   -0.305782
     52          7           0        4.115759   -4.833417   -0.368604
     53          1           0        4.893974   -5.373672   -0.015616
     54          6           0        2.952114   -5.557212   -0.882963
     55          1           0        3.276222   -6.549509   -1.197847
     56          1           0        2.559090   -5.014049   -1.746739
     57          6           0        1.887401   -5.731095    0.211982
     58          8           0        1.923572   -6.675426    0.997287
     59          7           0        0.942107   -4.753366    0.242015
     60          1           0        1.171693   -3.887726   -0.235344
     61          6           0       -0.040352   -4.701320    1.318390
     62          1           0       -0.405943   -5.715504    1.497606
     63          1           0       -0.870808   -4.063771    1.013130
     64          6           0        0.579880   -4.101095    2.584709
     65          8           0        0.405168   -2.906924    2.877645
     66          7           0        1.347503   -4.942999    3.299419
     67          1           0        1.506275   -5.877345    2.929377
     68          6           0        2.047707   -4.529587    4.501296
     69          1           0        1.515262   -3.682555    4.941126
     70          1           0        3.068370   -4.194878    4.273726
     71          6           0        2.164925   -5.609662    5.562979
     72          8           0        2.607273   -5.395820    6.665457
     73          8           0        1.762968   -6.822296    5.124690
     74          1           0        1.898400   -7.452305    5.858088
 ---------------------------------------------------------------------

 SCF Done:  E(RB3LYP) =  -2157.04443347     A.U. after    1 cycles

 Alpha  occ. eigenvalues --  -19.27779 -19.26357 -19.25873 -19.24068 -19.23874
 Alpha  occ. eigenvalues --  -19.22534 -19.21696 -19.21508 -19.21429 -19.20855
 Alpha  occ. eigenvalues --  -19.18956 -14.58177 -14.49206 -14.49032 -14.48427
 Alpha  occ. eigenvalues --  -14.48351 -14.46318 -14.45683 -14.45425 -14.45126
 Alpha  occ. eigenvalues --  -14.43319 -10.43301 -10.41928 -10.41189 -10.40931
 Alpha  occ. eigenvalues --  -10.40256 -10.39378 -10.39159 -10.38524 -10.38494
 Alpha  occ. eigenvalues --  -10.38027 -10.36173 -10.35372 -10.35206 -10.33959
 Alpha  occ. eigenvalues --  -10.33298 -10.33000 -10.31915 -10.31756 -10.31024
 Alpha  occ. eigenvalues --  -10.30709  -1.18600  -1.18487  -1.17566  -1.16047
 Alpha  occ. eigenvalues --   -1.15655  -1.13986  -1.13510  -1.12714  -1.12695
 Alpha  occ. eigenvalues --   -1.12591  -1.10702  -1.09513  -1.06022  -1.04851
 Alpha  occ. eigenvalues --   -1.04162  -1.04128  -1.02723  -1.02160  -1.01417
 Alpha  occ. eigenvalues --   -1.01305  -0.99627  -0.89912  -0.87955  -0.86426
 Alpha  occ. eigenvalues --   -0.86002  -0.84582  -0.83226  -0.82023  -0.80433
 Alpha  occ. eigenvalues --   -0.79132  -0.77718  -0.73478  -0.72500  -0.72305
 Alpha  occ. eigenvalues --   -0.71427  -0.70567  -0.70268  -0.69703  -0.68930
 Alpha  occ. eigenvalues --   -0.68250  -0.67691  -0.67068  -0.66521  -0.66027
 Alpha  occ. eigenvalues --   -0.65616  -0.64031  -0.63079  -0.62927  -0.62408
 Alpha  occ. eigenvalues --   -0.61812  -0.61182  -0.60776  -0.60446  -0.59872
 Alpha  occ. eigenvalues --   -0.59500  -0.58688  -0.58335  -0.58007  -0.57431
 Alpha  occ. eigenvalues --   -0.57356  -0.57261  -0.56894  -0.56275  -0.55942
 Alpha  occ. eigenvalues --   -0.55421  -0.55016  -0.54687  -0.54056  -0.53603
 Alpha  occ. eigenvalues --   -0.53393  -0.52489  -0.52181  -0.51777  -0.51726
 Alpha  occ. eigenvalues --   -0.51403  -0.51125  -0.51074  -0.50614  -0.50081
 Alpha  occ. eigenvalues --   -0.50018  -0.49688  -0.49361  -0.48969  -0.48671
 Alpha  occ. eigenvalues --   -0.48470  -0.48269  -0.48028  -0.47659  -0.47484
 Alpha  occ. eigenvalues --   -0.46881  -0.46868  -0.46173  -0.45593  -0.44208
 Alpha  occ. eigenvalues --   -0.41598  -0.41211  -0.39828  -0.39625  -0.39371
 Alpha  occ. eigenvalues --   -0.39071  -0.38936  -0.37961  -0.37718  -0.37370
 Alpha  occ. eigenvalues --   -0.37258  -0.36540  -0.36204  -0.35847  -0.34562
 Alpha  occ. eigenvalues --   -0.34263  -0.33936  -0.33540  -0.32709  -0.31828
 Alpha virt. eigenvalues --   -0.12694  -0.11736  -0.10450  -0.09816  -0.09034
 Alpha virt. eigenvalues --   -0.08729  -0.08179  -0.07797  -0.07347  -0.06505
 Alpha virt. eigenvalues --   -0.05025  -0.04017  -0.03217  -0.02573  -0.01868

 Mulliken charges:
               1
     1  N   -0.778253
     2  H    0.436988
     3  H    0.403909
     4  H    0.417617
     5  C   -0.280979
     6  H    0.232113
     7  H    0.255461
     8  C    0.660573
     9  O   -0.533030
    10  N   -0.585485
    11  H    0.378234
    12  C   -0.201122
    13  H    0.218595
    14  H    0.199479
    15  C    0.618434
    16  O   -0.533533
    17  N   -0.586646
    18  H    0.354425
    19  C   -0.236748
    20  H    0.204227
    21  H    0.202259
    22  C    0.591356
    23  O   -0.525472
    24  N   -0.565158
    25  H    0.370559
    26  C   -0.247317
    27  H    0.204878
    28  H    0.192993
    29  C    0.587519
    30  O   -0.502342
    31  N   -0.600091
    32  H    0.373963
    33  C   -0.264150
    34  H    0.226601
    35  H    0.191049
    36  C    0.611721
    37  O   -0.585576
    38  N   -0.604834
    39  H    0.418622
    40  C   -0.260051
    41  H    0.203408
    42  H    0.204520
    43  C    0.580609
    44  O   -0.452298
    45  N   -0.680033
    46  H    0.397637
    47  C   -0.247152
    48  H    0.192496
    49  H    0.199504
    50  C    0.629804
    51  O   -0.530663
    52  N   -0.580045
    53  H    0.357620
    54  C   -0.237886
    55  H    0.204233
    56  H    0.200861
    57  C    0.595212
    58  O   -0.512235
    59  N   -0.571536
    60  H    0.369307
    61  C   -0.234308
    62  H    0.206845
    63  H    0.194095
    64  C    0.595129
    65  O   -0.552883
    66  N   -0.575434
    67  H    0.388997
    68  C   -0.256502
    69  H    0.213677
    70  H    0.227282
    71  C    0.586048
    72  O   -0.442226
    73  O   -0.562174
    74  H    0.427302
 Sum of Mulliken charges =   1.00000

 Dipole moment (field-independent basis, Debye):
    X=             22.9150    Y=             -0.3002    Z=              5.8117  Tot=             23.6424
 Quadrupole moment (field-independent basis, Debye-Ang):
   XX=            -77.7862   YY=           -151.7441   ZZ=           -227.7980
   XY=             -5.2888   XZ=             19.3481   YZ=             12.9636

 Normal termination of Gaussian 16 at Sun Jul  3 18:10:14 2022.
