 Gaussian 16, Revision C.01,
 Gaussian 16:  ES64L-G16RevC.01  3-Jul-2019

 ----------------------------------------------------------------------
 # B3LYP/6-31G* empiricaldispersion=gd3 guess=read geom=check nosymm in
 tegral(ultrafinegrid)
 ----------------------------------------------------------------------

 ------------------------------------------------------
 Candidate Structure: Conf:242 Charge calc in gas phase
 ------------------------------------------------------
 Structure from the checkpoint file:  "conf-242.chk"
 Charge =  1 Multiplicity = 1

                          Input orientation:
 ---------------------------------------------------------------------
 Center     Atomic      Atomic             Coordinates (Angstroms)
 Number     Number       Type             X           Y           Z
 ---------------------------------------------------------------------
      1          7           0        1.711573   -0.062956   -2.119484
      2          1           0        2.296430    0.626424   -2.610718
      3          1           0        0.806078   -0.208069   -2.597594
      4          1           0        1.464137    0.409096   -1.231456
      5          6           0        2.409139   -1.365849   -1.849999
      6          1           0        2.892251   -1.708827   -2.763312
      7          1           0        3.160034   -1.215267   -1.073858
      8          6           0        1.344315   -2.397901   -1.456121
      9          8           0        1.154465   -3.397543   -2.125420
     10          7           0        0.581265   -2.054106   -0.361923
     11          1           0        0.809612   -1.176515    0.103467
     12          6           0       -0.828367   -2.392473   -0.396778
     13          1           0       -1.246439   -2.370587    0.614458
     14          1           0       -0.932289   -3.407423   -0.792116
     15          6           0       -1.561095   -1.417325   -1.343560
     16          8           0       -1.000502   -0.924960   -2.320240
     17          7           0       -2.847550   -1.109103   -1.030394
     18          1           0       -3.310403   -1.608075   -0.282426
     19          6           0       -3.639497   -0.260302   -1.917369
     20          1           0       -3.522603   -0.581975   -2.954448
     21          1           0       -4.693136   -0.357938   -1.641443
     22          6           0       -3.268742    1.231651   -1.889189
     23          8           0       -3.532443    1.950299   -2.836189
     24          7           0       -2.719384    1.699048   -0.715383
     25          1           0       -2.299232    0.999732   -0.117210
     26          6           0       -2.084640    2.995126   -0.721391
     27          1           0       -2.661724    3.648874   -1.383065
     28          1           0       -2.097622    3.432059    0.283864
     29          6           0       -0.641172    2.899370   -1.230792
     30          8           0       -0.146368    1.831792   -1.570020
     31          7           0        0.096406    4.053210   -1.252702
     32          1           0       -0.384708    4.941936   -1.186690
     33          6           0        1.388850    4.014542   -1.934328
     34          1           0        1.808414    5.025038   -1.940084
     35          1           0        1.288316    3.668943   -2.967117
     36          6           0        2.386388    3.068877   -1.253143
     37          8           0        3.139919    2.346982   -1.906214
     38          7           0        2.424367    3.134163    0.103559
     39          1           0        1.669662    3.619390    0.570453
     40          6           0        3.268597    2.254403    0.873578
     41          1           0        4.186614    2.082997    0.302049
     42          1           0        3.546135    2.741577    1.813700
     43          6           0        2.622768    0.887437    1.163738
     44          8           0        1.560659    0.537423    0.617383
     45          7           0        3.295268    0.116862    2.021282
     46          1           0        4.216056    0.386337    2.366254
     47          6           0        2.944551   -1.257324    2.330793
     48          1           0        2.087828   -1.302727    3.013930
     49          1           0        2.692156   -1.811481    1.420739
     50          6           0        4.183464   -1.904630    2.952593
     51          8           0        5.241568   -1.275998    3.035724
     52          7           0        4.031408   -3.176982    3.384118
     53          1           0        3.202661   -3.677136    3.083289
     54          6           0        5.208499   -4.007158    3.672534
     55          1           0        4.908074   -4.851893    4.292092
     56          1           0        5.936385   -3.392903    4.205821
     57          6           0        5.730726   -4.529261    2.327888
     58          8           0        5.416956   -5.629376    1.894822
     59          7           0        6.442105   -3.616986    1.597402
     60          1           0        6.473910   -2.665129    1.944533
     61          6           0        6.514172   -3.820841    0.163259
     62          1           0        7.087222   -4.726822   -0.052924
     63          1           0        7.039417   -2.970450   -0.281208
     64          6           0        5.100023   -3.903380   -0.445344
     65          8           0        4.206942   -3.112435   -0.109658
     66          7           0        4.933584   -4.868867   -1.365425
     67          1           0        5.642514   -5.586096   -1.481601
     68          6           0        3.646428   -5.187740   -1.947315
     69          1           0        3.321076   -4.442222   -2.679750
     70          1           0        2.861285   -5.213958   -1.184258
     71          6           0        3.749055   -6.538839   -2.627120
     72          8           0        4.761394   -7.203542   -2.677949
     73          8           0        2.575806   -6.900346   -3.170531
     74          1           0        2.709296   -7.770838   -3.592151
 ---------------------------------------------------------------------

 SCF Done:  E(RB3LYP) =  -2157.05717512     A.U. after    3 cycles

 Alpha  occ. eigenvalues --  -19.27695 -19.25640 -19.24364 -19.23879 -19.23725
 Alpha  occ. eigenvalues --  -19.23601 -19.22610 -19.22363 -19.20858 -19.20826
 Alpha  occ. eigenvalues --  -19.19992 -14.53412 -14.48876 -14.48855 -14.48489
 Alpha  occ. eigenvalues --  -14.48372 -14.47450 -14.46166 -14.45722 -14.44835
 Alpha  occ. eigenvalues --  -14.43979 -10.42286 -10.41264 -10.40982 -10.40633
 Alpha  occ. eigenvalues --  -10.40574 -10.40538 -10.40035 -10.38285 -10.37777
 Alpha  occ. eigenvalues --  -10.36958 -10.35541 -10.35195 -10.34871 -10.34596
 Alpha  occ. eigenvalues --  -10.34200 -10.33824 -10.33055 -10.32031 -10.31476
 Alpha  occ. eigenvalues --  -10.31318  -1.18824  -1.17284  -1.16595  -1.15846
 Alpha  occ. eigenvalues --   -1.15546  -1.15326  -1.14424  -1.12905  -1.12611
 Alpha  occ. eigenvalues --   -1.11499  -1.10000  -1.08904  -1.05318  -1.05234
 Alpha  occ. eigenvalues --   -1.04138  -1.03911  -1.03519  -1.02954  -1.01915
 Alpha  occ. eigenvalues --   -1.01205  -1.00370  -0.89103  -0.87391  -0.86728
 Alpha  occ. eigenvalues --   -0.85357  -0.84595  -0.83581  -0.81828  -0.80743
 Alpha  occ. eigenvalues --   -0.79308  -0.78258  -0.72449  -0.71653  -0.70947
 Alpha  occ. eigenvalues --   -0.70702  -0.70555  -0.69960  -0.69330  -0.68376
 Alpha  occ. eigenvalues --   -0.67922  -0.67456  -0.67141  -0.66772  -0.66062
 Alpha  occ. eigenvalues --   -0.65303  -0.64170  -0.62913  -0.62371  -0.62252
 Alpha  occ. eigenvalues --   -0.61303  -0.60798  -0.60651  -0.59943  -0.59563
 Alpha  occ. eigenvalues --   -0.59107  -0.58880  -0.58062  -0.57480  -0.57078
 Alpha  occ. eigenvalues --   -0.56842  -0.56554  -0.56478  -0.56371  -0.56073
 Alpha  occ. eigenvalues --   -0.55550  -0.54619  -0.54501  -0.54441  -0.54245
 Alpha  occ. eigenvalues --   -0.53941  -0.53635  -0.53277  -0.52847  -0.52262
 Alpha  occ. eigenvalues --   -0.52119  -0.51811  -0.50965  -0.50864  -0.50714
 Alpha  occ. eigenvalues --   -0.49974  -0.49694  -0.49549  -0.49182  -0.49039
 Alpha  occ. eigenvalues --   -0.48955  -0.47944  -0.47687  -0.47554  -0.47470
 Alpha  occ. eigenvalues --   -0.47111  -0.46484  -0.45810  -0.45746  -0.44154
 Alpha  occ. eigenvalues --   -0.40644  -0.39942  -0.39659  -0.39192  -0.39030
 Alpha  occ. eigenvalues --   -0.38630  -0.38335  -0.38042  -0.37918  -0.37380
 Alpha  occ. eigenvalues --   -0.37116  -0.36665  -0.36518  -0.35776  -0.35655
 Alpha  occ. eigenvalues --   -0.35416  -0.34713  -0.34007  -0.33629  -0.32695
 Alpha virt. eigenvalues --   -0.11191  -0.10938  -0.10269  -0.10108  -0.09652
 Alpha virt. eigenvalues --   -0.08586  -0.07398  -0.07282  -0.06750  -0.05640
 Alpha virt. eigenvalues --   -0.04369  -0.03712  -0.02514  -0.01828  -0.01065

 Mulliken charges:
               1
     1  N   -0.815626
     2  H    0.421066
     3  H    0.445279
     4  H    0.468008
     5  C   -0.277816
     6  H    0.216710
     7  H    0.235148
     8  C    0.612132
     9  O   -0.480136
    10  N   -0.606871
    11  H    0.376070
    12  C   -0.261680
    13  H    0.168350
    14  H    0.234979
    15  C    0.624621
    16  O   -0.517680
    17  N   -0.617426
    18  H    0.350584
    19  C   -0.228841
    20  H    0.223633
    21  H    0.200850
    22  C    0.611210
    23  O   -0.488003
    24  N   -0.560970
    25  H    0.330851
    26  C   -0.258669
    27  H    0.226524
    28  H    0.186181
    29  C    0.617902
    30  O   -0.522231
    31  N   -0.615963
    32  H    0.354253
    33  C   -0.222685
    34  H    0.202010
    35  H    0.205987
    36  C    0.616393
    37  O   -0.553900
    38  N   -0.550016
    39  H    0.348565
    40  C   -0.256257
    41  H    0.228767
    42  H    0.200538
    43  C    0.616831
    44  O   -0.567489
    45  N   -0.586481
    46  H    0.374767
    47  C   -0.223701
    48  H    0.194076
    49  H    0.229329
    50  C    0.623560
    51  O   -0.539641
    52  N   -0.578390
    53  H    0.352408
    54  C   -0.246090
    55  H    0.200480
    56  H    0.207416
    57  C    0.588259
    58  O   -0.499570
    59  N   -0.568140
    60  H    0.362483
    61  C   -0.234963
    62  H    0.191774
    63  H    0.183946
    64  C    0.627349
    65  O   -0.580608
    66  N   -0.591222
    67  H    0.369197
    68  C   -0.189185
    69  H    0.210091
    70  H    0.212103
    71  C    0.567892
    72  O   -0.453199
    73  O   -0.551994
    74  H    0.426870
 Sum of Mulliken charges =   1.00000

 Dipole moment (field-independent basis, Debye):
    X=              5.4168    Y=              2.3826    Z=              2.5641  Tot=              6.4493
 Quadrupole moment (field-independent basis, Debye-Ang):
   XX=           -187.0351   YY=           -174.4768   ZZ=           -215.6065
   XY=              7.5683   XZ=             -3.7963   YZ=              3.3956

 Normal termination of Gaussian 16 at Sun Jul  3 18:10:49 2022.
