 Gaussian 16, Revision C.01,
 Gaussian 16:  ES64L-G16RevC.01  3-Jul-2019

 ----------------------------------------------------------------------
 # B3LYP/6-31G* empiricaldispersion=gd3 guess=read geom=check nosymm in
 tegral(ultrafinegrid)
 ----------------------------------------------------------------------

 ------------------------------------------------------
 Candidate Structure: Conf:549 Charge calc in gas phase
 ------------------------------------------------------
 Structure from the checkpoint file:  "conf-549.chk"
 Charge =  1 Multiplicity = 1

                          Input orientation:
 ---------------------------------------------------------------------
 Center     Atomic      Atomic             Coordinates (Angstroms)
 Number     Number       Type             X           Y           Z
 ---------------------------------------------------------------------
      1          7           0        0.386983   -2.474632    5.091652
      2          1           0       -0.209428   -2.395775    5.917725
      3          1           0        0.007303   -3.265212    4.445993
      4          1           0        1.350272   -2.737282    5.376272
      5          6           0        0.529880   -1.183942    4.347940
      6          1           0        0.156673   -1.331517    3.330045
      7          1           0       -0.060193   -0.401233    4.828423
      8          6           0        2.037234   -0.856027    4.325933
      9          8           0        2.838147   -1.750957    4.629768
     10          7           0        2.378002    0.384153    3.977886
     11          1           0        1.690158    1.082544    3.708625
     12          6           0        3.768927    0.808512    3.879861
     13          1           0        4.380229   -0.051632    3.611015
     14          1           0        4.115203    1.201113    4.844498
     15          6           0        3.839625    1.923301    2.839152
     16          8           0        2.908055    2.719460    2.718514
     17          7           0        4.985304    1.974817    2.116591
     18          1           0        5.510852    1.112528    2.051469
     19          6           0        5.095440    2.882958    0.976053
     20          1           0        4.815309    3.887858    1.299105
     21          1           0        6.131472    2.892237    0.635035
     22          6           0        4.207937    2.376858   -0.169073
     23          8           0        4.595650    1.505283   -0.958189
     24          7           0        2.962271    2.895509   -0.201197
     25          1           0        2.668719    3.433394    0.606726
     26          6           0        1.945941    2.445578   -1.136916
     27          1           0        1.230106    3.250037   -1.315356
     28          1           0        2.436002    2.212850   -2.087535
     29          6           0        1.147135    1.198167   -0.739668
     30          8           0        0.066962    0.975587   -1.278133
     31          7           0        1.711127    0.358474    0.175837
     32          1           0        2.696196    0.447687    0.397849
     33          6           0        1.180999   -0.993194    0.320787
     34          1           0        0.090923   -0.947070    0.380311
     35          1           0        1.592244   -1.427188    1.232982
     36          6           0        1.631837   -1.882790   -0.843007
     37          8           0        2.607814   -2.633471   -0.723954
     38          7           0        0.950439   -1.732228   -1.994272
     39          1           0        0.162176   -1.094707   -2.008652
     40          6           0        1.239629   -2.543778   -3.175121
     41          1           0        0.808900   -2.058363   -4.050620
     42          1           0        2.324724   -2.623972   -3.290202
     43          6           0        0.582352   -3.922411   -3.008387
     44          8           0       -0.492375   -4.197210   -3.517417
     45          7           0        1.289777   -4.778476   -2.197559
     46          1           0        2.040289   -4.359112   -1.651560
     47          6           0        0.583614   -5.857271   -1.557369
     48          1           0       -0.205585   -6.202045   -2.233675
     49          1           0        1.263194   -6.693270   -1.358535
     50          6           0       -0.044766   -5.383829   -0.241776
     51          8           0       -0.129889   -4.205532    0.084782
     52          7           0       -0.453206   -6.374934    0.618049
     53          1           0       -0.501164   -7.335342    0.305924
     54          6           0       -1.066896   -5.991503    1.875997
     55          1           0       -1.315413   -6.893115    2.444145
     56          1           0       -1.980530   -5.407622    1.729567
     57          6           0       -0.128503   -5.110520    2.702432
     58          8           0       -0.615553   -4.242243    3.455667
     59          7           0        1.181884   -5.357139    2.576042
     60          1           0        1.460445   -5.978036    1.816935
     61          6           0        2.199903   -4.385139    2.900172
     62          1           0        2.693240   -4.596027    3.856785
     63          1           0        1.748907   -3.393119    2.967697
     64          6           0        3.235987   -4.364165    1.758182
     65          8           0        3.174394   -5.172308    0.839411
     66          7           0        4.177339   -3.400991    1.907941
     67          1           0        4.038498   -2.727389    2.654506
     68          6           0        5.032598   -2.973590    0.818486
     69          1           0        4.798735   -3.557850   -0.070838
     70          1           0        6.093986   -3.122668    1.057636
     71          6           0        4.809162   -1.498767    0.529000
     72          8           0        4.215735   -0.752944    1.310082
     73          8           0        5.373199   -1.097837   -0.590560
     74          1           0        5.188510   -0.129285   -0.734757
 ---------------------------------------------------------------------

 SCF Done:  E(RB3LYP) =  -2157.07598888     A.U. after    3 cycles

 Alpha  occ. eigenvalues --  -19.28615 -19.27498 -19.25715 -19.24768 -19.24745
 Alpha  occ. eigenvalues --  -19.23631 -19.22520 -19.21911 -19.21197 -19.20738
 Alpha  occ. eigenvalues --  -19.18213 -14.57086 -14.51151 -14.48644 -14.47808
 Alpha  occ. eigenvalues --  -14.47573 -14.46907 -14.46380 -14.45703 -14.44737
 Alpha  occ. eigenvalues --  -14.42065 -10.44720 -10.42951 -10.41892 -10.41674
 Alpha  occ. eigenvalues --  -10.40603 -10.40199 -10.39824 -10.38573 -10.38546
 Alpha  occ. eigenvalues --  -10.37695 -10.35580 -10.35312 -10.34719 -10.34377
 Alpha  occ. eigenvalues --  -10.34169 -10.32779 -10.32707 -10.32367 -10.30798
 Alpha  occ. eigenvalues --  -10.30181  -1.20635  -1.19526  -1.16845  -1.16663
 Alpha  occ. eigenvalues --   -1.15127  -1.14312  -1.13862  -1.13351  -1.12285
 Alpha  occ. eigenvalues --   -1.11972  -1.11608  -1.10016  -1.07250  -1.05116
 Alpha  occ. eigenvalues --   -1.04952  -1.03844  -1.02999  -1.02408  -1.01802
 Alpha  occ. eigenvalues --   -1.00684  -0.98958  -0.90627  -0.87942  -0.87452
 Alpha  occ. eigenvalues --   -0.85374  -0.85122  -0.83458  -0.82074  -0.81016
 Alpha  occ. eigenvalues --   -0.79514  -0.77158  -0.73803  -0.73027  -0.72811
 Alpha  occ. eigenvalues --   -0.72053  -0.71344  -0.70263  -0.69668  -0.69528
 Alpha  occ. eigenvalues --   -0.68758  -0.68382  -0.67265  -0.67107  -0.65027
 Alpha  occ. eigenvalues --   -0.64724  -0.64527  -0.63597  -0.63035  -0.62598
 Alpha  occ. eigenvalues --   -0.61813  -0.61574  -0.60798  -0.60408  -0.60160
 Alpha  occ. eigenvalues --   -0.59802  -0.59503  -0.59158  -0.58575  -0.58255
 Alpha  occ. eigenvalues --   -0.57924  -0.57634  -0.57434  -0.56477  -0.56095
 Alpha  occ. eigenvalues --   -0.55524  -0.55109  -0.54825  -0.54572  -0.54113
 Alpha  occ. eigenvalues --   -0.53967  -0.53213  -0.52952  -0.52790  -0.52658
 Alpha  occ. eigenvalues --   -0.52004  -0.51822  -0.51220  -0.50896  -0.50706
 Alpha  occ. eigenvalues --   -0.50362  -0.50127  -0.49736  -0.49550  -0.49228
 Alpha  occ. eigenvalues --   -0.48827  -0.48498  -0.47743  -0.47343  -0.46926
 Alpha  occ. eigenvalues --   -0.46396  -0.45822  -0.45695  -0.44739  -0.43962
 Alpha  occ. eigenvalues --   -0.42359  -0.42149  -0.40714  -0.40365  -0.40354
 Alpha  occ. eigenvalues --   -0.39422  -0.38943  -0.38576  -0.38271  -0.37489
 Alpha  occ. eigenvalues --   -0.36722  -0.36593  -0.36098  -0.35847  -0.35646
 Alpha  occ. eigenvalues --   -0.35309  -0.34282  -0.33421  -0.32587  -0.30881
 Alpha virt. eigenvalues --   -0.13164  -0.11238  -0.10447  -0.09908  -0.09666
 Alpha virt. eigenvalues --   -0.09350  -0.08329  -0.08077  -0.07326  -0.06621
 Alpha virt. eigenvalues --   -0.05379  -0.04441  -0.04241  -0.02712  -0.02187

 Mulliken charges:
               1
     1  N   -0.786321
     2  H    0.404662
     3  H    0.462956
     4  H    0.413375
     5  C   -0.269971
     6  H    0.250928
     7  H    0.226407
     8  C    0.630387
     9  O   -0.535631
    10  N   -0.593949
    11  H    0.372114
    12  C   -0.200121
    13  H    0.208995
    14  H    0.215776
    15  C    0.608447
    16  O   -0.533961
    17  N   -0.566314
    18  H    0.354078
    19  C   -0.244842
    20  H    0.204622
    21  H    0.207454
    22  C    0.595284
    23  O   -0.551999
    24  N   -0.559560
    25  H    0.373117
    26  C   -0.244177
    27  H    0.207976
    28  H    0.227173
    29  C    0.597242
    30  O   -0.514972
    31  N   -0.616997
    32  H    0.388776
    33  C   -0.244480
    34  H    0.197062
    35  H    0.155929
    36  C    0.637192
    37  O   -0.559974
    38  N   -0.572361
    39  H    0.376744
    40  C   -0.243249
    41  H    0.194445
    42  H    0.191574
    43  C    0.592088
    44  O   -0.492260
    45  N   -0.576009
    46  H    0.378485
    47  C   -0.255382
    48  H    0.221707
    49  H    0.183623
    50  C    0.618336
    51  O   -0.515987
    52  N   -0.624574
    53  H    0.352498
    54  C   -0.204900
    55  H    0.199105
    56  H    0.215332
    57  C    0.627409
    58  O   -0.590258
    59  N   -0.551609
    60  H    0.375536
    61  C   -0.232710
    62  H    0.197277
    63  H    0.154300
    64  C    0.632933
    65  O   -0.518297
    66  N   -0.599763
    67  H    0.354814
    68  C   -0.210785
    69  H    0.248127
    70  H    0.198575
    71  C    0.616093
    72  O   -0.555696
    73  O   -0.563990
    74  H    0.462144
 Sum of Mulliken charges =   1.00000

 Dipole moment (field-independent basis, Debye):
    X=              9.8342    Y=             -7.6239    Z=             18.4267  Tot=             22.2346
 Quadrupole moment (field-independent basis, Debye-Ang):
   XX=           -189.6042   YY=           -148.6909   ZZ=           -157.0553
   XY=             16.7038   XZ=             13.3829   YZ=            -39.5893

 Normal termination of Gaussian 16 at Sun Jul  3 18:10:53 2022.
