 Gaussian 16, Revision C.01,
 Gaussian 16:  ES64L-G16RevC.01  3-Jul-2019

 ----------------------------------------------------------------------
 # B3LYP/6-31G* empiricaldispersion=gd3 guess=read geom=check nosymm in
 tegral(ultrafinegrid)
 ----------------------------------------------------------------------

 ------------------------------------------------------
 Candidate Structure: Conf:796 Charge calc in gas phase
 ------------------------------------------------------
 Structure from the checkpoint file:  "conf-796.chk"
 Charge =  1 Multiplicity = 1

                          Input orientation:
 ---------------------------------------------------------------------
 Center     Atomic      Atomic             Coordinates (Angstroms)
 Number     Number       Type             X           Y           Z
 ---------------------------------------------------------------------
      1          7           0        1.788391   14.716026   -1.627840
      2          1           0        1.016368   15.251785   -2.033478
      3          1           0        1.589784   14.508683   -0.590487
      4          1           0        2.646849   15.266065   -1.718033
      5          6           0        1.906176   13.318168   -2.172471
      6          1           0        1.148609   13.154472   -2.940823
      7          1           0        2.896753   13.171210   -2.606312
      8          6           0        1.675482   12.423975   -0.923396
      9          8           0        1.462289   13.008430    0.150579
     10          7           0        1.725820   11.118591   -1.110240
     11          1           0        1.907136   10.673630   -2.017178
     12          6           0        1.536891   10.131229   -0.058349
     13          1           0        0.543716   10.232316    0.393080
     14          1           0        2.281485   10.263766    0.734313
     15          6           0        1.697271    8.762732   -0.752284
     16          8           0        1.929360    8.717770   -1.963924
     17          7           0        1.567598    7.696438    0.040473
     18          1           0        1.383445    7.760392    1.041540
     19          6           0        1.696107    6.333708   -0.436143
     20          1           0        0.937788    6.114062   -1.197503
     21          1           0        2.677553    6.175279   -0.899153
     22          6           0        1.516908    5.420991    0.788214
     23          8           0        1.297604    5.900409    1.901581
     24          7           0        1.615652    4.104647    0.543446
     25          1           0        1.824287    3.728138   -0.377305
     26          6           0        1.504985    3.113821    1.592927
     27          1           0        2.203639    3.337690    2.407888
     28          1           0        0.496686    3.114826    2.026780
     29          6           0        1.813214    1.741574    0.984961
     30          8           0        2.022566    1.644459   -0.236093
     31          7           0        1.823444    0.724094    1.845429
     32          1           0        1.600331    0.848366    2.831860
     33          6           0        2.088554   -0.654632    1.479038
     34          1           0        3.132805   -0.786109    1.175975
     35          1           0        1.470980   -0.959787    0.628902
     36          6           0        1.776277   -1.516301    2.709323
     37          8           0        1.445120   -0.999226    3.778685
     38          7           0        1.904175   -2.841749    2.507761
     39          1           0        2.154485   -3.178015    1.572514
     40          6           0        1.616316   -3.796474    3.549816
     41          1           0        2.517831   -4.047063    4.128533
     42          1           0        0.904648   -3.344236    4.251206
     43          6           0        0.999487   -5.056582    2.945744
     44          8           0        0.332136   -5.030515    1.914375
     45          7           0        1.260701   -6.220757    3.605737
     46          1           0        1.756049   -6.187936    4.486590
     47          6           0        0.598859   -7.460677    3.210309
     48          1           0        0.817068   -8.223029    3.963053
     49          1           0       -0.484912   -7.322243    3.167941
     50          6           0        1.000891   -8.008910    1.829754
     51          8           0        0.263889   -8.790254    1.250709
     52          7           0        2.206642   -7.588202    1.344734
     53          1           0        2.713056   -6.892706    1.874771
     54          6           0        2.626246   -7.846943   -0.020428
     55          1           0        2.003027   -8.661613   -0.401479
     56          1           0        3.670412   -8.167987   -0.056714
     57          6           0        2.490424   -6.639096   -0.956888
     58          8           0        3.216468   -6.504668   -1.937673
     59          7           0        1.505301   -5.752291   -0.651751
     60          1           0        1.002723   -5.794214    0.228650
     61          6           0        1.378050   -4.553265   -1.447287
     62          1           0        0.476282   -4.024275   -1.126140
     63          1           0        1.273988   -4.816553   -2.504493
     64          6           0        2.562248   -3.609619   -1.224496
     65          8           0        2.891828   -3.239443   -0.090310
     66          7           0        3.205728   -3.158950   -2.318155
     67          1           0        3.034300   -3.606548   -3.206820
     68          6           0        4.320926   -2.238513   -2.178804
     69          1           0        4.681561   -1.983706   -3.179925
     70          1           0        5.142480   -2.690561   -1.616260
     71          6           0        3.950127   -0.942689   -1.454500
     72          8           0        4.729052   -0.355855   -0.732361
     73          8           0        2.709652   -0.530410   -1.735110
     74          1           0        2.523982    0.288466   -1.200582
 ---------------------------------------------------------------------

 SCF Done:  E(RB3LYP) =  -2157.02019883     A.U. after    1 cycles

 Alpha  occ. eigenvalues --  -19.28752 -19.22846 -19.22186 -19.20472 -19.20286
 Alpha  occ. eigenvalues --  -19.19376 -19.18223 -19.17569 -19.17390 -19.16198
 Alpha  occ. eigenvalues --  -19.15581 -14.62229 -14.51108 -14.46271 -14.44286
 Alpha  occ. eigenvalues --  -14.44172 -14.43372 -14.42585 -14.41439 -14.40950
 Alpha  occ. eigenvalues --  -14.40023 -10.45552 -10.42676 -10.40091 -10.37569
 Alpha  occ. eigenvalues --  -10.37211 -10.36561 -10.36067 -10.35526 -10.34913
 Alpha  occ. eigenvalues --  -10.34679 -10.33998 -10.32842 -10.32232 -10.30876
 Alpha  occ. eigenvalues --  -10.29519 -10.29285 -10.28584 -10.28497 -10.28221
 Alpha  occ. eigenvalues --  -10.27208  -1.21224  -1.15839  -1.14802  -1.13794
 Alpha  occ. eigenvalues --   -1.12420  -1.11588  -1.11453  -1.09941  -1.09293
 Alpha  occ. eigenvalues --   -1.08433  -1.07634  -1.07422  -1.04838  -1.02780
 Alpha  occ. eigenvalues --   -1.00638  -1.00066  -0.99877  -0.98596  -0.97957
 Alpha  occ. eigenvalues --   -0.97727  -0.95997  -0.92131  -0.86799  -0.84239
 Alpha  occ. eigenvalues --   -0.82953  -0.81559  -0.80939  -0.78994  -0.77434
 Alpha  occ. eigenvalues --   -0.76137  -0.75977  -0.75534  -0.74144  -0.73550
 Alpha  occ. eigenvalues --   -0.69696  -0.68192  -0.67585  -0.67380  -0.66778
 Alpha  occ. eigenvalues --   -0.66095  -0.64950  -0.64546  -0.63843  -0.63779
 Alpha  occ. eigenvalues --   -0.63116  -0.62717  -0.62621  -0.61111  -0.59997
 Alpha  occ. eigenvalues --   -0.59654  -0.59442  -0.58474  -0.58010  -0.56830
 Alpha  occ. eigenvalues --   -0.56738  -0.56020  -0.55774  -0.55555  -0.55028
 Alpha  occ. eigenvalues --   -0.54899  -0.54688  -0.54234  -0.53156  -0.52947
 Alpha  occ. eigenvalues --   -0.52878  -0.52372  -0.52010  -0.51962  -0.51028
 Alpha  occ. eigenvalues --   -0.50798  -0.50255  -0.50121  -0.49560  -0.49129
 Alpha  occ. eigenvalues --   -0.49045  -0.48182  -0.48025  -0.47892  -0.47637
 Alpha  occ. eigenvalues --   -0.47131  -0.46807  -0.46563  -0.45881  -0.45526
 Alpha  occ. eigenvalues --   -0.44977  -0.44855  -0.44037  -0.43844  -0.43776
 Alpha  occ. eigenvalues --   -0.43245  -0.42164  -0.42086  -0.41719  -0.41205
 Alpha  occ. eigenvalues --   -0.41015  -0.40141  -0.37498  -0.36167  -0.35506
 Alpha  occ. eigenvalues --   -0.35209  -0.34686  -0.34225  -0.34106  -0.33457
 Alpha  occ. eigenvalues --   -0.33117  -0.32864  -0.32713  -0.32161  -0.31782
 Alpha  occ. eigenvalues --   -0.30920  -0.30548  -0.29801  -0.29481  -0.28485
 Alpha virt. eigenvalues --   -0.13776  -0.13416  -0.08435  -0.07761  -0.06381
 Alpha virt. eigenvalues --   -0.05947  -0.05713  -0.04976  -0.04244  -0.03107
 Alpha virt. eigenvalues --   -0.03023  -0.02872  -0.02668  -0.01956  -0.01711

 Mulliken charges:
               1
     1  N   -0.750676
     2  H    0.424185
     3  H    0.440981
     4  H    0.424231
     5  C   -0.277109
     6  H    0.250271
     7  H    0.250298
     8  C    0.640283
     9  O   -0.523357
    10  N   -0.604094
    11  H    0.381073
    12  C   -0.212335
    13  H    0.216425
    14  H    0.216358
    15  C    0.620547
    16  O   -0.533865
    17  N   -0.620808
    18  H    0.369115
    19  C   -0.200905
    20  H    0.202130
    21  H    0.203201
    22  C    0.613167
    23  O   -0.530762
    24  N   -0.622498
    25  H    0.365476
    26  C   -0.197237
    27  H    0.204315
    28  H    0.201849
    29  C    0.637763
    30  O   -0.570413
    31  N   -0.611456
    32  H    0.366419
    33  C   -0.232264
    34  H    0.235023
    35  H    0.197807
    36  C    0.588168
    37  O   -0.540237
    38  N   -0.622517
    39  H    0.395870
    40  C   -0.202882
    41  H    0.164932
    42  H    0.218977
    43  C    0.586377
    44  O   -0.516354
    45  N   -0.613817
    46  H    0.346136
    47  C   -0.225575
    48  H    0.191243
    49  H    0.212525
    50  C    0.599814
    51  O   -0.496280
    52  N   -0.597904
    53  H    0.333041
    54  C   -0.229395
    55  H    0.225479
    56  H    0.186054
    57  C    0.588344
    58  O   -0.530872
    59  N   -0.603860
    60  H    0.402368
    61  C   -0.231186
    62  H    0.190220
    63  H    0.173742
    64  C    0.646810
    65  O   -0.553018
    66  N   -0.564571
    67  H    0.353756
    68  C   -0.207756
    69  H    0.183737
    70  H    0.204636
    71  C    0.598319
    72  O   -0.482975
    73  O   -0.607253
    74  H    0.462765
 Sum of Mulliken charges =   1.00000

 Dipole moment (field-independent basis, Debye):
    X=              9.1738    Y=             52.6089    Z=             -4.2823  Tot=             53.5742
 Quadrupole moment (field-independent basis, Debye-Ang):
   XX=           -221.5588   YY=            563.7766   ZZ=           -194.5530
   XY=             83.7835   XZ=             -4.8007   YZ=           -146.8207

 Normal termination of Gaussian 16 at Sun Jul  3 18:10:05 2022.
