 Gaussian 16, Revision C.01,
 Gaussian 16:  ES64L-G16RevC.01  3-Jul-2019

 ----------------------------------------------------------------------
 # B3LYP/6-31G* empiricaldispersion=gd3 guess=read geom=check nosymm in
 tegral(ultrafinegrid)
 ----------------------------------------------------------------------

 ------------------------------------------------------
 Candidate Structure: Conf:684 Charge calc in gas phase
 ------------------------------------------------------
 Structure from the checkpoint file:  "conf-684.chk"
 Charge =  1 Multiplicity = 1

                          Input orientation:
 ---------------------------------------------------------------------
 Center     Atomic      Atomic             Coordinates (Angstroms)
 Number     Number       Type             X           Y           Z
 ---------------------------------------------------------------------
      1          7           0       -2.551049    0.538843   -2.352761
      2          1           0       -1.640303    0.280112   -2.809005
      3          1           0       -2.464095    0.350459   -1.334230
      4          1           0       -3.301184   -0.076281   -2.705201
      5          6           0       -2.981053    1.934700   -2.625653
      6          1           0       -2.554501    2.584420   -1.864473
      7          1           0       -2.610498    2.227819   -3.613119
      8          6           0       -4.513614    1.932875   -2.625040
      9          8           0       -5.108071    0.867404   -2.814348
     10          7           0       -5.122411    3.122722   -2.447503
     11          1           0       -4.562992    3.863518   -2.040448
     12          6           0       -6.557077    3.179951   -2.126388
     13          1           0       -7.081169    2.471234   -2.770697
     14          1           0       -6.922494    4.189926   -2.310480
     15          6           0       -6.704218    2.855795   -0.629850
     16          8           0       -6.798310    3.730813    0.213349
     17          7           0       -6.607351    1.513861   -0.335406
     18          1           0       -6.361151    0.906880   -1.110720
     19          6           0       -6.088371    1.134894    0.956548
     20          1           0       -6.542860    1.780976    1.714490
     21          1           0       -6.361206    0.098826    1.183622
     22          6           0       -4.560601    1.324028    1.019136
     23          8           0       -3.937145    1.987858    0.191464
     24          7           0       -3.937500    0.745305    2.078045
     25          1           0       -4.448107    0.121505    2.686680
     26          6           0       -2.517163    0.910790    2.270674
     27          1           0       -2.279283    1.976746    2.374423
     28          1           0       -2.227149    0.410682    3.199842
     29          6           0       -1.688511    0.334297    1.109772
     30          8           0       -2.166697   -0.414521    0.257955
     31          7           0       -0.380364    0.692696    1.128220
     32          1           0       -0.074362    1.385474    1.799333
     33          6           0        0.552384    0.297255    0.093836
     34          1           0        0.129831   -0.572441   -0.419480
     35          1           0        1.501951   -0.001660    0.549811
     36          6           0        0.741919    1.401802   -0.954005
     37          8           0       -0.212743    2.063554   -1.369013
     38          7           0        2.013332    1.589229   -1.381427
     39          1           0        2.731832    0.937123   -1.095976
     40          6           0        2.331478    2.507578   -2.474808
     41          1           0        1.795482    3.445351   -2.308796
     42          1           0        3.405250    2.696384   -2.472179
     43          6           0        1.950654    1.845115   -3.803307
     44          8           0        2.725591    1.093403   -4.388471
     45          7           0        0.678827    2.095372   -4.221572
     46          1           0        0.056803    2.465396   -3.510465
     47          6           0        0.106917    1.243649   -5.254978
     48          1           0       -0.905158    1.595607   -5.476861
     49          1           0        0.708555    1.323398   -6.163923
     50          6           0        0.063448   -0.208296   -4.751369
     51          8           0       -0.350567   -0.470434   -3.603261
     52          7           0        0.546107   -1.120902   -5.594599
     53          1           0        1.029138   -0.780239   -6.434411
     54          6           0        0.919999   -2.476874   -5.191201
     55          1           0        0.276579   -3.228905   -5.652295
     56          1           0        0.836225   -2.551385   -4.102851
     57          6           0        2.355759   -2.722139   -5.689864
     58          8           0        2.647834   -3.703756   -6.348443
     59          7           0        3.242142   -1.709545   -5.383644
     60          1           0        2.854594   -0.879472   -4.943691
     61          6           0        4.256990   -1.390205   -6.361298
     62          1           0        4.634984   -2.322838   -6.790391
     63          1           0        5.092992   -0.867232   -5.885381
     64          6           0        3.661979   -0.513998   -7.485360
     65          8           0        2.451667   -0.271462   -7.578518
     66          7           0        4.553203   -0.033080   -8.370596
     67          1           0        5.541793   -0.251872   -8.303967
     68          6           0        4.152005    0.758237   -9.514404
     69          1           0        3.657044    1.686075   -9.203361
     70          1           0        3.434024    0.216524  -10.141928
     71          6           0        5.384885    1.094356  -10.330895
     72          8           0        6.509337    0.742875  -10.047420
     73          8           0        5.064478    1.831632  -11.405974
     74          1           0        5.890268    2.011259  -11.895099
 ---------------------------------------------------------------------

 SCF Done:  E(RB3LYP) =  -2157.06199349     A.U. after    1 cycles

 Alpha  occ. eigenvalues --  -19.28090 -19.24810 -19.24394 -19.24311 -19.23462
 Alpha  occ. eigenvalues --  -19.23370 -19.22908 -19.22763 -19.21149 -19.20296
 Alpha  occ. eigenvalues --  -19.19395 -14.52689 -14.49590 -14.49220 -14.48003
 Alpha  occ. eigenvalues --  -14.47686 -14.47293 -14.46200 -14.45000 -14.44291
 Alpha  occ. eigenvalues --  -14.42761 -10.41897 -10.41734 -10.41416 -10.40967
 Alpha  occ. eigenvalues --  -10.40244 -10.40001 -10.39767 -10.37789 -10.37444
 Alpha  occ. eigenvalues --  -10.36539 -10.36178 -10.35570 -10.35182 -10.34660
 Alpha  occ. eigenvalues --  -10.33987 -10.32587 -10.32435 -10.32040 -10.31317
 Alpha  occ. eigenvalues --  -10.30869  -1.19202  -1.16976  -1.16460  -1.16200
 Alpha  occ. eigenvalues --   -1.15350  -1.14566  -1.14285  -1.12727  -1.12160
 Alpha  occ. eigenvalues --   -1.11137  -1.10411  -1.08230  -1.05320  -1.05197
 Alpha  occ. eigenvalues --   -1.04156  -1.03718  -1.03601  -1.03099  -1.01322
 Alpha  occ. eigenvalues --   -1.01043  -0.99524  -0.89225  -0.87225  -0.86896
 Alpha  occ. eigenvalues --   -0.85378  -0.84595  -0.83239  -0.81725  -0.80389
 Alpha  occ. eigenvalues --   -0.78683  -0.77827  -0.72618  -0.71800  -0.70631
 Alpha  occ. eigenvalues --   -0.70561  -0.70019  -0.69883  -0.69138  -0.68446
 Alpha  occ. eigenvalues --   -0.67739  -0.67264  -0.66978  -0.66342  -0.65780
 Alpha  occ. eigenvalues --   -0.64318  -0.64254  -0.63362  -0.62688  -0.62296
 Alpha  occ. eigenvalues --   -0.61026  -0.60790  -0.60436  -0.59594  -0.59286
 Alpha  occ. eigenvalues --   -0.58993  -0.58215  -0.57643  -0.57377  -0.57085
 Alpha  occ. eigenvalues --   -0.56859  -0.56752  -0.56454  -0.55783  -0.55478
 Alpha  occ. eigenvalues --   -0.55363  -0.55041  -0.54644  -0.54453  -0.53928
 Alpha  occ. eigenvalues --   -0.53896  -0.52933  -0.52626  -0.52305  -0.51992
 Alpha  occ. eigenvalues --   -0.51587  -0.51436  -0.51280  -0.51099  -0.50277
 Alpha  occ. eigenvalues --   -0.50150  -0.49979  -0.49372  -0.49310  -0.49014
 Alpha  occ. eigenvalues --   -0.48738  -0.48644  -0.48055  -0.47266  -0.47173
 Alpha  occ. eigenvalues --   -0.46737  -0.46048  -0.45839  -0.44488  -0.44189
 Alpha  occ. eigenvalues --   -0.40711  -0.40347  -0.39873  -0.39315  -0.39219
 Alpha  occ. eigenvalues --   -0.38938  -0.38333  -0.37674  -0.37391  -0.37234
 Alpha  occ. eigenvalues --   -0.36961  -0.36854  -0.36693  -0.35526  -0.35340
 Alpha  occ. eigenvalues --   -0.34642  -0.34511  -0.33186  -0.33129  -0.32558
 Alpha virt. eigenvalues --   -0.11628  -0.11254  -0.10512  -0.09873  -0.08790
 Alpha virt. eigenvalues --   -0.08561  -0.07460  -0.06531  -0.06296  -0.05852
 Alpha virt. eigenvalues --   -0.04679  -0.03598  -0.03123  -0.02874  -0.01717

 Mulliken charges:
               1
     1  N   -0.810309
     2  H    0.435510
     3  H    0.456374
     4  H    0.397479
     5  C   -0.258180
     6  H    0.245334
     7  H    0.196948
     8  C    0.640793
     9  O   -0.538831
    10  N   -0.563662
    11  H    0.356347
    12  C   -0.252653
    13  H    0.207942
    14  H    0.203167
    15  C    0.590214
    16  O   -0.484378
    17  N   -0.567598
    18  H    0.360655
    19  C   -0.261489
    20  H    0.230678
    21  H    0.181521
    22  C    0.631994
    23  O   -0.551439
    24  N   -0.576349
    25  H    0.353326
    26  C   -0.237694
    27  H    0.201592
    28  H    0.203090
    29  C    0.643889
    30  O   -0.544965
    31  N   -0.564385
    32  H    0.350528
    33  C   -0.256438
    34  H    0.235555
    35  H    0.180847
    36  C    0.638272
    37  O   -0.550498
    38  N   -0.578659
    39  H    0.357097
    40  C   -0.242247
    41  H    0.200222
    42  H    0.204584
    43  C    0.603013
    44  O   -0.513420
    45  N   -0.562982
    46  H    0.361298
    47  C   -0.266682
    48  H    0.179926
    49  H    0.221716
    50  C    0.615752
    51  O   -0.585592
    52  N   -0.596889
    53  H    0.411339
    54  C   -0.224911
    55  H    0.205252
    56  H    0.197557
    57  C    0.554511
    58  O   -0.475315
    59  N   -0.583288
    60  H    0.371211
    61  C   -0.261936
    62  H    0.224869
    63  H    0.185557
    64  C    0.635564
    65  O   -0.553761
    66  N   -0.607812
    67  H    0.364765
    68  C   -0.178262
    69  H    0.205836
    70  H    0.215626
    71  C    0.570164
    72  O   -0.452331
    73  O   -0.554632
    74  H    0.429674
 Sum of Mulliken charges =   1.00000

 Dipole moment (field-independent basis, Debye):
    X=             -0.9805    Y=              7.8337    Z=             -9.3141  Tot=             12.2099
 Quadrupole moment (field-independent basis, Debye-Ang):
   XX=           -175.6432   YY=           -232.2817   ZZ=           -112.6393
   XY=             15.0652   XZ=            -34.5951   YZ=            -44.8132

 Normal termination of Gaussian 16 at Sun Jul  3 18:10:09 2022.
