 Gaussian 16, Revision C.01,
 Gaussian 16:  ES64L-G16RevC.01  3-Jul-2019

 ----------------------------------------------------------------------
 # B3LYP/6-31G* empiricaldispersion=gd3 guess=read geom=check nosymm in
 tegral(ultrafinegrid)
 ----------------------------------------------------------------------

 ------------------------------------------------------
 Candidate Structure: Conf:538 Charge calc in gas phase
 ------------------------------------------------------
 Structure from the checkpoint file:  "conf-538.chk"
 Charge =  1 Multiplicity = 1

                          Input orientation:
 ---------------------------------------------------------------------
 Center     Atomic      Atomic             Coordinates (Angstroms)
 Number     Number       Type             X           Y           Z
 ---------------------------------------------------------------------
      1          7           0        3.508902    0.279835   -0.161876
      2          1           0        3.445997    0.501400    0.858546
      3          1           0        4.477528    0.216496   -0.491823
      4          1           0        3.130351    1.107154   -0.665207
      5          6           0        2.687518   -0.950270   -0.449932
      6          1           0        3.356813   -1.805743   -0.549810
      7          1           0        2.038273   -1.099498    0.414405
      8          6           0        1.931952   -0.741684   -1.766500
      9          8           0        2.564669   -0.638549   -2.818370
     10          7           0        0.587943   -0.632610   -1.674840
     11          1           0        0.139367   -0.650718   -0.767299
     12          6           0       -0.227972   -0.105904   -2.759999
     13          1           0       -1.073461   -0.776738   -2.949234
     14          1           0        0.376319   -0.068031   -3.665286
     15          6           0       -0.805627    1.251382   -2.341572
     16          8           0       -1.326988    1.365309   -1.227939
     17          7           0       -0.774402    2.252762   -3.245459
     18          1           0       -0.162747    2.177258   -4.047688
     19          6           0       -1.408045    3.537305   -2.959408
     20          1           0       -1.333536    4.154145   -3.857753
     21          1           0       -2.467992    3.366243   -2.747521
     22          6           0       -0.705030    4.279694   -1.808454
     23          8           0        0.493035    4.531948   -1.845925
     24          7           0       -1.495689    4.617335   -0.749539
     25          1           0       -2.451756    4.290578   -0.726211
     26          6           0       -0.909168    5.164726    0.464766
     27          1           0       -0.296350    6.037449    0.227768
     28          1           0       -1.710739    5.489544    1.133784
     29          6           0        0.022576    4.186122    1.200488
     30          8           0        0.871598    4.591089    1.988870
     31          7           0       -0.147850    2.858506    0.921234
     32          1           0       -0.808405    2.604748    0.191429
     33          6           0        1.017936    1.994594    0.970712
     34          1           0        1.919795    2.579905    0.767613
     35          1           0        0.911062    1.270067    0.165319
     36          6           0        1.300708    1.253839    2.263088
     37          8           0        2.325231    0.553620    2.341479
     38          7           0        0.428243    1.418679    3.272311
     39          1           0       -0.365858    2.018729    3.082689
     40          6           0        0.755755    1.068830    4.646723
     41          1           0       -0.163350    0.863246    5.201587
     42          1           0        1.360828    0.161084    4.645343
     43          6           0        1.558580    2.142596    5.407072
     44          8           0        2.056858    1.866949    6.485854
     45          7           0        1.656271    3.359552    4.797831
     46          1           0        1.187469    3.543314    3.917695
     47          6           0        2.407150    4.460366    5.374522
     48          1           0        1.750208    5.239665    5.773354
     49          1           0        2.997970    4.061128    6.204954
     50          6           0        3.322120    5.133508    4.352417
     51          8           0        3.613346    6.318649    4.422915
     52          7           0        3.810355    4.320185    3.367583
     53          1           0        3.423265    3.395588    3.230742
     54          6           0        4.479079    4.931196    2.249434
     55          1           0        5.362244    5.482275    2.593243
     56          1           0        3.824211    5.671929    1.761631
     57          6           0        4.848614    3.886559    1.214221
     58          8           0        4.254638    2.812925    1.090526
     59          7           0        5.847026    4.243164    0.355314
     60          1           0        6.442265    5.026196    0.591217
     61          6           0        6.294043    3.287975   -0.645063
     62          1           0        6.612293    2.347344   -0.186393
     63          1           0        7.146311    3.716150   -1.180946
     64          6           0        5.203903    2.936858   -1.660718
     65          8           0        5.109122    1.796377   -2.117652
     66          7           0        4.392203    3.952069   -2.040975
     67          1           0        4.457807    4.836380   -1.557186
     68          6           0        3.375787    3.779404   -3.065339
     69          1           0        3.813552    3.807406   -4.066980
     70          1           0        2.630658    4.572032   -2.960021
     71          6           0        2.651198    2.458444   -2.872267
     72          8           0        2.214371    2.086070   -1.790399
     73          8           0        2.497904    1.771192   -4.000587
     74          1           0        2.367895    0.816295   -3.749696
 ---------------------------------------------------------------------

 SCF Done:  E(RB3LYP) =  -2157.07104446     A.U. after    1 cycles

 Alpha  occ. eigenvalues --  -19.30237 -19.26188 -19.25912 -19.25693 -19.24612
 Alpha  occ. eigenvalues --  -19.23868 -19.23860 -19.23647 -19.23477 -19.18830
 Alpha  occ. eigenvalues --  -19.18347 -14.54962 -14.51042 -14.50217 -14.48903
 Alpha  occ. eigenvalues --  -14.48710 -14.48280 -14.47791 -14.46807 -14.43997
 Alpha  occ. eigenvalues --  -14.43494 -10.44527 -10.43945 -10.42847 -10.41246
 Alpha  occ. eigenvalues --  -10.41150 -10.40834 -10.40519 -10.40435 -10.38228
 Alpha  occ. eigenvalues --  -10.36719 -10.36629 -10.35921 -10.35740 -10.34893
 Alpha  occ. eigenvalues --  -10.34472 -10.34414 -10.33633 -10.32567 -10.32160
 Alpha  occ. eigenvalues --  -10.29613  -1.22205  -1.18364  -1.17506  -1.16461
 Alpha  occ. eigenvalues --   -1.15915  -1.15395  -1.15300  -1.14806  -1.13156
 Alpha  occ. eigenvalues --   -1.11170  -1.10452  -1.10079  -1.06919  -1.05955
 Alpha  occ. eigenvalues --   -1.05313  -1.05162  -1.04345  -1.03732  -1.02700
 Alpha  occ. eigenvalues --   -1.00769  -0.99199  -0.90278  -0.88274  -0.87947
 Alpha  occ. eigenvalues --   -0.86356  -0.85097  -0.84324  -0.82758  -0.81573
 Alpha  occ. eigenvalues --   -0.80404  -0.77818  -0.74211  -0.74093  -0.72796
 Alpha  occ. eigenvalues --   -0.71376  -0.71165  -0.70949  -0.70205  -0.70017
 Alpha  occ. eigenvalues --   -0.69561  -0.68756  -0.67121  -0.66895  -0.66470
 Alpha  occ. eigenvalues --   -0.65788  -0.65167  -0.64545  -0.64159  -0.63177
 Alpha  occ. eigenvalues --   -0.62874  -0.62383  -0.61481  -0.61126  -0.60980
 Alpha  occ. eigenvalues --   -0.60486  -0.59814  -0.59586  -0.59023  -0.58330
 Alpha  occ. eigenvalues --   -0.57910  -0.57374  -0.57127  -0.56575  -0.56448
 Alpha  occ. eigenvalues --   -0.55605  -0.55387  -0.55072  -0.54858  -0.54388
 Alpha  occ. eigenvalues --   -0.54270  -0.53990  -0.53665  -0.53562  -0.53343
 Alpha  occ. eigenvalues --   -0.53120  -0.52549  -0.52355  -0.51968  -0.51616
 Alpha  occ. eigenvalues --   -0.51572  -0.51055  -0.50878  -0.50067  -0.49667
 Alpha  occ. eigenvalues --   -0.49385  -0.49126  -0.48612  -0.47951  -0.47747
 Alpha  occ. eigenvalues --   -0.47181  -0.46927  -0.46151  -0.44417  -0.43445
 Alpha  occ. eigenvalues --   -0.42612  -0.41397  -0.40780  -0.40538  -0.40343
 Alpha  occ. eigenvalues --   -0.40086  -0.39563  -0.39523  -0.38901  -0.38743
 Alpha  occ. eigenvalues --   -0.38236  -0.37632  -0.37023  -0.36889  -0.36439
 Alpha  occ. eigenvalues --   -0.35799  -0.34217  -0.33050  -0.32469  -0.31467
 Alpha virt. eigenvalues --   -0.13661  -0.12383  -0.11699  -0.10505  -0.10367
 Alpha virt. eigenvalues --   -0.09845  -0.09739  -0.09334  -0.05790  -0.05044
 Alpha virt. eigenvalues --   -0.04710  -0.04473  -0.04256  -0.03826  -0.02882

 Mulliken charges:
               1
     1  N   -0.812244
     2  H    0.452406
     3  H    0.416430
     4  H    0.479153
     5  C   -0.253106
     6  H    0.239302
     7  H    0.215772
     8  C    0.621897
     9  O   -0.528201
    10  N   -0.555764
    11  H    0.358725
    12  C   -0.244006
    13  H    0.223019
    14  H    0.193480
    15  C    0.647147
    16  O   -0.553096
    17  N   -0.572074
    18  H    0.360236
    19  C   -0.241635
    20  H    0.207604
    21  H    0.188547
    22  C    0.614289
    23  O   -0.510903
    24  N   -0.595101
    25  H    0.351918
    26  C   -0.230092
    27  H    0.225473
    28  H    0.204086
    29  C    0.594457
    30  O   -0.509517
    31  N   -0.635579
    32  H    0.392962
    33  C   -0.268887
    34  H    0.235158
    35  H    0.156816
    36  C    0.637267
    37  O   -0.571682
    38  N   -0.590236
    39  H    0.356947
    40  C   -0.245371
    41  H    0.202443
    42  H    0.224023
    43  C    0.603827
    44  O   -0.488904
    45  N   -0.647440
    46  H    0.356088
    47  C   -0.211983
    48  H    0.193858
    49  H    0.225873
    50  C    0.597573
    51  O   -0.510006
    52  N   -0.605297
    53  H    0.352083
    54  C   -0.179663
    55  H    0.189620
    56  H    0.202790
    57  C    0.601586
    58  O   -0.544876
    59  N   -0.613481
    60  H    0.358435
    61  C   -0.220913
    62  H    0.196144
    63  H    0.204729
    64  C    0.623699
    65  O   -0.550840
    66  N   -0.574948
    67  H    0.352372
    68  C   -0.199091
    69  H    0.206078
    70  H    0.227287
    71  C    0.631835
    72  O   -0.532590
    73  O   -0.597247
    74  H    0.471338
 Sum of Mulliken charges =   1.00000

 Dipole moment (field-independent basis, Debye):
    X=              5.4292    Y=             10.3478    Z=             -8.6707  Tot=             14.5511
 Quadrupole moment (field-independent basis, Debye-Ang):
   XX=           -157.5470   YY=           -185.5266   ZZ=           -239.8355
   XY=             16.6876   XZ=            -14.5112   YZ=            -33.1301

 Normal termination of Gaussian 16 at Sun Jul  3 18:10:17 2022.
