 Gaussian 16, Revision C.01,
 Gaussian 16:  ES64L-G16RevC.01  3-Jul-2019

 ----------------------------------------------------------------------
 # B3LYP/6-31G* empiricaldispersion=gd3 guess=read geom=check nosymm in
 tegral(ultrafinegrid)
 ----------------------------------------------------------------------

 ------------------------------------------------------
 Candidate Structure: Conf:351 Charge calc in gas phase
 ------------------------------------------------------
 Structure from the checkpoint file:  "conf-351.chk"
 Charge =  1 Multiplicity = 1

                          Input orientation:
 ---------------------------------------------------------------------
 Center     Atomic      Atomic             Coordinates (Angstroms)
 Number     Number       Type             X           Y           Z
 ---------------------------------------------------------------------
      1          7           0        0.735226    3.859197   -4.250966
      2          1           0        1.282454    4.729761   -4.372873
      3          1           0        0.166472    3.952289   -3.375121
      4          1           0        1.380286    3.067560   -4.102915
      5          6           0       -0.133078    3.613189   -5.443841
      6          1           0        0.456940    3.817169   -6.339616
      7          1           0       -0.424752    2.562724   -5.431132
      8          6           0       -1.384828    4.473924   -5.296202
      9          8           0       -2.212166    4.196015   -4.429740
     10          7           0       -1.496740    5.531646   -6.134135
     11          1           0       -0.678386    5.838492   -6.642057
     12          6           0       -2.591931    6.484914   -5.977227
     13          1           0       -3.503816    5.914727   -5.783797
     14          1           0       -2.706874    7.048673   -6.903451
     15          6           0       -2.313570    7.495435   -4.851548
     16          8           0       -1.983554    8.651301   -5.109996
     17          7           0       -2.431211    6.992334   -3.594920
     18          1           0       -2.667053    6.008456   -3.498737
     19          6           0       -2.206321    7.784137   -2.396681
     20          1           0       -1.903840    8.785479   -2.719969
     21          1           0       -3.119951    7.870571   -1.803458
     22          6           0       -1.142224    7.168302   -1.484207
     23          8           0       -1.337662    6.973594   -0.291465
     24          7           0        0.045435    6.837618   -2.081088
     25          1           0        0.137424    6.848238   -3.091865
     26          6           0        0.958506    6.002411   -1.330408
     27          1           0        1.816484    5.751799   -1.960256
     28          1           0        1.316672    6.529260   -0.439976
     29          6           0        0.268164    4.689763   -0.945291
     30          8           0       -0.464687    4.107263   -1.765029
     31          7           0        0.508868    4.196683    0.278205
     32          1           0        1.004870    4.771935    0.944228
     33          6           0       -0.146846    2.985325    0.773255
     34          1           0       -1.230347    3.081539    0.644324
     35          1           0        0.081457    2.888271    1.834423
     36          6           0        0.382450    1.725103    0.068199
     37          8           0        1.339551    1.090620    0.510447
     38          7           0       -0.298065    1.385553   -1.060086
     39          1           0       -0.848971    2.129510   -1.479920
     40          6           0        0.181677    0.319138   -1.928710
     41          1           0        0.422174   -0.550368   -1.311149
     42          1           0       -0.606093    0.053876   -2.634911
     43          6           0        1.405629    0.782324   -2.726163
     44          8           0        1.324767    1.192720   -3.891312
     45          7           0        2.571111    0.731643   -2.044310
     46          1           0        2.506739    0.601855   -1.033693
     47          6           0        3.776020    1.256664   -2.628105
     48          1           0        4.639600    0.891620   -2.062961
     49          1           0        3.861637    0.881589   -3.654529
     50          6           0        3.806492    2.792183   -2.685879
     51          8           0        2.881600    3.503240   -2.304640
     52          7           0        4.963309    3.298212   -3.195727
     53          1           0        5.597958    2.661194   -3.659738
     54          6           0        5.059807    4.695773   -3.537585
     55          1           0        6.096407    4.931027   -3.799275
     56          1           0        4.793661    5.296730   -2.661175
     57          6           0        4.130883    5.080287   -4.704637
     58          8           0        3.407763    4.268431   -5.270612
     59          7           0        4.191759    6.399409   -5.044651
     60          1           0        4.745125    7.027211   -4.474871
     61          6           0        3.270657    6.992469   -6.004153
     62          1           0        2.962515    6.209546   -6.698822
     63          1           0        3.781086    7.782078   -6.564085
     64          6           0        2.036474    7.501420   -5.255083
     65          8           0        1.209479    6.689564   -4.792867
     66          7           0        1.959172    8.820002   -5.064951
     67          1           0        2.638086    9.454269   -5.477579
     68          6           0        0.925946    9.469316   -4.273307
     69          1           0        0.919477    9.080975   -3.248280
     70          1           0       -0.073819    9.292374   -4.692414
     71          6           0        1.216635   10.954338   -4.254078
     72          8           0        2.136661   11.472543   -4.853065
     73          8           0        0.328767   11.607403   -3.494565
     74          1           0        0.546171   12.559192   -3.529751
 ---------------------------------------------------------------------

 SCF Done:  E(RB3LYP) =  -2157.09158217     A.U. after    1 cycles

 Alpha  occ. eigenvalues --  -19.30097 -19.25604 -19.24872 -19.24493 -19.24007
 Alpha  occ. eigenvalues --  -19.23780 -19.23339 -19.22586 -19.21844 -19.21342
 Alpha  occ. eigenvalues --  -19.20844 -14.52014 -14.49520 -14.49510 -14.48273
 Alpha  occ. eigenvalues --  -14.48261 -14.48042 -14.46160 -14.45758 -14.45599
 Alpha  occ. eigenvalues --  -14.45189 -10.43111 -10.42352 -10.41720 -10.40816
 Alpha  occ. eigenvalues --  -10.40712 -10.40454 -10.39289 -10.38819 -10.38589
 Alpha  occ. eigenvalues --  -10.37835 -10.35863 -10.35619 -10.35422 -10.33920
 Alpha  occ. eigenvalues --  -10.33838 -10.33432 -10.33167 -10.32932 -10.32448
 Alpha  occ. eigenvalues --  -10.31589  -1.21252  -1.17144  -1.16423  -1.15725
 Alpha  occ. eigenvalues --   -1.15482  -1.15419  -1.14159  -1.13248  -1.13126
 Alpha  occ. eigenvalues --   -1.12570  -1.12551  -1.07636  -1.05743  -1.05149
 Alpha  occ. eigenvalues --   -1.04638  -1.04055  -1.03816  -1.02950  -1.02298
 Alpha  occ. eigenvalues --   -1.01985  -1.01028  -0.89528  -0.87682  -0.87027
 Alpha  occ. eigenvalues --   -0.86401  -0.84982  -0.83623  -0.82434  -0.80982
 Alpha  occ. eigenvalues --   -0.79446  -0.78181  -0.73886  -0.72364  -0.71464
 Alpha  occ. eigenvalues --   -0.71343  -0.70795  -0.70727  -0.69162  -0.68512
 Alpha  occ. eigenvalues --   -0.68071  -0.67377  -0.67329  -0.66908  -0.66038
 Alpha  occ. eigenvalues --   -0.64475  -0.64229  -0.63509  -0.63503  -0.62582
 Alpha  occ. eigenvalues --   -0.62202  -0.60935  -0.60897  -0.60517  -0.60046
 Alpha  occ. eigenvalues --   -0.59582  -0.59183  -0.58800  -0.58436  -0.58221
 Alpha  occ. eigenvalues --   -0.57911  -0.57684  -0.57089  -0.56748  -0.56694
 Alpha  occ. eigenvalues --   -0.55929  -0.55370  -0.54744  -0.54210  -0.53726
 Alpha  occ. eigenvalues --   -0.53512  -0.53377  -0.53091  -0.52637  -0.52537
 Alpha  occ. eigenvalues --   -0.51878  -0.51608  -0.51444  -0.51208  -0.51050
 Alpha  occ. eigenvalues --   -0.50791  -0.50260  -0.49958  -0.49249  -0.49180
 Alpha  occ. eigenvalues --   -0.49075  -0.48773  -0.48529  -0.48420  -0.47990
 Alpha  occ. eigenvalues --   -0.47798  -0.47536  -0.46868  -0.46701  -0.45374
 Alpha  occ. eigenvalues --   -0.42349  -0.41557  -0.39832  -0.39337  -0.38945
 Alpha  occ. eigenvalues --   -0.38895  -0.38795  -0.38670  -0.38510  -0.37879
 Alpha  occ. eigenvalues --   -0.37386  -0.37183  -0.37110  -0.36443  -0.35981
 Alpha  occ. eigenvalues --   -0.35230  -0.34776  -0.34372  -0.34062  -0.33525
 Alpha virt. eigenvalues --   -0.12383  -0.10992  -0.09860  -0.09643  -0.09507
 Alpha virt. eigenvalues --   -0.09357  -0.09086  -0.08252  -0.07835  -0.06891
 Alpha virt. eigenvalues --   -0.05090  -0.04133  -0.03314  -0.02423  -0.01980

 Mulliken charges:
               1
     1  N   -0.838498
     2  H    0.427423
     3  H    0.443604
     4  H    0.449958
     5  C   -0.236630
     6  H    0.197206
     7  H    0.239980
     8  C    0.595322
     9  O   -0.508797
    10  N   -0.563543
    11  H    0.347326
    12  C   -0.245751
    13  H    0.210924
    14  H    0.200522
    15  C    0.592940
    16  O   -0.512213
    17  N   -0.599059
    18  H    0.380835
    19  C   -0.233916
    20  H    0.210115
    21  H    0.203789
    22  C    0.591428
    23  O   -0.505671
    24  N   -0.610921
    25  H    0.387873
    26  C   -0.260756
    27  H    0.190155
    28  H    0.181129
    29  C    0.686515
    30  O   -0.579856
    31  N   -0.571109
    32  H    0.360010
    33  C   -0.234321
    34  H    0.204568
    35  H    0.203276
    36  C    0.601623
    37  O   -0.519767
    38  N   -0.568534
    39  H    0.374506
    40  C   -0.237950
    41  H    0.205370
    42  H    0.195212
    43  C    0.598051
    44  O   -0.562900
    45  N   -0.558146
    46  H    0.387795
    47  C   -0.260681
    48  H    0.199961
    49  H    0.213449
    50  C    0.631320
    51  O   -0.545345
    52  N   -0.563456
    53  H    0.353284
    54  C   -0.251859
    55  H    0.200526
    56  H    0.203029
    57  C    0.622358
    58  O   -0.523013
    59  N   -0.583758
    60  H    0.346443
    61  C   -0.232170
    62  H    0.213915
    63  H    0.188713
    64  C    0.620410
    65  O   -0.575134
    66  N   -0.586929
    67  H    0.369406
    68  C   -0.255244
    69  H    0.207319
    70  H    0.278715
    71  C    0.580725
    72  O   -0.458413
    73  O   -0.547644
    74  H    0.434955
 Sum of Mulliken charges =   1.00000

 Dipole moment (field-independent basis, Debye):
    X=             12.0663    Y=             25.8670    Z=            -18.4729  Tot=             33.9992
 Quadrupole moment (field-independent basis, Debye-Ang):
   XX=           -165.0700   YY=            -44.2696   ZZ=           -136.9408
   XY=             62.1994   XZ=            -41.3654   YZ=           -108.1220

 Normal termination of Gaussian 16 at Sun Jul  3 18:10:19 2022.
