 Gaussian 16, Revision C.01,
 Gaussian 16:  ES64L-G16RevC.01  3-Jul-2019

 ----------------------------------------------------------------------
 # B3LYP/6-31G* empiricaldispersion=gd3 guess=read geom=check nosymm in
 tegral(ultrafinegrid)
 ----------------------------------------------------------------------

 -----------------------------------------------------
 Candidate Structure: Conf:90 Charge calc in gas phase
 -----------------------------------------------------
 Structure from the checkpoint file:  "conf-90.chk"
 Charge =  1 Multiplicity = 1

                          Input orientation:
 ---------------------------------------------------------------------
 Center     Atomic      Atomic             Coordinates (Angstroms)
 Number     Number       Type             X           Y           Z
 ---------------------------------------------------------------------
      1          7           0       -0.964472   -0.555262   -1.089603
      2          1           0       -1.701453   -1.215913   -1.345172
      3          1           0       -0.486535   -0.874520   -0.186536
      4          1           0       -1.358096    0.386125   -0.932146
      5          6           0        0.098376   -0.428238   -2.135608
      6          1           0        0.864382   -1.191911   -1.978718
      7          1           0       -0.348288   -0.542574   -3.126540
      8          6           0        0.691232    0.978717   -1.993019
      9          8           0        0.090786    1.826300   -1.316377
     10          7           0        1.819776    1.196888   -2.686848
     11          1           0        2.422086    0.380883   -2.839513
     12          6           0        2.460926    2.510009   -2.655374
     13          1           0        1.691064    3.278687   -2.751495
     14          1           0        3.135623    2.578954   -3.512308
     15          6           0        3.274668    2.625510   -1.363078
     16          8           0        4.129169    1.775599   -1.104057
     17          7           0        2.944181    3.612244   -0.498494
     18          1           0        2.205517    4.260160   -0.736741
     19          6           0        3.486143    3.587975    0.858319
     20          1           0        4.578039    3.564610    0.832134
     21          1           0        3.169913    4.495638    1.380050
     22          6           0        2.995798    2.358338    1.632483
     23          8           0        3.674657    1.827814    2.516685
     24          7           0        1.762852    1.907643    1.286898
     25          1           0        1.291655    2.294012    0.477330
     26          6           0        1.193136    0.717369    1.878747
     27          1           0        1.527503    0.661157    2.914381
     28          1           0        0.104905    0.783304    1.891219
     29          6           0        1.581947   -0.569257    1.141498
     30          8           0        0.701746   -1.372295    0.748191
     31          7           0        2.882065   -0.786796    0.950302
     32          1           0        3.575422   -0.148082    1.333521
     33          6           0        3.399873   -1.933231    0.214725
     34          1           0        2.589386   -2.646593    0.070474
     35          1           0        4.195102   -2.389102    0.805833
     36          6           0        3.895882   -1.465258   -1.160237
     37          8           0        3.090675   -1.243378   -2.080819
     38          7           0        5.222096   -1.309676   -1.255576
     39          1           0        5.773385   -1.370090   -0.403063
     40          6           0        5.884032   -0.701184   -2.403456
     41          1           0        6.330875   -1.469346   -3.043767
     42          1           0        5.144167   -0.144132   -2.979928
     43          6           0        7.005233    0.174632   -1.842951
     44          8           0        7.940780   -0.342788   -1.232795
     45          7           0        6.860145    1.512774   -2.020288
     46          1           0        5.909740    1.826642   -2.183449
     47          6           0        7.716984    2.448100   -1.292234
     48          1           0        8.740524    2.067241   -1.323594
     49          1           0        7.676054    3.424114   -1.776517
     50          6           0        7.219052    2.610612    0.152838
     51          8           0        6.597988    3.607251    0.514305
     52          7           0        7.485854    1.546224    0.954954
     53          1           0        7.919290    0.733100    0.524672
     54          6           0        6.921927    1.420647    2.277129
     55          1           0        6.154931    2.192104    2.400471
     56          1           0        7.686034    1.581672    3.049564
     57          6           0        6.251262    0.061055    2.465684
     58          8           0        5.762866   -0.573494    1.523975
     59          7           0        6.215670   -0.390499    3.742069
     60          1           0        6.658279    0.166038    4.461648
     61          6           0        5.752892   -1.721083    4.105680
     62          1           0        6.480638   -2.200460    4.764925
     63          1           0        5.694934   -2.312575    3.187777
     64          6           0        4.394915   -1.819994    4.806022
     65          8           0        4.134281   -2.809742    5.471481
     66          7           0        3.519773   -0.788903    4.613552
     67          1           0        3.763833   -0.000686    4.024291
     68          6           0        2.183568   -0.873970    5.163855
     69          1           0        1.823669    0.111740    5.466607
     70          1           0        2.227438   -1.516391    6.050564
     71          6           0        1.143299   -1.472016    4.220766
     72          8           0       -0.007171   -1.095166    4.155954
     73          8           0        1.645869   -2.455243    3.444895
     74          1           0        0.920700   -2.744984    2.857735
 ---------------------------------------------------------------------

 SCF Done:  E(RB3LYP) =  -2157.08236483     A.U. after    1 cycles

 Alpha  occ. eigenvalues --  -19.28413 -19.27624 -19.25777 -19.24774 -19.24218
 Alpha  occ. eigenvalues --  -19.23279 -19.23080 -19.22759 -19.21692 -19.20539
 Alpha  occ. eigenvalues --  -19.19412 -14.57813 -14.49997 -14.49641 -14.48938
 Alpha  occ. eigenvalues --  -14.48304 -14.47489 -14.46988 -14.45899 -14.44863
 Alpha  occ. eigenvalues --  -14.44687 -10.44325 -10.42315 -10.41967 -10.41165
 Alpha  occ. eigenvalues --  -10.40875 -10.40184 -10.40178 -10.38825 -10.38808
 Alpha  occ. eigenvalues --  -10.37654 -10.37136 -10.36298 -10.34988 -10.33763
 Alpha  occ. eigenvalues --  -10.33669 -10.32794 -10.32232 -10.32219 -10.32015
 Alpha  occ. eigenvalues --  -10.31621  -1.19430  -1.19357  -1.17127  -1.16873
 Alpha  occ. eigenvalues --   -1.15574  -1.14828  -1.14525  -1.13615  -1.12449
 Alpha  occ. eigenvalues --   -1.12133  -1.11705  -1.10313  -1.06700  -1.06052
 Alpha  occ. eigenvalues --   -1.05286  -1.03857  -1.03474  -1.03156  -1.02246
 Alpha  occ. eigenvalues --   -1.01036  -1.00763  -0.90389  -0.88579  -0.86908
 Alpha  occ. eigenvalues --   -0.86139  -0.84992  -0.83627  -0.82485  -0.81454
 Alpha  occ. eigenvalues --   -0.79915  -0.77959  -0.73623  -0.73252  -0.72727
 Alpha  occ. eigenvalues --   -0.71578  -0.71114  -0.70862  -0.70571  -0.70023
 Alpha  occ. eigenvalues --   -0.69267  -0.68558  -0.67448  -0.67202  -0.67075
 Alpha  occ. eigenvalues --   -0.66361  -0.65143  -0.64555  -0.63793  -0.62791
 Alpha  occ. eigenvalues --   -0.62356  -0.61638  -0.60958  -0.60810  -0.60231
 Alpha  occ. eigenvalues --   -0.59651  -0.59384  -0.58794  -0.58472  -0.57761
 Alpha  occ. eigenvalues --   -0.57328  -0.57123  -0.56930  -0.56397  -0.56190
 Alpha  occ. eigenvalues --   -0.56047  -0.55522  -0.55204  -0.54877  -0.54381
 Alpha  occ. eigenvalues --   -0.54101  -0.53668  -0.53520  -0.53106  -0.52802
 Alpha  occ. eigenvalues --   -0.52124  -0.52000  -0.51385  -0.51220  -0.50851
 Alpha  occ. eigenvalues --   -0.50579  -0.50406  -0.49916  -0.49566  -0.49505
 Alpha  occ. eigenvalues --   -0.49192  -0.48995  -0.48467  -0.48264  -0.47368
 Alpha  occ. eigenvalues --   -0.47129  -0.47056  -0.46492  -0.45554  -0.44871
 Alpha  occ. eigenvalues --   -0.42164  -0.41656  -0.41242  -0.40840  -0.40321
 Alpha  occ. eigenvalues --   -0.39976  -0.38308  -0.38017  -0.37709  -0.37496
 Alpha  occ. eigenvalues --   -0.37294  -0.37157  -0.37058  -0.36619  -0.36253
 Alpha  occ. eigenvalues --   -0.34915  -0.34405  -0.33593  -0.33328  -0.32818
 Alpha virt. eigenvalues --   -0.13518  -0.12853  -0.11469  -0.09789  -0.09591
 Alpha virt. eigenvalues --   -0.09088  -0.08880  -0.08462  -0.07792  -0.06215
 Alpha virt. eigenvalues --   -0.05568  -0.04586  -0.03208  -0.02627  -0.02094

 Mulliken charges:
               1
     1  N   -0.761916
     2  H    0.407748
     3  H    0.451259
     4  H    0.408277
     5  C   -0.293253
     6  H    0.271901
     7  H    0.234746
     8  C    0.614366
     9  O   -0.551063
    10  N   -0.579870
    11  H    0.406814
    12  C   -0.246421
    13  H    0.195245
    14  H    0.205906
    15  C    0.611786
    16  O   -0.530281
    17  N   -0.590771
    18  H    0.356109
    19  C   -0.272897
    20  H    0.283283
    21  H    0.202956
    22  C    0.618312
    23  O   -0.548118
    24  N   -0.589816
    25  H    0.369457
    26  C   -0.242450
    27  H    0.215333
    28  H    0.194645
    29  C    0.621319
    30  O   -0.613580
    31  N   -0.563615
    32  H    0.404076
    33  C   -0.235350
    34  H    0.204887
    35  H    0.204078
    36  C    0.624805
    37  O   -0.572952
    38  N   -0.580497
    39  H    0.393301
    40  C   -0.176559
    41  H    0.204214
    42  H    0.168767
    43  C    0.574947
    44  O   -0.521724
    45  N   -0.565503
    46  H    0.353813
    47  C   -0.247684
    48  H    0.207102
    49  H    0.190611
    50  C    0.597550
    51  O   -0.518599
    52  N   -0.583285
    53  H    0.375839
    54  C   -0.227838
    55  H    0.237010
    56  H    0.171773
    57  C    0.617499
    58  O   -0.563231
    59  N   -0.596062
    60  H    0.352989
    61  C   -0.243233
    62  H    0.207131
    63  H    0.213798
    64  C    0.610317
    65  O   -0.493403
    66  N   -0.621186
    67  H    0.366580
    68  C   -0.226981
    69  H    0.190819
    70  H    0.235920
    71  C    0.571615
    72  O   -0.465998
    73  O   -0.546412
    74  H    0.421648
 Sum of Mulliken charges =   1.00000

 Dipole moment (field-independent basis, Debye):
    X=              9.0025    Y=              4.8662    Z=             -4.3241  Tot=             11.1096
 Quadrupole moment (field-independent basis, Debye-Ang):
   XX=           -164.6931   YY=           -216.5673   ZZ=           -204.5588
   XY=             21.0902   XZ=             17.1803   YZ=              5.1846

 Normal termination of Gaussian 16 at Sun Jul  3 18:10:24 2022.
