 Gaussian 16, Revision C.01,
 Gaussian 16:  ES64L-G16RevC.01  3-Jul-2019

 ----------------------------------------------------------------------
 # B3LYP/6-31G* empiricaldispersion=gd3 guess=read geom=check nosymm in
 tegral(ultrafinegrid)
 ----------------------------------------------------------------------

 ------------------------------------------------------
 Candidate Structure: Conf:234 Charge calc in gas phase
 ------------------------------------------------------
 Structure from the checkpoint file:  "conf-234.chk"
 Charge =  1 Multiplicity = 1

                          Input orientation:
 ---------------------------------------------------------------------
 Center     Atomic      Atomic             Coordinates (Angstroms)
 Number     Number       Type             X           Y           Z
 ---------------------------------------------------------------------
      1          7           0       -0.501523   -1.418536    0.301977
      2          1           0        0.452362   -1.067145    0.584605
      3          1           0       -0.968967   -1.713672    1.172643
      4          1           0       -0.402352   -2.216286   -0.328173
      5          6           0       -1.262682   -0.265303   -0.267422
      6          1           0       -0.617766    0.255613   -0.974156
      7          1           0       -2.161251   -0.636292   -0.767645
      8          6           0       -1.661875    0.582528    0.951557
      9          8           0       -1.927055   -0.012589    1.997976
     10          7           0       -1.702316    1.915496    0.789506
     11          1           0       -1.291002    2.356004   -0.027408
     12          6           0       -2.003284    2.808742    1.897994
     13          1           0       -1.883439    2.255747    2.832800
     14          1           0       -3.040387    3.163382    1.837863
     15          6           0       -1.060337    4.019341    1.849177
     16          8           0       -0.457695    4.325160    0.827257
     17          7           0       -1.018961    4.723190    3.020539
     18          1           0       -1.336037    4.211999    3.837945
     19          6           0       -0.019977    5.765280    3.272971
     20          1           0        0.254834    6.224411    2.324383
     21          1           0       -0.440608    6.520465    3.944403
     22          6           0        1.203000    5.056682    3.865420
     23          8           0        2.143228    4.703517    3.148660
     24          7           0        1.102688    4.667611    5.168485
     25          1           0        0.232058    4.881455    5.639045
     26          6           0        1.704648    3.385517    5.545056
     27          1           0        2.771931    3.400038    5.319766
     28          1           0        1.566033    3.235608    6.618330
     29          6           0        0.956021    2.292827    4.748478
     30          8           0       -0.270166    2.345183    4.637854
     31          7           0        1.731395    1.371087    4.121010
     32          1           0        2.745487    1.505479    4.150528
     33          6           0        1.203996    0.561972    3.036032
     34          1           0        0.124237    0.453272    3.166719
     35          1           0        1.636912   -0.438467    3.041469
     36          6           0        1.484474    1.138499    1.640611
     37          8           0        1.334441    0.433438    0.624543
     38          7           0        1.861169    2.416904    1.588886
     39          1           0        1.931791    2.939197    2.453270
     40          6           0        2.411953    3.090495    0.423045
     41          1           0        2.091758    2.578159   -0.482920
     42          1           0        2.038470    4.117470    0.413702
     43          6           0        3.947031    3.034055    0.490057
     44          8           0        4.622006    2.604203   -0.450660
     45          7           0        4.497989    3.423657    1.665617
     46          1           0        3.887547    3.794918    2.387875
     47          6           0        5.730050    2.824038    2.145989
     48          1           0        6.224378    2.337230    1.304087
     49          1           0        6.403834    3.588516    2.550986
     50          6           0        5.386413    1.839419    3.272436
     51          8           0        4.460444    2.093352    4.056474
     52          7           0        6.172028    0.750432    3.399132
     53          1           0        6.756891    0.478225    2.618529
     54          6           0        5.898425   -0.280126    4.393560
     55          1           0        5.265351    0.162298    5.163572
     56          1           0        6.839520   -0.602498    4.848579
     57          6           0        5.278161   -1.508349    3.721339
     58          8           0        5.946830   -2.175079    2.932027
     59          7           0        3.990904   -1.805427    4.039346
     60          1           0        3.465570   -1.168291    4.621992
     61          6           0        3.296600   -2.960306    3.463781
     62          1           0        2.422708   -3.186797    4.074915
     63          1           0        3.981031   -3.814202    3.480145
     64          6           0        2.825717   -2.669258    2.028108
     65          8           0        1.639152   -2.430737    1.773578
     66          7           0        3.822198   -2.669675    1.114105
     67          1           0        4.764163   -2.713839    1.505999
     68          6           0        3.687822   -1.967282   -0.140337
     69          1           0        2.660038   -2.047516   -0.499654
     70          1           0        4.339222   -2.409127   -0.899620
     71          6           0        4.029632   -0.484061    0.018005
     72          8           0        4.288576    0.029810    1.095790
     73          8           0        4.003445    0.132590   -1.151410
     74          1           0        4.222933    1.101061   -1.015583
 ---------------------------------------------------------------------

 SCF Done:  E(RB3LYP) =  -2157.09634651     A.U. after    1 cycles

 Alpha  occ. eigenvalues --  -19.26456 -19.24512 -19.24462 -19.23534 -19.23465
 Alpha  occ. eigenvalues --  -19.23170 -19.23117 -19.22772 -19.22741 -19.22518
 Alpha  occ. eigenvalues --  -19.22370 -14.55794 -14.48671 -14.48124 -14.48038
 Alpha  occ. eigenvalues --  -14.47705 -14.47415 -14.46908 -14.46870 -14.45682
 Alpha  occ. eigenvalues --  -14.45491 -10.42070 -10.41172 -10.40746 -10.40454
 Alpha  occ. eigenvalues --  -10.40401 -10.40282 -10.40130 -10.40057 -10.39473
 Alpha  occ. eigenvalues --  -10.39354 -10.37719 -10.34095 -10.33883 -10.33650
 Alpha  occ. eigenvalues --  -10.33638 -10.33616 -10.33057 -10.33014 -10.32520
 Alpha  occ. eigenvalues --  -10.32493  -1.18401  -1.16948  -1.16483  -1.15414
 Alpha  occ. eigenvalues --   -1.15095  -1.14787  -1.14768  -1.14570  -1.13817
 Alpha  occ. eigenvalues --   -1.13728  -1.10541  -1.09607  -1.04985  -1.04721
 Alpha  occ. eigenvalues --   -1.04344  -1.03743  -1.03593  -1.03303  -1.02930
 Alpha  occ. eigenvalues --   -1.02309  -1.01664  -0.88567  -0.87746  -0.87177
 Alpha  occ. eigenvalues --   -0.85986  -0.84946  -0.83625  -0.82167  -0.81031
 Alpha  occ. eigenvalues --   -0.79620  -0.78702  -0.72262  -0.71745  -0.71556
 Alpha  occ. eigenvalues --   -0.71086  -0.70455  -0.70128  -0.69587  -0.69304
 Alpha  occ. eigenvalues --   -0.69123  -0.68638  -0.67786  -0.67510  -0.66043
 Alpha  occ. eigenvalues --   -0.65676  -0.64766  -0.64050  -0.62901  -0.62051
 Alpha  occ. eigenvalues --   -0.61356  -0.61088  -0.60549  -0.59726  -0.59605
 Alpha  occ. eigenvalues --   -0.59371  -0.59327  -0.58719  -0.58399  -0.58088
 Alpha  occ. eigenvalues --   -0.57556  -0.57322  -0.57087  -0.56438  -0.56196
 Alpha  occ. eigenvalues --   -0.55784  -0.55654  -0.55313  -0.55068  -0.54383
 Alpha  occ. eigenvalues --   -0.54099  -0.53502  -0.53009  -0.52727  -0.52512
 Alpha  occ. eigenvalues --   -0.52065  -0.51584  -0.51143  -0.51009  -0.50707
 Alpha  occ. eigenvalues --   -0.50571  -0.50320  -0.49988  -0.49888  -0.49625
 Alpha  occ. eigenvalues --   -0.48901  -0.48623  -0.48385  -0.48069  -0.47505
 Alpha  occ. eigenvalues --   -0.47295  -0.47053  -0.46858  -0.46561  -0.45265
 Alpha  occ. eigenvalues --   -0.40602  -0.40224  -0.39817  -0.39112  -0.38976
 Alpha  occ. eigenvalues --   -0.38861  -0.38711  -0.38461  -0.38314  -0.38157
 Alpha  occ. eigenvalues --   -0.37241  -0.37025  -0.36453  -0.36319  -0.36024
 Alpha  occ. eigenvalues --   -0.35516  -0.35204  -0.34961  -0.34827  -0.34734
 Alpha virt. eigenvalues --   -0.12144  -0.10895  -0.10521  -0.10039  -0.09252
 Alpha virt. eigenvalues --   -0.09116  -0.08732  -0.08264  -0.08130  -0.06867
 Alpha virt. eigenvalues --   -0.06160  -0.03766  -0.03449  -0.02620  -0.00884

 Mulliken charges:
               1
     1  N   -0.762718
     2  H    0.480559
     3  H    0.414292
     4  H    0.400169
     5  C   -0.255718
     6  H    0.224866
     7  H    0.227507
     8  C    0.622391
     9  O   -0.519209
    10  N   -0.586920
    11  H    0.363689
    12  C   -0.246574
    13  H    0.239455
    14  H    0.211405
    15  C    0.607214
    16  O   -0.511688
    17  N   -0.590619
    18  H    0.356874
    19  C   -0.234492
    20  H    0.226312
    21  H    0.190362
    22  C    0.592679
    23  O   -0.525464
    24  N   -0.534622
    25  H    0.344805
    26  C   -0.266289
    27  H    0.226731
    28  H    0.202732
    29  C    0.573507
    30  O   -0.530392
    31  N   -0.632414
    32  H    0.400209
    33  C   -0.290208
    34  H    0.240478
    35  H    0.197806
    36  C    0.656486
    37  O   -0.613205
    38  N   -0.604601
    39  H    0.393458
    40  C   -0.248904
    41  H    0.196684
    42  H    0.226074
    43  C    0.635052
    44  O   -0.548152
    45  N   -0.576977
    46  H    0.380223
    47  C   -0.237863
    48  H    0.207693
    49  H    0.205623
    50  C    0.640602
    51  O   -0.561109
    52  N   -0.559595
    53  H    0.361928
    54  C   -0.235781
    55  H    0.188128
    56  H    0.209510
    57  C    0.642717
    58  O   -0.528410
    59  N   -0.589253
    60  H    0.349603
    61  C   -0.247741
    62  H    0.192230
    63  H    0.211525
    64  C    0.612684
    65  O   -0.568578
    66  N   -0.554973
    67  H    0.386734
    68  C   -0.237875
    69  H    0.182021
    70  H    0.207798
    71  C    0.619162
    72  O   -0.525398
    73  O   -0.591817
    74  H    0.467583
 Sum of Mulliken charges =   1.00000

 Dipole moment (field-independent basis, Debye):
    X=              5.4902    Y=              3.9062    Z=             12.3100  Tot=             14.0334
 Quadrupole moment (field-independent basis, Debye-Ang):
   XX=           -183.1925   YY=           -180.8119   ZZ=           -166.5531
   XY=             -3.2647   XZ=             39.8617   YZ=             37.7724

 Normal termination of Gaussian 16 at Sun Jul  3 18:10:25 2022.
