 Gaussian 16, Revision C.01,
 Gaussian 16:  ES64L-G16RevC.01  3-Jul-2019

 ----------------------------------------------------------------------
 # B3LYP/6-31G* empiricaldispersion=gd3 guess=read geom=check nosymm in
 tegral(ultrafinegrid)
 ----------------------------------------------------------------------

 ------------------------------------------------------
 Candidate Structure: Conf:961 Charge calc in gas phase
 ------------------------------------------------------
 Structure from the checkpoint file:  "conf-961.chk"
 Charge =  1 Multiplicity = 1

                          Input orientation:
 ---------------------------------------------------------------------
 Center     Atomic      Atomic             Coordinates (Angstroms)
 Number     Number       Type             X           Y           Z
 ---------------------------------------------------------------------
      1          7           0       -2.650661   14.588410   -6.218003
      2          1           0       -3.424994   15.076577   -5.760105
      3          1           0       -1.803918   14.534630   -5.555196
      4          1           0       -2.400660   15.102248   -7.067130
      5          6           0       -2.912294   13.125070   -6.451617
      6          1           0       -3.918703   12.869723   -6.115493
      7          1           0       -2.818834   12.896584   -7.514683
      8          6           0       -1.816152   12.423301   -5.603637
      9          8           0       -1.036602   13.159818   -4.978657
     10          7           0       -1.806897   11.103937   -5.619646
     11          1           0       -2.472138   10.529690   -6.150109
     12          6           0       -0.857585   10.280641   -4.886127
     13          1           0       -0.922261   10.481010   -3.810981
     14          1           0        0.168056   10.494170   -5.206770
     15          6           0       -1.250656    8.823658   -5.207704
     16          8           0       -2.203433    8.602595   -5.961225
     17          7           0       -0.502698    7.884374   -4.625085
     18          1           0        0.275566    8.093758   -3.999626
     19          6           0       -0.727980    6.463720   -4.803755
     20          1           0       -1.744353    6.189935   -4.496247
     21          1           0       -0.619738    6.181369   -5.858001
     22          6           0        0.318499    5.742052   -3.937521
     23          8           0        1.138844    6.386250   -3.281015
     24          7           0        0.259185    4.402336   -3.961736
     25          1           0       -0.432715    3.884699   -4.499404
     26          6           0        1.160180    3.568283   -3.195606
     27          1           0        2.199452    3.719875   -3.513758
     28          1           0        1.111680    3.822267   -2.129428
     29          6           0        0.738024    2.110159   -3.425732
     30          8           0       -0.197810    1.829834   -4.175254
     31          7           0        1.461184    1.193820   -2.757003
     32          1           0        2.206319    1.444018   -2.112717
     33          6           0        1.180103   -0.221934   -2.837525
     34          1           0        1.445372   -0.622287   -3.826461
     35          1           0        0.108778   -0.406919   -2.692584
     36          6           0        2.016456   -0.925712   -1.761935
     37          8           0        2.847096   -0.312886   -1.099335
     38          7           0        1.773902   -2.257397   -1.632131
     39          1           0        1.082474   -2.685000   -2.234553
     40          6           0        2.557220   -3.125947   -0.764811
     41          1           0        3.100817   -2.485519   -0.065558
     42          1           0        1.901440   -3.780344   -0.184734
     43          6           0        3.573127   -4.022979   -1.491390
     44          8           0        4.040791   -5.009653   -0.937914
     45          7           0        3.909347   -3.620865   -2.739641
     46          1           0        3.439276   -2.847821   -3.194652
     47          6           0        4.785909   -4.380991   -3.593767
     48          1           0        5.839956   -4.249194   -3.311250
     49          1           0        4.568048   -5.452586   -3.503007
     50          6           0        4.570232   -3.896306   -5.032901
     51          8           0        3.796962   -2.972932   -5.295577
     52          7           0        5.293426   -4.541607   -5.969510
     53          1           0        5.919596   -5.306833   -5.741360
     54          6           0        5.209251   -4.202696   -7.372071
     55          1           0        5.342744   -3.123753   -7.513060
     56          1           0        4.229300   -4.475008   -7.785345
     57          6           0        6.272392   -4.996329   -8.124710
     58          8           0        6.920004   -5.889856   -7.574060
     59          7           0        6.447260   -4.647817   -9.425193
     60          1           0        5.735875   -4.067865   -9.853343
     61          6           0        7.227896   -5.492249  -10.332703
     62          1           0        8.129026   -5.813160   -9.805054
     63          1           0        7.502834   -4.909405  -11.212208
     64          6           0        6.358992   -6.676800  -10.777402
     65          8           0        5.741798   -6.668850  -11.831742
     66          7           0        6.276972   -7.688560   -9.851652
     67          1           0        6.644086   -7.470972   -8.928953
     68          6           0        5.131538   -8.564455   -9.901378
     69          1           0        5.315628   -9.476012   -9.324613
     70          1           0        4.942096   -8.858045  -10.937076
     71          6           0        3.878296   -7.878735   -9.361615
     72          8           0        3.827613   -6.748840   -8.924154
     73          8           0        2.813849   -8.701726   -9.427470
     74          1           0        2.046458   -8.210327   -9.078348
 ---------------------------------------------------------------------

 SCF Done:  E(RB3LYP) =  -2156.98946390     A.U. after    2 cycles

 Alpha  occ. eigenvalues --  -19.28700 -19.25032 -19.22728 -19.19993 -19.19671
 Alpha  occ. eigenvalues --  -19.18769 -19.18730 -19.18565 -19.17147 -19.16169
 Alpha  occ. eigenvalues --  -19.15036 -14.62180 -14.51041 -14.46118 -14.43781
 Alpha  occ. eigenvalues --  -14.43286 -14.42785 -14.42724 -14.41333 -14.40053
 Alpha  occ. eigenvalues --  -14.40044 -10.45495 -10.42630 -10.39970 -10.37522
 Alpha  occ. eigenvalues --  -10.37273 -10.36051 -10.36050 -10.35547 -10.35436
 Alpha  occ. eigenvalues --  -10.34320 -10.33196 -10.32773 -10.32030 -10.30330
 Alpha  occ. eigenvalues --  -10.29829 -10.28472 -10.28153 -10.28052 -10.27978
 Alpha  occ. eigenvalues --  -10.27796  -1.21172  -1.15995  -1.15782  -1.14679
 Alpha  occ. eigenvalues --   -1.12012  -1.11033  -1.10498  -1.10288  -1.08980
 Alpha  occ. eigenvalues --   -1.08077  -1.07564  -1.07094  -1.06982  -1.02626
 Alpha  occ. eigenvalues --   -1.00276  -0.99516  -0.99170  -0.98786  -0.97779
 Alpha  occ. eigenvalues --   -0.96790  -0.96317  -0.92075  -0.86663  -0.83960
 Alpha  occ. eigenvalues --   -0.82529  -0.81915  -0.80268  -0.79109  -0.77358
 Alpha  occ. eigenvalues --   -0.76094  -0.75929  -0.75638  -0.73661  -0.73391
 Alpha  occ. eigenvalues --   -0.69543  -0.68084  -0.67499  -0.67183  -0.66155
 Alpha  occ. eigenvalues --   -0.65258  -0.65060  -0.64851  -0.64180  -0.63101
 Alpha  occ. eigenvalues --   -0.62752  -0.62568  -0.62225  -0.60911  -0.60121
 Alpha  occ. eigenvalues --   -0.59406  -0.59355  -0.57567  -0.56840  -0.56572
 Alpha  occ. eigenvalues --   -0.56450  -0.55755  -0.55324  -0.54875  -0.54867
 Alpha  occ. eigenvalues --   -0.54183  -0.53983  -0.53817  -0.53371  -0.53039
 Alpha  occ. eigenvalues --   -0.52897  -0.52763  -0.52394  -0.51851  -0.51352
 Alpha  occ. eigenvalues --   -0.51110  -0.50970  -0.50529  -0.50069  -0.49841
 Alpha  occ. eigenvalues --   -0.48410  -0.48031  -0.47666  -0.47428  -0.46803
 Alpha  occ. eigenvalues --   -0.46562  -0.45822  -0.45721  -0.45424  -0.45305
 Alpha  occ. eigenvalues --   -0.45091  -0.44898  -0.44184  -0.43794  -0.43738
 Alpha  occ. eigenvalues --   -0.43397  -0.42972  -0.42135  -0.41882  -0.41393
 Alpha  occ. eigenvalues --   -0.40952  -0.39508  -0.37379  -0.37320  -0.36006
 Alpha  occ. eigenvalues --   -0.34584  -0.34148  -0.33968  -0.33569  -0.33509
 Alpha  occ. eigenvalues --   -0.33368  -0.32678  -0.32335  -0.31980  -0.31276
 Alpha  occ. eigenvalues --   -0.31203  -0.30603  -0.29386  -0.28753  -0.28412
 Alpha virt. eigenvalues --   -0.13723  -0.13378  -0.08346  -0.07686  -0.06331
 Alpha virt. eigenvalues --   -0.05530  -0.04847  -0.04572  -0.04135  -0.03649
 Alpha virt. eigenvalues --   -0.02844  -0.02818  -0.02146  -0.01905  -0.01119

 Mulliken charges:
               1
     1  N   -0.750754
     2  H    0.424073
     3  H    0.440972
     4  H    0.424029
     5  C   -0.277043
     6  H    0.250124
     7  H    0.250118
     8  C    0.640206
     9  O   -0.523616
    10  N   -0.603984
    11  H    0.380948
    12  C   -0.212431
    13  H    0.216114
    14  H    0.216245
    15  C    0.620209
    16  O   -0.534545
    17  N   -0.620566
    18  H    0.368967
    19  C   -0.200584
    20  H    0.201630
    21  H    0.201859
    22  C    0.612426
    23  O   -0.532738
    24  N   -0.622098
    25  H    0.363259
    26  C   -0.195824
    27  H    0.198329
    28  H    0.197675
    29  C    0.608435
    30  O   -0.532073
    31  N   -0.621207
    32  H    0.362831
    33  C   -0.201276
    34  H    0.207171
    35  H    0.193894
    36  C    0.592045
    37  O   -0.509715
    38  N   -0.615391
    39  H    0.342514
    40  C   -0.230909
    41  H    0.225821
    42  H    0.191168
    43  C    0.591524
    44  O   -0.512899
    45  N   -0.606329
    46  H    0.349307
    47  C   -0.192032
    48  H    0.189729
    49  H    0.194969
    50  C    0.604932
    51  O   -0.543714
    52  N   -0.621129
    53  H    0.359199
    54  C   -0.193650
    55  H    0.187764
    56  H    0.216736
    57  C    0.621192
    58  O   -0.545913
    59  N   -0.582771
    60  H    0.347789
    61  C   -0.241754
    62  H    0.198069
    63  H    0.187474
    64  C    0.585490
    65  O   -0.499068
    66  N   -0.569806
    67  H    0.365056
    68  C   -0.240213
    69  H    0.196789
    70  H    0.226806
    71  C    0.588740
    72  O   -0.473716
    73  O   -0.551998
    74  H    0.417118
 Sum of Mulliken charges =   1.00000

 Dipole moment (field-independent basis, Debye):
    X=             -9.6718    Y=             51.4720    Z=            -31.2019  Tot=             60.9629
 Quadrupole moment (field-independent basis, Debye-Ang):
   XX=           -190.6045   YY=            558.7893   ZZ=            -51.3255
   XY=           -164.6144   XZ=             37.8164   YZ=           -322.8324

 Normal termination of Gaussian 16 at Sun Jul  3 18:10:17 2022.
