 Gaussian 16, Revision C.01,
 Gaussian 16:  ES64L-G16RevC.01  3-Jul-2019

 ----------------------------------------------------------------------
 # B3LYP/6-31G* empiricaldispersion=gd3 guess=read geom=check nosymm in
 tegral(ultrafinegrid)
 ----------------------------------------------------------------------

 ------------------------------------------------------
 Candidate Structure: Conf:497 Charge calc in gas phase
 ------------------------------------------------------
 Structure from the checkpoint file:  "conf-497.chk"
 Charge =  1 Multiplicity = 1

                          Input orientation:
 ---------------------------------------------------------------------
 Center     Atomic      Atomic             Coordinates (Angstroms)
 Number     Number       Type             X           Y           Z
 ---------------------------------------------------------------------
      1          7           0       -3.938238    4.384043    0.969121
      2          1           0       -4.123178    3.695445    0.231471
      3          1           0       -4.775355    4.896085    1.260045
      4          1           0       -3.270930    5.087834    0.547784
      5          6           0       -3.284197    3.718014    2.140563
      6          1           0       -4.029161    3.108403    2.658994
      7          1           0       -2.488161    3.085051    1.748809
      8          6           0       -2.758683    4.837356    3.039981
      9          8           0       -3.367424    5.905186    3.094343
     10          7           0       -1.605548    4.561925    3.692793
     11          1           0       -1.062238    3.771002    3.347030
     12          6           0       -0.832844    5.649153    4.298330
     13          1           0       -0.227304    5.263280    5.118929
     14          1           0       -1.528675    6.401862    4.674602
     15          6           0        0.098854    6.200472    3.208092
     16          8           0        1.297640    5.921449    3.185382
     17          7           0       -0.529280    6.906273    2.233160
     18          1           0       -1.533049    7.039439    2.320557
     19          6           0       -0.005357    6.968190    0.875952
     20          1           0        0.010822    7.997616    0.504811
     21          1           0        1.013886    6.586378    0.866196
     22          6           0       -0.932615    6.142156   -0.019665
     23          8           0       -2.168763    6.244944    0.127491
     24          7           0       -0.364186    5.359102   -0.942213
     25          1           0        0.645628    5.235286   -0.904326
     26          6           0       -1.137727    4.474638   -1.807770
     27          1           0       -2.113874    4.919931   -1.997489
     28          1           0       -0.587552    4.347479   -2.741662
     29          6           0       -1.338121    3.129396   -1.095638
     30          8           0       -2.428107    2.788532   -0.624083
     31          7           0       -0.204646    2.402078   -0.971938
     32          1           0        0.639498    2.754813   -1.423074
     33          6           0       -0.090139    1.316805   -0.017760
     34          1           0        0.592706    0.556013   -0.407198
     35          1           0       -1.078110    0.865050    0.105587
     36          6           0        0.362498    1.861944    1.348762
     37          8           0       -0.264570    2.776746    1.891988
     38          7           0        1.451980    1.275074    1.896517
     39          1           0        2.022200    0.689546    1.297342
     40          6           0        2.196447    1.894300    2.994541
     41          1           0        1.503309    2.472866    3.605464
     42          1           0        2.654163    1.111978    3.605114
     43          6           0        3.284044    2.746096    2.329150
     44          8           0        4.042774    2.221290    1.510603
     45          7           0        3.276607    4.073269    2.585027
     46          1           0        2.482933    4.501029    3.060467
     47          6           0        3.959909    4.942159    1.637332
     48          1           0        3.692310    5.972515    1.879864
     49          1           0        5.044738    4.822467    1.708424
     50          6           0        3.432752    4.599331    0.238809
     51          8           0        2.221743    4.573502    0.020089
     52          7           0        4.336633    4.265282   -0.727545
     53          1           0        5.253761    3.996587   -0.390971
     54          6           0        3.823635    3.474608   -1.845457
     55          1           0        3.356229    2.553566   -1.482889
     56          1           0        4.663485    3.213983   -2.496069
     57          6           0        2.771720    4.230094   -2.660505
     58          8           0        1.677239    3.725129   -2.923542
     59          7           0        3.167117    5.440599   -3.125364
     60          1           0        3.956055    5.870207   -2.657759
     61          6           0        2.240307    6.323143   -3.799838
     62          1           0        1.586456    5.714390   -4.429488
     63          1           0        2.802977    7.000254   -4.451842
     64          6           0        1.421032    7.157604   -2.799478
     65          8           0        1.798220    7.322350   -1.642517
     66          7           0        0.277084    7.683875   -3.301794
     67          1           0        0.042216    7.548785   -4.276229
     68          6           0       -0.552860    8.593032   -2.531347
     69          1           0        0.074292    9.117734   -1.805193
     70          1           0       -1.319463    8.054531   -1.958449
     71          6           0       -1.281644    9.635188   -3.363292
     72          8           0       -1.944670   10.516443   -2.877889
     73          8           0       -1.129464    9.441852   -4.695901
     74          1           0       -1.640519   10.140337   -5.148122
 ---------------------------------------------------------------------

 SCF Done:  E(RB3LYP) =  -2157.08684228     A.U. after    3 cycles

 Alpha  occ. eigenvalues --  -19.29499 -19.23788 -19.23658 -19.23532 -19.23248
 Alpha  occ. eigenvalues --  -19.23182 -19.23068 -19.23004 -19.22327 -19.22081
 Alpha  occ. eigenvalues --  -19.21499 -14.54747 -14.47959 -14.47595 -14.47154
 Alpha  occ. eigenvalues --  -14.47119 -14.46947 -14.46899 -14.46620 -14.45693
 Alpha  occ. eigenvalues --  -14.45242 -10.41840 -10.40740 -10.40519 -10.40334
 Alpha  occ. eigenvalues --  -10.40252 -10.40203 -10.39914 -10.39349 -10.39218
 Alpha  occ. eigenvalues --  -10.38556 -10.35688 -10.33980 -10.33914 -10.33666
 Alpha  occ. eigenvalues --  -10.33455 -10.33360 -10.33105 -10.32842 -10.32808
 Alpha  occ. eigenvalues --  -10.32156  -1.20066  -1.16025  -1.15733  -1.15423
 Alpha  occ. eigenvalues --   -1.15020  -1.14770  -1.14181  -1.13821  -1.13695
 Alpha  occ. eigenvalues --   -1.13194  -1.11142  -1.09458  -1.04389  -1.03981
 Alpha  occ. eigenvalues --   -1.03829  -1.03597  -1.03077  -1.02885  -1.02580
 Alpha  occ. eigenvalues --   -1.02041  -1.01694  -0.87817  -0.87642  -0.87038
 Alpha  occ. eigenvalues --   -0.85799  -0.84814  -0.83186  -0.81943  -0.80628
 Alpha  occ. eigenvalues --   -0.79219  -0.78273  -0.72120  -0.71667  -0.70741
 Alpha  occ. eigenvalues --   -0.70264  -0.70178  -0.69512  -0.69354  -0.69009
 Alpha  occ. eigenvalues --   -0.68784  -0.68398  -0.68092  -0.67248  -0.65352
 Alpha  occ. eigenvalues --   -0.64580  -0.64306  -0.63327  -0.62705  -0.62006
 Alpha  occ. eigenvalues --   -0.61310  -0.61140  -0.59992  -0.59895  -0.59628
 Alpha  occ. eigenvalues --   -0.59333  -0.58932  -0.58470  -0.57795  -0.57648
 Alpha  occ. eigenvalues --   -0.57322  -0.56878  -0.56618  -0.56205  -0.55866
 Alpha  occ. eigenvalues --   -0.55747  -0.55221  -0.54821  -0.54281  -0.53935
 Alpha  occ. eigenvalues --   -0.53852  -0.53251  -0.52908  -0.52497  -0.52041
 Alpha  occ. eigenvalues --   -0.51518  -0.51332  -0.51215  -0.51123  -0.50690
 Alpha  occ. eigenvalues --   -0.50488  -0.50129  -0.49705  -0.49363  -0.49107
 Alpha  occ. eigenvalues --   -0.48711  -0.48643  -0.48277  -0.47922  -0.47721
 Alpha  occ. eigenvalues --   -0.47560  -0.47164  -0.46343  -0.46267  -0.45779
 Alpha  occ. eigenvalues --   -0.41269  -0.39574  -0.39393  -0.39076  -0.38666
 Alpha  occ. eigenvalues --   -0.38503  -0.38292  -0.37826  -0.37705  -0.37555
 Alpha  occ. eigenvalues --   -0.37206  -0.36976  -0.36010  -0.35909  -0.35636
 Alpha  occ. eigenvalues --   -0.35386  -0.35298  -0.35017  -0.34696  -0.34199
 Alpha virt. eigenvalues --   -0.11241  -0.10977  -0.10715  -0.09692  -0.09396
 Alpha virt. eigenvalues --   -0.08398  -0.08037  -0.07702  -0.07388  -0.07053
 Alpha virt. eigenvalues --   -0.04497  -0.03452  -0.02418  -0.01648  -0.00829

 Mulliken charges:
               1
     1  N   -0.752325
     2  H    0.418302
     3  H    0.402005
     4  H    0.455494
     5  C   -0.302592
     6  H    0.222698
     7  H    0.259550
     8  C    0.610536
     9  O   -0.522946
    10  N   -0.595734
    11  H    0.386674
    12  C   -0.244950
    13  H    0.193524
    14  H    0.216128
    15  C    0.596905
    16  O   -0.526192
    17  N   -0.575861
    18  H    0.374239
    19  C   -0.232965
    20  H    0.201032
    21  H    0.224134
    22  C    0.614118
    23  O   -0.594071
    24  N   -0.597641
    25  H    0.428045
    26  C   -0.259272
    27  H    0.185523
    28  H    0.213905
    29  C    0.616722
    30  O   -0.565398
    31  N   -0.576782
    32  H    0.391291
    33  C   -0.249597
    34  H    0.175356
    35  H    0.217374
    36  C    0.634874
    37  O   -0.542043
    38  N   -0.562436
    39  H    0.353878
    40  C   -0.240509
    41  H    0.186765
    42  H    0.204389
    43  C    0.605957
    44  O   -0.545573
    45  N   -0.577804
    46  H    0.390808
    47  C   -0.226326
    48  H    0.213955
    49  H    0.180794
    50  C    0.621947
    51  O   -0.537581
    52  N   -0.579964
    53  H    0.359358
    54  C   -0.232283
    55  H    0.187255
    56  H    0.198116
    57  C    0.628427
    58  O   -0.550547
    59  N   -0.543011
    60  H    0.356030
    61  C   -0.261375
    62  H    0.201232
    63  H    0.203959
    64  C    0.627025
    65  O   -0.533160
    66  N   -0.602883
    67  H    0.358498
    68  C   -0.230882
    69  H    0.226561
    70  H    0.211602
    71  C    0.583535
    72  O   -0.430046
    73  O   -0.577417
    74  H    0.431646
 Sum of Mulliken charges =   1.00000

 Dipole moment (field-independent basis, Debye):
    X=              1.1503    Y=             20.3175    Z=             -2.6667  Tot=             20.5240
 Quadrupole moment (field-independent basis, Debye-Ang):
   XX=           -170.0398   YY=           -125.6623   ZZ=           -176.7652
   XY=             11.4300   XZ=            -13.0246   YZ=            -44.5498

 Normal termination of Gaussian 16 at Sun Jul  3 18:10:55 2022.
