 Gaussian 16, Revision C.01,
 Gaussian 16:  ES64L-G16RevC.01  3-Jul-2019

 ----------------------------------------------------------------------
 # B3LYP/6-31G* empiricaldispersion=gd3 guess=read geom=check nosymm in
 tegral(ultrafinegrid)
 ----------------------------------------------------------------------

 ------------------------------------------------------
 Candidate Structure: Conf:510 Charge calc in gas phase
 ------------------------------------------------------
 Structure from the checkpoint file:  "conf-510.chk"
 Charge =  1 Multiplicity = 1

                          Input orientation:
 ---------------------------------------------------------------------
 Center     Atomic      Atomic             Coordinates (Angstroms)
 Number     Number       Type             X           Y           Z
 ---------------------------------------------------------------------
      1          7           0        4.748417    1.919590   -7.035814
      2          1           0        5.558279    1.945143   -7.660453
      3          1           0        5.143264    1.903209   -6.057146
      4          1           0        4.239941    1.029885   -7.233099
      5          6           0        3.876214    3.110051   -7.179366
      6          1           0        4.435807    3.984983   -6.837264
      7          1           0        3.605759    3.242361   -8.230802
      8          6           0        2.613792    2.908983   -6.331862
      9          8           0        2.354868    1.823380   -5.809536
     10          7           0        1.794466    3.974913   -6.243834
     11          1           0        2.162806    4.886329   -6.484650
     12          6           0        0.664267    3.940302   -5.330128
     13          1           0        0.115184    3.008334   -5.486318
     14          1           0       -0.002843    4.772717   -5.571723
     15          6           0        1.140660    4.064762   -3.867874
     16          8           0        2.255514    4.510356   -3.601688
     17          7           0        0.239172    3.681971   -2.943538
     18          1           0       -0.597113    3.160699   -3.192467
     19          6           0        0.521176    3.718114   -1.522845
     20          1           0        1.504159    3.277799   -1.313943
     21          1           0        0.534328    4.748002   -1.146688
     22          6           0       -0.537344    2.875312   -0.810939
     23          8           0       -1.306683    2.156622   -1.457112
     24          7           0       -0.559020    2.966916    0.536761
     25          1           0        0.223183    3.417918    0.995509
     26          6           0       -1.345692    2.034700    1.350107
     27          1           0       -1.497758    2.466583    2.339177
     28          1           0       -2.310479    1.888574    0.858507
     29          6           0       -0.572997    0.716042    1.504539
     30          8           0        0.022414    0.420676    2.526915
     31          7           0       -0.560054   -0.059080    0.367384
     32          1           0       -0.939114    0.364066   -0.474746
     33          6           0        0.503214   -1.015424    0.210479
     34          1           0        0.249295   -1.732414   -0.577859
     35          1           0        0.617402   -1.568161    1.148822
     36          6           0        1.848967   -0.333580   -0.104640
     37          8           0        1.991002    0.892068   -0.066438
     38          7           0        2.865438   -1.181638   -0.405751
     39          1           0        2.679575   -2.175459   -0.405937
     40          6           0        4.262065   -0.754741   -0.497462
     41          1           0        4.496572   -0.111123    0.358115
     42          1           0        4.898208   -1.638884   -0.458921
     43          6           0        4.580093   -0.015231   -1.807178
     44          8           0        5.197189   -0.535905   -2.731629
     45          7           0        4.150752    1.281709   -1.833278
     46          1           0        3.449659    1.523840   -1.132080
     47          6           0        4.201261    2.030624   -3.075513
     48          1           0        3.778328    1.450436   -3.897297
     49          1           0        3.613842    2.947660   -2.972691
     50          6           0        5.614855    2.400121   -3.500633
     51          8           0        5.893032    2.575822   -4.702703
     52          7           0        6.521472    2.550710   -2.519740
     53          1           0        6.219212    2.249004   -1.599800
     54          6           0        7.960941    2.450783   -2.783794
     55          1           0        8.509209    2.853546   -1.932290
     56          1           0        8.195936    3.024390   -3.682023
     57          6           0        8.236882    0.944081   -2.914169
     58          8           0        8.434895    0.250318   -1.927070
     59          7           0        8.077214    0.460239   -4.179266
     60          1           0        7.756615    1.096443   -4.900384
     61          6           0        7.742249   -0.931739   -4.401948
     62          1           0        7.507352   -1.392053   -3.439836
     63          1           0        8.581813   -1.484529   -4.846788
     64          6           0        6.576486   -1.014409   -5.381159
     65          8           0        6.421010   -0.177796   -6.276213
     66          7           0        5.778364   -2.107373   -5.268867
     67          1           0        5.692770   -2.525902   -4.352373
     68          6           0        4.727945   -2.344500   -6.248320
     69          1           0        4.145688   -3.211397   -5.925304
     70          1           0        5.165650   -2.552892   -7.226613
     71          6           0        3.803930   -1.145615   -6.424842
     72          8           0        3.619285   -0.590287   -7.499197
     73          8           0        3.239359   -0.745548   -5.286724
     74          1           0        2.732843    0.079721   -5.478906
 ---------------------------------------------------------------------

 SCF Done:  E(RB3LYP) =  -2157.07202160     A.U. after    2 cycles

 Alpha  occ. eigenvalues --  -19.29667 -19.26873 -19.24844 -19.24076 -19.23447
 Alpha  occ. eigenvalues --  -19.22900 -19.22897 -19.22889 -19.22606 -19.19754
 Alpha  occ. eigenvalues --  -19.19691 -14.54689 -14.50084 -14.47856 -14.47258
 Alpha  occ. eigenvalues --  -14.46913 -14.46879 -14.46853 -14.46187 -14.44180
 Alpha  occ. eigenvalues --  -14.43849 -10.43958 -10.43234 -10.40502 -10.40024
 Alpha  occ. eigenvalues --  -10.39947 -10.39942 -10.39584 -10.39507 -10.38549
 Alpha  occ. eigenvalues --  -10.37081 -10.36855 -10.35109 -10.33880 -10.33761
 Alpha  occ. eigenvalues --  -10.33650 -10.32634 -10.32574 -10.32241 -10.31663
 Alpha  occ. eigenvalues --  -10.31545  -1.21394  -1.18713  -1.15523  -1.15148
 Alpha  occ. eigenvalues --   -1.14950  -1.14525  -1.14229  -1.14093  -1.12220
 Alpha  occ. eigenvalues --   -1.11658  -1.11610  -1.10123  -1.06292  -1.04130
 Alpha  occ. eigenvalues --   -1.03637  -1.03270  -1.03044  -1.02860  -1.02122
 Alpha  occ. eigenvalues --   -1.00656  -1.00583  -0.89468  -0.87483  -0.86569
 Alpha  occ. eigenvalues --   -0.86192  -0.84657  -0.83457  -0.81932  -0.80557
 Alpha  occ. eigenvalues --   -0.78928  -0.77960  -0.73439  -0.72367  -0.71313
 Alpha  occ. eigenvalues --   -0.70668  -0.70332  -0.69999  -0.69249  -0.68889
 Alpha  occ. eigenvalues --   -0.68416  -0.67915  -0.66785  -0.66778  -0.65928
 Alpha  occ. eigenvalues --   -0.64239  -0.64083  -0.63668  -0.63204  -0.62042
 Alpha  occ. eigenvalues --   -0.61793  -0.61163  -0.60619  -0.60011  -0.59469
 Alpha  occ. eigenvalues --   -0.59181  -0.58698  -0.58650  -0.58459  -0.58311
 Alpha  occ. eigenvalues --   -0.57681  -0.57522  -0.56760  -0.56198  -0.55768
 Alpha  occ. eigenvalues --   -0.55333  -0.55001  -0.54638  -0.54326  -0.54180
 Alpha  occ. eigenvalues --   -0.54031  -0.53567  -0.53174  -0.52649  -0.52439
 Alpha  occ. eigenvalues --   -0.52194  -0.51689  -0.51304  -0.50637  -0.50509
 Alpha  occ. eigenvalues --   -0.50307  -0.49904  -0.49680  -0.49205  -0.49003
 Alpha  occ. eigenvalues --   -0.48560  -0.48319  -0.48184  -0.48114  -0.47168
 Alpha  occ. eigenvalues --   -0.46803  -0.46443  -0.45998  -0.45237  -0.44535
 Alpha  occ. eigenvalues --   -0.42688  -0.41331  -0.40238  -0.39487  -0.39241
 Alpha  occ. eigenvalues --   -0.38977  -0.38280  -0.38175  -0.37689  -0.37206
 Alpha  occ. eigenvalues --   -0.37047  -0.36395  -0.36322  -0.36055  -0.36028
 Alpha  occ. eigenvalues --   -0.34984  -0.34106  -0.33926  -0.32736  -0.32555
 Alpha virt. eigenvalues --   -0.12499  -0.11154  -0.10230  -0.09599  -0.09239
 Alpha virt. eigenvalues --   -0.08737  -0.08534  -0.08183  -0.05944  -0.05906
 Alpha virt. eigenvalues --   -0.05606  -0.04270  -0.02583  -0.01917  -0.01102

 Mulliken charges:
               1
     1  N   -0.788256
     2  H    0.406296
     3  H    0.454275
     4  H    0.447408
     5  C   -0.275026
     6  H    0.232564
     7  H    0.234093
     8  C    0.652859
     9  O   -0.546061
    10  N   -0.558673
    11  H    0.359875
    12  C   -0.254948
    13  H    0.207808
    14  H    0.211183
    15  C    0.625186
    16  O   -0.530428
    17  N   -0.605486
    18  H    0.363914
    19  C   -0.201276
    20  H    0.203833
    21  H    0.199161
    22  C    0.615834
    23  O   -0.545870
    24  N   -0.574027
    25  H    0.354064
    26  C   -0.250244
    27  H    0.200298
    28  H    0.207097
    29  C    0.596220
    30  O   -0.489529
    31  N   -0.574378
    32  H    0.364550
    33  C   -0.256068
    34  H    0.180935
    35  H    0.224924
    36  C    0.629129
    37  O   -0.545901
    38  N   -0.586075
    39  H    0.352419
    40  C   -0.237240
    41  H    0.202092
    42  H    0.197568
    43  C    0.600156
    44  O   -0.516910
    45  N   -0.631930
    46  H    0.390429
    47  C   -0.271919
    48  H    0.186627
    49  H    0.238937
    50  C    0.648041
    51  O   -0.602180
    52  N   -0.552427
    53  H    0.359422
    54  C   -0.238686
    55  H    0.200081
    56  H    0.191733
    57  C    0.587801
    58  O   -0.502557
    59  N   -0.581254
    60  H    0.353194
    61  C   -0.203073
    62  H    0.205399
    63  H    0.198587
    64  C    0.622869
    65  O   -0.571207
    66  N   -0.572764
    67  H    0.359172
    68  C   -0.201082
    69  H    0.195794
    70  H    0.212535
    71  C    0.596146
    72  O   -0.502374
    73  O   -0.565828
    74  H    0.463172
 Sum of Mulliken charges =   1.00000

 Dipole moment (field-independent basis, Debye):
    X=             14.4038    Y=              8.3040    Z=            -22.0176  Tot=             27.5899
 Quadrupole moment (field-independent basis, Debye-Ang):
   XX=           -165.0628   YY=           -162.7925   ZZ=            -97.5129
   XY=             14.6504   XZ=            -84.9088   YZ=            -49.7420

 Normal termination of Gaussian 16 at Sun Jul  3 18:10:30 2022.
