 Gaussian 16, Revision C.01,
 Gaussian 16:  ES64L-G16RevC.01  3-Jul-2019

 ----------------------------------------------------------------------
 # B3LYP/6-31G* empiricaldispersion=gd3 guess=read geom=check nosymm in
 tegral(ultrafinegrid)
 ----------------------------------------------------------------------

 ------------------------------------------------------
 Candidate Structure: Conf:217 Charge calc in gas phase
 ------------------------------------------------------
 Structure from the checkpoint file:  "conf-217.chk"
 Charge =  1 Multiplicity = 1

                          Input orientation:
 ---------------------------------------------------------------------
 Center     Atomic      Atomic             Coordinates (Angstroms)
 Number     Number       Type             X           Y           Z
 ---------------------------------------------------------------------
      1          7           0       -1.867510    2.689239   -3.366896
      2          1           0       -0.967825    2.476345   -3.848407
      3          1           0       -2.250455    3.527010   -3.854091
      4          1           0       -1.619604    3.003065   -2.414744
      5          6           0       -2.794370    1.530060   -3.336788
      6          1           0       -2.795689    1.062745   -4.324731
      7          1           0       -2.432560    0.823369   -2.590657
      8          6           0       -4.193065    2.068176   -3.054975
      9          8           0       -4.618428    2.998418   -3.742110
     10          7           0       -4.888585    1.478226   -2.057027
     11          1           0       -4.358624    0.967958   -1.359436
     12          6           0       -6.189017    2.016504   -1.643480
     13          1           0       -6.733943    1.252655   -1.089262
     14          1           0       -6.744819    2.290331   -2.543088
     15          6           0       -5.953278    3.218374   -0.718910
     16          8           0       -6.080777    3.125153    0.502200
     17          7           0       -5.489873    4.330845   -1.347866
     18          1           0       -5.290563    4.257050   -2.342766
     19          6           0       -4.863318    5.414204   -0.598175
     20          1           0       -4.732817    6.271820   -1.258470
     21          1           0       -5.512431    5.693224    0.236598
     22          6           0       -3.479797    4.978830   -0.092145
     23          8           0       -2.426012    5.310648   -0.639622
     24          7           0       -3.506339    4.159938    0.988857
     25          1           0       -4.407947    3.772616    1.262822
     26          6           0       -2.286544    3.571262    1.478591
     27          1           0       -1.605486    4.359254    1.821657
     28          1           0       -2.529270    2.944272    2.342276
     29          6           0       -1.573008    2.692739    0.437420
     30          8           0       -2.177026    2.072672   -0.439027
     31          7           0       -0.230222    2.592795    0.642429
     32          1           0        0.207505    3.328445    1.184525
     33          6           0        0.633391    1.915884   -0.300741
     34          1           0        0.107983    1.031541   -0.674267
     35          1           0        1.545449    1.582536    0.202859
     36          6           0        0.951967    2.825612   -1.494460
     37          8           0        0.175804    3.728185   -1.818673
     38          7           0        2.069352    2.544994   -2.193982
     39          1           0        2.768916    1.934961   -1.793052
     40          6           0        2.432840    3.347247   -3.353752
     41          1           0        2.799190    4.330438   -3.048638
     42          1           0        3.224338    2.821460   -3.895004
     43          6           0        1.242287    3.489836   -4.306804
     44          8           0        0.584363    2.500674   -4.655694
     45          7           0        1.038642    4.742510   -4.768255
     46          1           0        1.402253    5.504175   -4.195297
     47          6           0       -0.025638    5.053417   -5.715148
     48          1           0        0.386070    5.616603   -6.560115
     49          1           0       -0.430851    4.112055   -6.088490
     50          6           0       -1.128816    5.835801   -4.999550
     51          8           0       -1.961896    5.281744   -4.270880
     52          7           0       -1.085186    7.175631   -5.159102
     53          1           0       -0.310691    7.577294   -5.672264
     54          6           0       -1.816505    8.079470   -4.271053
     55          1           0       -2.773641    7.613091   -4.028712
     56          1           0       -1.983657    9.028966   -4.779646
     57          6           0       -0.948582    8.334937   -3.027462
     58          8           0       -0.266758    9.344382   -2.920244
     59          7           0       -0.951386    7.313172   -2.127149
     60          1           0       -1.552737    6.504678   -2.243316
     61          6           0       -0.068661    7.316137   -0.996001
     62          1           0       -0.591604    6.879104   -0.140693
     63          1           0        0.193862    8.355273   -0.766437
     64          6           0        1.239791    6.553522   -1.248515
     65          8           0        1.699391    6.324920   -2.363367
     66          7           0        1.873799    6.188380   -0.093262
     67          1           0        1.456183    6.442709    0.791498
     68          6           0        3.152118    5.512801   -0.061627
     69          1           0        3.904708    6.115789    0.466185
     70          1           0        3.496401    5.368781   -1.084227
     71          6           0        3.102675    4.158746    0.629005
     72          8           0        3.702794    3.168364    0.283135
     73          8           0        2.311113    4.184033    1.739888
     74          1           0        2.458572    3.341075    2.212089
 ---------------------------------------------------------------------

 SCF Done:  E(RB3LYP) =  -2157.08987060     A.U. after    3 cycles

 Alpha  occ. eigenvalues --  -19.32901 -19.27079 -19.24100 -19.24005 -19.23962
 Alpha  occ. eigenvalues --  -19.23688 -19.23238 -19.22778 -19.22516 -19.22075
 Alpha  occ. eigenvalues --  -19.19532 -14.52185 -14.48481 -14.48455 -14.48211
 Alpha  occ. eigenvalues --  -14.47946 -14.47644 -14.47395 -14.46023 -14.46002
 Alpha  occ. eigenvalues --  -14.43926 -10.45020 -10.41228 -10.41127 -10.40966
 Alpha  occ. eigenvalues --  -10.40724 -10.40594 -10.39756 -10.39128 -10.39051
 Alpha  occ. eigenvalues --  -10.36966 -10.35930 -10.35207 -10.35115 -10.34239
 Alpha  occ. eigenvalues --  -10.34078 -10.33998 -10.33252 -10.32764 -10.32157
 Alpha  occ. eigenvalues --  -10.31742  -1.23435  -1.16699  -1.16155  -1.15644
 Alpha  occ. eigenvalues --   -1.15304  -1.14579  -1.14529  -1.14399  -1.14198
 Alpha  occ. eigenvalues --   -1.13408  -1.11505  -1.08003  -1.04628  -1.04401
 Alpha  occ. eigenvalues --   -1.04361  -1.04108  -1.03867  -1.03307  -1.02851
 Alpha  occ. eigenvalues --   -1.02047  -1.00498  -0.88777  -0.87867  -0.87521
 Alpha  occ. eigenvalues --   -0.86728  -0.85024  -0.83711  -0.82102  -0.80796
 Alpha  occ. eigenvalues --   -0.79359  -0.78576  -0.74223  -0.72340  -0.71244
 Alpha  occ. eigenvalues --   -0.70679  -0.70514  -0.70115  -0.69318  -0.69276
 Alpha  occ. eigenvalues --   -0.67983  -0.67640  -0.67205  -0.66907  -0.65657
 Alpha  occ. eigenvalues --   -0.64726  -0.64312  -0.64053  -0.63559  -0.62696
 Alpha  occ. eigenvalues --   -0.61512  -0.61185  -0.61035  -0.60889  -0.60303
 Alpha  occ. eigenvalues --   -0.60098  -0.59541  -0.59077  -0.58806  -0.58360
 Alpha  occ. eigenvalues --   -0.58131  -0.57576  -0.57265  -0.56482  -0.56362
 Alpha  occ. eigenvalues --   -0.55598  -0.55147  -0.54719  -0.54489  -0.54169
 Alpha  occ. eigenvalues --   -0.53890  -0.53681  -0.52967  -0.52467  -0.52383
 Alpha  occ. eigenvalues --   -0.52249  -0.51753  -0.51582  -0.51418  -0.50951
 Alpha  occ. eigenvalues --   -0.50822  -0.50639  -0.50590  -0.49698  -0.49602
 Alpha  occ. eigenvalues --   -0.49219  -0.48709  -0.48514  -0.48381  -0.48150
 Alpha  occ. eigenvalues --   -0.47669  -0.47175  -0.46846  -0.46092  -0.45701
 Alpha  occ. eigenvalues --   -0.45030  -0.41498  -0.39610  -0.39461  -0.39391
 Alpha  occ. eigenvalues --   -0.38690  -0.38569  -0.38313  -0.38116  -0.37789
 Alpha  occ. eigenvalues --   -0.37531  -0.37206  -0.36630  -0.36304  -0.35919
 Alpha  occ. eigenvalues --   -0.35753  -0.35011  -0.34419  -0.33484  -0.32786
 Alpha virt. eigenvalues --   -0.12896  -0.11643  -0.11261  -0.10462  -0.09319
 Alpha virt. eigenvalues --   -0.09218  -0.08784  -0.07866  -0.07651  -0.06657
 Alpha virt. eigenvalues --   -0.05693  -0.03266  -0.02611  -0.02199  -0.01297

 Mulliken charges:
               1
     1  N   -0.835411
     2  H    0.442194
     3  H    0.436065
     4  H    0.441324
     5  C   -0.233351
     6  H    0.225634
     7  H    0.205750
     8  C    0.614752
     9  O   -0.519804
    10  N   -0.568934
    11  H    0.364397
    12  C   -0.245587
    13  H    0.206084
    14  H    0.214183
    15  C    0.596312
    16  O   -0.522640
    17  N   -0.581503
    18  H    0.382164
    19  C   -0.234596
    20  H    0.189169
    21  H    0.205475
    22  C    0.588153
    23  O   -0.534284
    24  N   -0.572215
    25  H    0.389290
    26  C   -0.235188
    27  H    0.173229
    28  H    0.206053
    29  C    0.649276
    30  O   -0.568496
    31  N   -0.579058
    32  H    0.348314
    33  C   -0.264410
    34  H    0.215074
    35  H    0.184793
    36  C    0.605337
    37  O   -0.541015
    38  N   -0.569664
    39  H    0.362728
    40  C   -0.227732
    41  H    0.205897
    42  H    0.204144
    43  C    0.628228
    44  O   -0.563172
    45  N   -0.581946
    46  H    0.394731
    47  C   -0.242830
    48  H    0.184515
    49  H    0.210410
    50  C    0.626001
    51  O   -0.552390
    52  N   -0.560149
    53  H    0.355930
    54  C   -0.239863
    55  H    0.196249
    56  H    0.202078
    57  C    0.584176
    58  O   -0.494776
    59  N   -0.587298
    60  H    0.380954
    61  C   -0.246023
    62  H    0.179135
    63  H    0.220431
    64  C    0.657961
    65  O   -0.537394
    66  N   -0.601798
    67  H    0.348897
    68  C   -0.217645
    69  H    0.216000
    70  H    0.225470
    71  C    0.596397
    72  O   -0.456417
    73  O   -0.576376
    74  H    0.428613
 Sum of Mulliken charges =   1.00000

 Dipole moment (field-independent basis, Debye):
    X=             -1.9242    Y=             16.2768    Z=             -6.4704  Tot=             17.6211
 Quadrupole moment (field-independent basis, Debye-Ang):
   XX=           -188.0046   YY=           -162.2923   ZZ=           -174.5463
   XY=             -0.9217   XZ=             14.1318   YZ=            -26.5831

 Normal termination of Gaussian 16 at Sun Jul  3 18:11:02 2022.
