 Gaussian 16, Revision C.01,
 Gaussian 16:  ES64L-G16RevC.01  3-Jul-2019

 ----------------------------------------------------------------------
 # B3LYP/6-31G* empiricaldispersion=gd3bj guess=read geom=check nosymm
 integral(ultrafinegrid)
 ----------------------------------------------------------------------

 ------------------------------------------------------
 Candidate Structure: Conf:535 Charge calc in gas phase
 ------------------------------------------------------
 Structure from the checkpoint file:  "conf-535.chk"
 Charge =  1 Multiplicity = 1

                          Input orientation:
 ---------------------------------------------------------------------
 Center     Atomic      Atomic             Coordinates (Angstroms)
 Number     Number       Type             X           Y           Z
 ---------------------------------------------------------------------
      1          7           0        0.790054    3.083785   -4.219290
      2          1           0        1.450364    2.915764   -4.982454
      3          1           0        1.245042    3.666207   -3.509568
      4          1           0       -0.077850    3.537757   -4.615198
      5          6           0        0.230990    1.806401   -3.625326
      6          1           0        0.928765    0.989513   -3.803263
      7          6           0       -1.095532    1.625510   -4.390694
      8          6           0       -0.017840    2.012847   -2.127569
      9          1           0       -0.473353    1.093770   -1.753886
     10          1           0       -0.773548    2.800379   -2.004706
     11          8           0       -1.594986    2.630348   -4.921167
     12          6           0        1.237573    2.337854   -1.296837
     13          1           0        1.637599    3.325045   -1.581065
     14          6           0        0.845088    2.449763    0.181686
     15          1           0        0.579786    1.466054    0.586765
     16          1           0       -0.013608    3.117096    0.318694
     17          1           0        1.682241    2.849789    0.757104
     18          6           0        2.360867    1.314221   -1.496025
     19          1           0        2.015414    0.301984   -1.264572
     20          1           0        2.742295    1.305211   -2.524809
     21          1           0        3.200470    1.562030   -0.845861
     22          7           0       -1.586491    0.390744   -4.385593
     23          1           0       -1.047381   -0.314999   -3.854566
     24          6           0       -2.942218    0.078799   -4.803335
     25          1           0       -3.290334    0.920851   -5.410339
     26          6           0       -3.826729    0.003893   -3.538931
     27          6           0       -2.978620   -1.215453   -5.654841
     28          1           0       -4.012926   -1.331258   -6.007540
     29          8           0       -3.380555    0.300499   -2.423372
     30          6           0       -2.090259   -1.067471   -6.894578
     31          1           0       -1.035561   -0.988462   -6.611281
     32          1           0       -2.354988   -0.176019   -7.474237
     33          1           0       -2.198291   -1.940773   -7.545106
     34          6           0       -2.610130   -2.461072   -4.837157
     35          1           0       -1.581590   -2.406545   -4.463889
     36          1           0       -2.686891   -3.356681   -5.461079
     37          1           0       -3.279896   -2.598454   -3.982340
     38          7           0       -5.103414   -0.385867   -3.716154
     39          1           0       -5.399879   -0.728324   -4.620462
     40          6           0       -5.996755   -0.647470   -2.580409
     41          1           0       -5.718858    0.067201   -1.801640
     42          6           0       -5.721021   -2.091305   -2.110196
     43          6           0       -7.467995   -0.448179   -2.969581
     44          1           0       -7.700390   -1.192206   -3.743098
     45          8           0       -6.241349   -3.056858   -2.659668
     46          6           0       -8.371046   -0.727273   -1.761322
     47          1           0       -8.140786   -0.044539   -0.933638
     48          1           0       -8.260799   -1.755928   -1.407385
     49          1           0       -9.420862   -0.577871   -2.031757
     50          6           0       -7.708807    0.961393   -3.521732
     51          1           0       -7.486104    1.721101   -2.762356
     52          1           0       -7.089776    1.176785   -4.398649
     53          1           0       -8.757006    1.079410   -3.813972
     54          7           0       -4.831873   -2.199891   -1.089762
     55          1           0       -4.383702   -1.376580   -0.704749
     56          6           0       -4.453668   -3.473848   -0.515465
     57          1           0       -5.350841   -4.059038   -0.286283
     58          6           0       -3.642489   -3.210027    0.741661
     59          6           0       -3.582643   -4.326612   -1.496037
     60          1           0       -2.709877   -3.730017   -1.790194
     61          1           0       -4.197126   -4.515086   -2.378108
     62          8           0       -3.102194   -2.119857    0.959768
     63          8           0       -3.209572   -5.569571   -0.933893
     64          1           0       -2.329741   -5.458574   -0.515240
     65          7           0       -3.471314   -4.290755    1.552486
     66          1           0       -3.672323   -5.174031    1.081901
     67          6           0       -2.318838   -4.302236    2.452846
     68          1           0       -2.400444   -3.440112    3.118967
     69          6           0       -1.038591   -4.203087    1.612510
     70          6           0       -2.374076   -5.583051    3.312970
     71          1           0       -2.397140   -6.445974    2.625143
     72          8           0       -0.926775   -4.822127    0.543251
     73          6           0       -1.178009   -5.718825    4.242796
     74          1           0       -0.249091   -5.855807    3.682047
     75          1           0       -1.082796   -4.834004    4.881602
     76          1           0       -1.326307   -6.587936    4.888395
     77          8           0       -3.532864   -5.552433    4.126561
     78          1           0       -4.299443   -5.381436    3.555367
     79          7           0       -0.079504   -3.407996    2.110250
     80          1           0       -0.222666   -2.911626    2.985719
     81          6           0        1.203618   -3.122203    1.488245
     82          1           0        1.632536   -4.047797    1.089719
     83          6           0        2.087497   -2.532673    2.593003
     84          6           0        1.084696   -2.049797    0.372606
     85          1           0        2.037355   -1.522770    0.266930
     86          1           0        0.373856   -1.302398    0.738699
     87          8           0        1.597591   -2.049346    3.611076
     88          6           0        0.647137   -2.608852   -0.999672
     89          1           0        0.076434   -3.530708   -0.852463
     90          1           0        1.516014   -2.847230   -1.616587
     91          6           0       -0.216372   -1.642003   -1.783503
     92          7           0       -1.354793   -1.248445   -1.190888
     93          1           0       -1.678185   -1.624143   -0.303399
     94          1           0       -2.011913   -0.639333   -1.681976
     95          8           0        0.121365   -1.239325   -2.916176
     96          7           0        3.415927   -2.495366    2.321912
     97          1           0        3.728340   -2.711477    1.380182
     98          6           0        4.259468   -1.519386    2.994387
     99          1           0        4.353898   -1.772532    4.054407
    100          6           0        3.653949   -0.121248    2.813986
    101          6           0        5.651332   -1.538028    2.308735
    102          1           0        6.218011   -0.679016    2.693102
    103          8           0        3.375658    0.279246    1.666632
    104          6           0        6.428538   -2.815292    2.584514
    105          1           0        6.646730   -2.910815    3.652776
    106          1           0        5.867162   -3.697545    2.262678
    107          1           0        7.373444   -2.788540    2.035355
    108          8           0        5.475832   -1.426417    0.898967
    109          1           0        4.887435   -0.658472    0.752593
    110          7           0        3.508316    0.636503    3.909045
    111          1           0        3.668304    0.210996    4.812852
    112          6           0        2.873314    1.964726    3.893124
    113          1           0        2.061935    1.913102    3.158980
    114          6           0        3.897339    3.028210    3.427833
    115          6           0        2.328901    2.289926    5.275785
    116          1           0        1.804421    3.247974    5.253136
    117          1           0        1.629296    1.514685    5.603264
    118          1           0        3.145777    2.385325    5.996554
    119          8           0        4.449227    3.788791    4.212420
    120          7           0        4.101820    3.021838    2.083086
    121          1           0        3.710793    2.243899    1.558621
    122          6           0        5.137067    3.815770    1.447146
    123          1           0        5.503520    4.506676    2.208797
    124          6           0        4.523350    4.590759    0.279428
    125          6           0        6.285181    2.929835    0.923638
    126          1           0        5.869721    2.259214    0.159610
    127          1           0        7.016333    3.570980    0.412043
    128          8           0        3.789823    4.045803   -0.550864
    129          6           0        6.998830    2.108461    2.009238
    130          1           0        6.230523    1.533105    2.545148
    131          6           0        7.966872    1.113211    1.356760
    132          1           0        8.729405    1.637876    0.768142
    133          1           0        7.441457    0.417179    0.693129
    134          1           0        8.490412    0.522575    2.117440
    135          6           0        7.713729    2.998086    3.033848
    136          1           0        8.441681    3.654315    2.539691
    137          1           0        8.262097    2.385343    3.757871
    138          1           0        7.009655    3.618379    3.596512
    139          7           0        4.874719    5.892369    0.203619
    140          1           0        5.509361    6.307262    0.876369
    141          6           0        4.464343    6.744374   -0.896580
    142          1           0        4.582506    6.189623   -1.834442
    143          6           0        5.408410    7.935952   -0.916511
    144          6           0        2.999969    7.199588   -0.769953
    145          1           0        2.714360    7.818220   -1.624940
    146          1           0        2.361416    6.314061   -0.730287
    147          1           0        2.856742    7.776578    0.148670
    148          8           0        6.220109    8.180566   -0.051042
    149          8           0        5.215005    8.703238   -2.004050
    150          1           0        5.830150    9.458405   -1.933908
 ---------------------------------------------------------------------

 SCF Done:  E(RB3LYP) =  -3455.86878644     A.U. after    3 cycles

 Alpha  occ. eigenvalues --  -19.28294 -19.24021 -19.22939 -19.22798 -19.22532
 Alpha  occ. eigenvalues --  -19.22099 -19.21998 -19.21930 -19.21817 -19.21586
 Alpha  occ. eigenvalues --  -19.21426 -19.21298 -19.19836 -19.18933 -19.18832
 Alpha  occ. eigenvalues --  -14.57590 -14.46643 -14.46079 -14.46027 -14.45658
 Alpha  occ. eigenvalues --  -14.45375 -14.45017 -14.44331 -14.43873 -14.43173
 Alpha  occ. eigenvalues --  -14.42813 -10.40742 -10.40542 -10.38993 -10.38884
 Alpha  occ. eigenvalues --  -10.38588 -10.38561 -10.38420 -10.38206 -10.37110
 Alpha  occ. eigenvalues --  -10.36741 -10.36215 -10.35974 -10.33282 -10.33060
 Alpha  occ. eigenvalues --  -10.33041 -10.32835 -10.32534 -10.32194 -10.31903
 Alpha  occ. eigenvalues --  -10.31839 -10.31372 -10.31123 -10.30831 -10.30422
 Alpha  occ. eigenvalues --  -10.29773 -10.29088 -10.28836 -10.28643 -10.27358
 Alpha  occ. eigenvalues --  -10.26594 -10.26520 -10.25876 -10.25775 -10.25765
 Alpha  occ. eigenvalues --  -10.25762 -10.25625 -10.25607 -10.25554 -10.25462
 Alpha  occ. eigenvalues --  -10.24820 -10.24312 -10.23846 -10.23414 -10.22884
 Alpha  occ. eigenvalues --   -1.19346  -1.16441  -1.14780  -1.14292  -1.13883
 Alpha  occ. eigenvalues --   -1.13537  -1.12851  -1.12281  -1.11753  -1.11425
 Alpha  occ. eigenvalues --   -1.10961  -1.10719  -1.10433  -1.10355  -1.09534
 Alpha  occ. eigenvalues --   -1.08917  -1.03685  -1.02699  -1.02388  -1.02337
 Alpha  occ. eigenvalues --   -1.02109  -1.01716  -1.00978  -1.00245  -0.99816
 Alpha  occ. eigenvalues --   -0.98859  -0.92314  -0.90238  -0.89695  -0.88398
 Alpha  occ. eigenvalues --   -0.87990  -0.87074  -0.86425  -0.86382  -0.86113
 Alpha  occ. eigenvalues --   -0.85014  -0.83803  -0.82286  -0.81486  -0.81344
 Alpha  occ. eigenvalues --   -0.79513  -0.78550  -0.77770  -0.77095  -0.76924
 Alpha  occ. eigenvalues --   -0.76162  -0.75702  -0.75079  -0.74270  -0.74013
 Alpha  occ. eigenvalues --   -0.73425  -0.72594  -0.72400  -0.71413  -0.70997
 Alpha  occ. eigenvalues --   -0.70620  -0.69877  -0.69430  -0.69115  -0.68487
 Alpha  occ. eigenvalues --   -0.68138  -0.67856  -0.67382  -0.67162  -0.67135
 Alpha  occ. eigenvalues --   -0.66563  -0.66496  -0.66268  -0.65656  -0.65595
 Alpha  occ. eigenvalues --   -0.65441  -0.64166  -0.63465  -0.62895  -0.62207
 Alpha  occ. eigenvalues --   -0.61817  -0.61253  -0.60747  -0.60587  -0.60332
 Alpha  occ. eigenvalues --   -0.60106  -0.59300  -0.59106  -0.58628  -0.58476
 Alpha  occ. eigenvalues --   -0.58099  -0.57910  -0.57813  -0.57506  -0.56953
 Alpha  occ. eigenvalues --   -0.56692  -0.56198  -0.56065  -0.55854  -0.55600
 Alpha  occ. eigenvalues --   -0.55153  -0.54831  -0.54665  -0.54385  -0.54171
 Alpha  occ. eigenvalues --   -0.53977  -0.53680  -0.53378  -0.53255  -0.53096
 Alpha  occ. eigenvalues --   -0.52945  -0.52365  -0.52234  -0.52141  -0.52038
 Alpha  occ. eigenvalues --   -0.51634  -0.51506  -0.51238  -0.51038  -0.50776
 Alpha  occ. eigenvalues --   -0.50560  -0.50334  -0.50113  -0.49789  -0.49652
 Alpha  occ. eigenvalues --   -0.49384  -0.49281  -0.49209  -0.49032  -0.48959
 Alpha  occ. eigenvalues --   -0.48697  -0.48393  -0.48337  -0.48121  -0.47998
 Alpha  occ. eigenvalues --   -0.47618  -0.47514  -0.47175  -0.47128  -0.46969
 Alpha  occ. eigenvalues --   -0.46824  -0.46743  -0.46613  -0.46544  -0.46402
 Alpha  occ. eigenvalues --   -0.46336  -0.46282  -0.46126  -0.45829  -0.45794
 Alpha  occ. eigenvalues --   -0.45635  -0.45597  -0.45278  -0.44969  -0.44848
 Alpha  occ. eigenvalues --   -0.44774  -0.44728  -0.44485  -0.44052  -0.43977
 Alpha  occ. eigenvalues --   -0.43894  -0.43863  -0.43733  -0.43476  -0.43085
 Alpha  occ. eigenvalues --   -0.42605  -0.42432  -0.42331  -0.42225  -0.42206
 Alpha  occ. eigenvalues --   -0.42132  -0.41550  -0.41243  -0.40765  -0.40682
 Alpha  occ. eigenvalues --   -0.40439  -0.40291  -0.40086  -0.39313  -0.39061
 Alpha  occ. eigenvalues --   -0.38875  -0.38399  -0.37799  -0.37437  -0.37143
 Alpha  occ. eigenvalues --   -0.36884  -0.36792  -0.36584  -0.36492  -0.36173
 Alpha  occ. eigenvalues --   -0.36129  -0.35784  -0.35616  -0.35466  -0.35282
 Alpha  occ. eigenvalues --   -0.34815  -0.34717  -0.34330  -0.34316  -0.33970
 Alpha  occ. eigenvalues --   -0.33387  -0.32252  -0.32008  -0.31830  -0.31817
 Alpha virt. eigenvalues --   -0.09698  -0.09348  -0.08798  -0.08572  -0.08342
 Alpha virt. eigenvalues --   -0.08073  -0.07700  -0.07110  -0.06352  -0.06032
 Alpha virt. eigenvalues --   -0.05197  -0.04901  -0.03928  -0.02318  -0.02028

 Mulliken charges:
               1
     1  N   -0.753439
     2  H    0.409880
     3  H    0.411666
     4  H    0.422119
     5  C   -0.136073
     6  H    0.231028
     7  C    0.637404
     8  C   -0.291881
     9  H    0.200398
    10  H    0.164198
    11  O   -0.552449
    12  C   -0.106825
    13  H    0.137456
    14  C   -0.463949
    15  H    0.153713
    16  H    0.144843
    17  H    0.174868
    18  C   -0.453581
    19  H    0.158267
    20  H    0.112787
    21  H    0.189081
    22  N   -0.618268
    23  H    0.418573
    24  C   -0.090047
    25  H    0.205308
    26  C    0.641277
    27  C   -0.103351
    28  H    0.137933
    29  O   -0.561232
    30  C   -0.446280
    31  H    0.152708
    32  H    0.153323
    33  H    0.167732
    34  C   -0.495702
    35  H    0.170997
    36  H    0.171839
    37  H    0.164009
    38  N   -0.596548
    39  H    0.351144
    40  C   -0.040869
    41  H    0.171799
    42  C    0.632770
    43  C   -0.101262
    44  H    0.155302
    45  O   -0.531623
    46  C   -0.464108
    47  H    0.143549
    48  H    0.172447
    49  H    0.163038
    50  C   -0.447791
    51  H    0.149358
    52  H    0.138855
    53  H    0.163775
    54  N   -0.632812
    55  H    0.358980
    56  C   -0.042318
    57  H    0.193613
    58  C    0.601472
    59  C   -0.062760
    60  H    0.139006
    61  H    0.198222
    62  O   -0.556987
    63  O   -0.648215
    64  H    0.438884
    65  N   -0.620677
    66  H    0.357189
    67  C   -0.073816
    68  H    0.185008
    69  C    0.647276
    70  C    0.130882
    71  H    0.137082
    72  O   -0.574471
    73  C   -0.466283
    74  H    0.154804
    75  H    0.159780
    76  H    0.187039
    77  O   -0.612754
    78  H    0.404370
    79  N   -0.605106
    80  H    0.368049
    81  C   -0.057044
    82  H    0.189729
    83  C    0.620521
    84  C   -0.308965
    85  H    0.184721
    86  H    0.175218
    87  O   -0.534151
    88  C   -0.384204
    89  H    0.223750
    90  H    0.175881
    91  C    0.601081
    92  N   -0.817206
    93  H    0.391044
    94  H    0.409140
    95  O   -0.581234
    96  N   -0.596174
    97  H    0.351457
    98  C   -0.064075
    99  H    0.169851
   100  C    0.662700
   101  C    0.091191
   102  H    0.157398
   103  O   -0.592158
   104  C   -0.451116
   105  H    0.157040
   106  H    0.162171
   107  H    0.182813
   108  O   -0.643038
   109  H    0.418944
   110  N   -0.587728
   111  H    0.355217
   112  C   -0.066048
   113  H    0.183750
   114  C    0.620846
   115  C   -0.478794
   116  H    0.182553
   117  H    0.163729
   118  H    0.184186
   119  O   -0.510550
   120  N   -0.623171
   121  H    0.391882
   122  C   -0.087215
   123  H    0.186045
   124  C    0.647869
   125  C   -0.266053
   126  H    0.144040
   127  H    0.145303
   128  O   -0.563470
   129  C   -0.084171
   130  H    0.119238
   131  C   -0.456754
   132  H    0.147704
   133  H    0.155578
   134  H    0.144494
   135  C   -0.466708
   136  H    0.142387
   137  H    0.147381
   138  H    0.179233
   139  N   -0.610533
   140  H    0.363997
   141  C   -0.018983
   142  H    0.183109
   143  C    0.584733
   144  C   -0.454710
   145  H    0.170990
   146  H    0.172096
   147  H    0.171574
   148  O   -0.456666
   149  O   -0.563364
   150  H    0.428073
 Sum of Mulliken charges =   1.00000

 Dipole moment (field-independent basis, Debye):
    X=              4.6288    Y=              7.1674    Z=             -8.5769  Tot=             12.0979
 Quadrupole moment (field-independent basis, Debye-Ang):
   XX=           -345.4051   YY=           -350.2474   ZZ=           -341.7475
   XY=             20.8548   XZ=             14.6386   YZ=            -54.9665

 Normal termination of Gaussian 16 at Sun Jul 24 19:03:38 2022.
