 Gaussian 16, Revision C.01,
 Gaussian 16:  ES64L-G16RevC.01  3-Jul-2019

 ----------------------------------------------------------------------
 # B3LYP/6-31G* empiricaldispersion=gd3bj guess=read geom=check nosymm
 integral(ultrafinegrid)
 ----------------------------------------------------------------------

 ------------------------------------------------------
 Candidate Structure: Conf:981 Charge calc in gas phase
 ------------------------------------------------------
 Structure from the checkpoint file:  "conf-981.chk"
 Charge =  1 Multiplicity = 1

                          Input orientation:
 ---------------------------------------------------------------------
 Center     Atomic      Atomic             Coordinates (Angstroms)
 Number     Number       Type             X           Y           Z
 ---------------------------------------------------------------------
      1          7           0       -8.765820   -8.329143   -7.575915
      2          1           0       -8.703829   -8.337669   -8.598159
      3          1           0       -9.693659   -8.659733   -7.297313
      4          1           0       -7.995687   -8.949627   -7.184682
      5          6           0       -8.405534   -6.988472   -6.964886
      6          1           0       -8.554063   -6.213639   -7.717948
      7          6           0       -6.913681   -7.190560   -6.604390
      8          6           0       -9.281734   -6.757395   -5.721556
      9          1           0       -9.131091   -7.605866   -5.040608
     10          1           0      -10.333792   -6.772327   -6.041663
     11          8           0       -6.516391   -8.360548   -6.485293
     12          6           0       -9.018345   -5.442558   -4.959446
     13          1           0       -7.978209   -5.437234   -4.618620
     14          6           0       -9.240877   -4.203194   -5.834622
     15          1           0      -10.276577   -4.154722   -6.193179
     16          1           0       -8.581965   -4.167762   -6.711099
     17          1           0       -9.037910   -3.296756   -5.258398
     18          6           0       -9.910674   -5.396875   -3.712873
     19          1           0      -10.973148   -5.377694   -3.984373
     20          1           0       -9.740074   -6.263628   -3.064708
     21          1           0       -9.697321   -4.496345   -3.129502
     22          7           0       -6.193543   -6.092047   -6.429202
     23          1           0       -6.636342   -5.171885   -6.428613
     24          6           0       -4.885233   -6.047646   -5.769103
     25          1           0       -4.727671   -7.004379   -5.262870
     26          6           0       -5.045798   -4.894229   -4.757866
     27          6           0       -3.736342   -5.796067   -6.779107
     28          1           0       -3.906763   -4.801095   -7.213011
     29          8           0       -5.835629   -3.978534   -5.018233
     30          6           0       -2.370485   -5.802976   -6.079188
     31          1           0       -2.183363   -6.770790   -5.596409
     32          1           0       -2.270950   -5.024352   -5.319151
     33          1           0       -1.576795   -5.648961   -6.816516
     34          6           0       -3.771650   -6.837936   -7.903551
     35          1           0       -3.658162   -7.851785   -7.503213
     36          1           0       -2.953094   -6.657931   -8.607272
     37          1           0       -4.709369   -6.797804   -8.466444
     38          7           0       -4.327094   -4.982376   -3.630453
     39          1           0       -3.558493   -5.646843   -3.562102
     40          6           0       -4.213427   -3.888434   -2.674985
     41          1           0       -4.481252   -2.960920   -3.190724
     42          6           0       -2.731957   -3.855561   -2.260667
     43          6           0       -5.144661   -4.068103   -1.446459
     44          1           0       -4.995070   -3.179306   -0.818857
     45          8           0       -1.970460   -4.778236   -2.572050
     46          6           0       -6.617343   -4.106902   -1.870646
     47          1           0       -6.828612   -5.015202   -2.446739
     48          1           0       -6.883272   -3.246646   -2.492178
     49          1           0       -7.264216   -4.114818   -0.986997
     50          6           0       -4.771760   -5.306503   -0.624037
     51          1           0       -4.878869   -6.218199   -1.223411
     52          1           0       -3.740742   -5.262052   -0.259309
     53          1           0       -5.431211   -5.398807    0.244659
     54          7           0       -2.363999   -2.795845   -1.528452
     55          1           0       -3.022427   -2.078895   -1.236161
     56          6           0       -1.049125   -2.654029   -0.937049
     57          1           0       -0.727590   -3.622857   -0.536858
     58          6           0       -1.210393   -1.631305    0.204802
     59          6           0       -0.001673   -2.185065   -1.953160
     60          1           0        0.005377   -2.893777   -2.792364
     61          1           0        0.993362   -2.204888   -1.484702
     62          8           0       -2.283479   -1.067210    0.399059
     63          8           0       -0.364684   -0.875361   -2.357816
     64          1           0        0.371068   -0.499300   -2.862906
     65          7           0       -0.099054   -1.436818    0.954794
     66          1           0        0.801595   -1.725549    0.571985
     67          6           0        0.059730   -0.251783    1.787212
     68          1           0       -0.672999    0.501236    1.476535
     69          6           0        1.492958    0.247325    1.516537
     70          6           0       -0.139452   -0.580910    3.285627
     71          1           0        0.068890    0.325105    3.865201
     72          8           0        2.264783   -0.403902    0.806902
     73          6           0       -1.553813   -1.062328    3.594612
     74          1           0       -2.302181   -0.318461    3.304520
     75          1           0       -1.776732   -1.983850    3.045943
     76          1           0       -1.642950   -1.264559    4.665803
     77          8           0        0.843997   -1.515664    3.707770
     78          1           0        0.687969   -2.329348    3.199732
     79          7           0        1.818950    1.411785    2.100324
     80          1           0        1.178499    1.899438    2.718835
     81          6           0        3.171213    1.946521    2.099892
     82          1           0        3.881089    1.123361    2.194960
     83          6           0        3.265630    2.843469    3.339989
     84          6           0        3.453902    2.684269    0.765473
     85          1           0        2.619921    3.372772    0.586477
     86          1           0        3.411045    1.916397   -0.013467
     87          8           0        2.240670    3.267276    3.900428
     88          6           0        4.758506    3.487180    0.642060
     89          1           0        4.768317    4.317541    1.357996
     90          1           0        4.789334    3.936507   -0.357413
     91          6           0        6.049306    2.726096    0.910837
     92          7           0        7.121531    3.088437    0.181969
     93          1           0        7.064218    3.881012   -0.440605
     94          1           0        8.054479    2.814018    0.497533
     95          8           0        6.120913    1.851873    1.790538
     96          7           0        4.512028    3.105447    3.750511
     97          1           0        5.271132    2.689158    3.203300
     98          6           0        4.865094    4.068248    4.789973
     99          1           0        4.125734    4.881260    4.772377
    100          6           0        6.199929    4.688107    4.317307
    101          6           0        4.709567    3.380691    6.185259
    102          1           0        5.116401    2.363967    6.068419
    103          8           0        6.491848    4.650536    3.115868
    104          6           0        5.375179    4.025072    7.399388
    105          1           0        6.455333    3.846794    7.429455
    106          1           0        5.155314    5.097532    7.467566
    107          1           0        4.944936    3.556293    8.288326
    108          8           0        3.328948    3.333663    6.503487
    109          1           0        2.802127    3.251609    5.682034
    110          7           0        6.998358    5.305270    5.210023
    111          1           0        6.783714    5.260915    6.193991
    112          6           0        8.313308    5.842027    4.828615
    113          1           0        8.196743    6.270639    3.829605
    114          6           0        9.318148    4.665469    4.766019
    115          6           0        8.756433    6.898961    5.828601
    116          1           0        9.712623    7.328176    5.519222
    117          1           0        8.013647    7.699709    5.892152
    118          1           0        8.906893    6.454854    6.816822
    119          8           0       10.131755    4.462908    5.662000
    120          7           0        9.173149    3.878375    3.667068
    121          1           0        8.393847    4.073995    3.043888
    122          6           0        9.825668    2.586500    3.552736
    123          1           0       10.592998    2.564796    4.329654
    124          6           0       10.456956    2.460902    2.170488
    125          6           0        8.836977    1.409499    3.718784
    126          1           0        8.140542    1.428633    2.874122
    127          1           0        9.408015    0.473609    3.639895
    128          8           0        9.849341    2.748539    1.136148
    129          6           0        8.030102    1.413468    5.025869
    130          1           0        7.493713    2.371079    5.079135
    131          6           0        6.982153    0.294090    4.975899
    132          1           0        7.467207   -0.688983    4.924131
    133          1           0        6.335791    0.396014    4.098046
    134          1           0        6.352267    0.303089    5.873039
    135          6           0        8.911184    1.298505    6.275213
    136          1           0        9.505636    0.375660    6.245051
    137          1           0        8.293491    1.259885    7.180427
    138          1           0        9.592981    2.148296    6.374130
    139          7           0       11.714239    1.957310    2.130302
    140          1           0       12.130577    1.619202    2.987178
    141          6           0       12.295169    1.539004    0.865831
    142          1           0       12.266614    2.383439    0.173183
    143          6           0       11.489610    0.429684    0.186386
    144          6           0       13.741334    1.077095    1.067607
    145          1           0       14.171776    0.780417    0.108300
    146          1           0       14.342604    1.889738    1.486148
    147          1           0       13.786744    0.217196    1.745777
    148          8           0       11.505136    0.223212   -1.003590
    149          8           0       10.814410   -0.341921    1.070183
    150          1           0       10.348966   -1.016587    0.541077
 ---------------------------------------------------------------------

 SCF Done:  E(RB3LYP) =  -3455.81095616     A.U. after    1 cycles

 Alpha  occ. eigenvalues --  -19.26634 -19.24104 -19.21626 -19.20854 -19.19335
 Alpha  occ. eigenvalues --  -19.18801 -19.18510 -19.18048 -19.17727 -19.17461
 Alpha  occ. eigenvalues --  -19.17140 -19.16981 -19.16092 -19.16042 -19.15395
 Alpha  occ. eigenvalues --  -14.60214 -14.49143 -14.45054 -14.42938 -14.42110
 Alpha  occ. eigenvalues --  -14.41579 -14.41489 -14.40664 -14.40386 -14.39249
 Alpha  occ. eigenvalues --  -14.39015 -10.43312 -10.40579 -10.38575 -10.36255
 Alpha  occ. eigenvalues --  -10.36210 -10.35357 -10.35102 -10.34023 -10.33918
 Alpha  occ. eigenvalues --  -10.33862 -10.33784 -10.33485 -10.33318 -10.32482
 Alpha  occ. eigenvalues --  -10.31032 -10.30536 -10.30168 -10.30037 -10.28983
 Alpha  occ. eigenvalues --  -10.28855 -10.28766 -10.28764 -10.28299 -10.28218
 Alpha  occ. eigenvalues --  -10.28132 -10.27924 -10.27750 -10.27244 -10.27236
 Alpha  occ. eigenvalues --  -10.27075 -10.26126 -10.25587 -10.24769 -10.24419
 Alpha  occ. eigenvalues --  -10.23996 -10.23975 -10.23939 -10.22414 -10.22321
 Alpha  occ. eigenvalues --  -10.22118 -10.21796 -10.21470 -10.20038 -10.19816
 Alpha  occ. eigenvalues --   -1.19189  -1.14875  -1.14126  -1.13506  -1.11418
 Alpha  occ. eigenvalues --   -1.10384  -1.10208  -1.09293  -1.08993  -1.08582
 Alpha  occ. eigenvalues --   -1.08207  -1.07451  -1.07118  -1.06474  -1.05993
 Alpha  occ. eigenvalues --   -1.05819  -1.04175  -1.01811  -0.99710  -0.98442
 Alpha  occ. eigenvalues --   -0.98400  -0.98108  -0.97493  -0.97366  -0.96180
 Alpha  occ. eigenvalues --   -0.94818  -0.94288  -0.90781  -0.88404  -0.87923
 Alpha  occ. eigenvalues --   -0.85155  -0.84719  -0.83982  -0.82967  -0.82827
 Alpha  occ. eigenvalues --   -0.82627  -0.81407  -0.80378  -0.79968  -0.78633
 Alpha  occ. eigenvalues --   -0.78198  -0.78085  -0.77908  -0.76857  -0.76402
 Alpha  occ. eigenvalues --   -0.75659  -0.74444  -0.74055  -0.73188  -0.72212
 Alpha  occ. eigenvalues --   -0.72139  -0.71293  -0.71041  -0.70383  -0.68935
 Alpha  occ. eigenvalues --   -0.68593  -0.68508  -0.68001  -0.67117  -0.66979
 Alpha  occ. eigenvalues --   -0.66031  -0.65775  -0.65643  -0.65002  -0.64688
 Alpha  occ. eigenvalues --   -0.64162  -0.64052  -0.63744  -0.63222  -0.63186
 Alpha  occ. eigenvalues --   -0.62517  -0.62484  -0.62019  -0.61654  -0.60191
 Alpha  occ. eigenvalues --   -0.59837  -0.59376  -0.58889  -0.58739  -0.58295
 Alpha  occ. eigenvalues --   -0.57767  -0.56986  -0.56848  -0.56313  -0.56144
 Alpha  occ. eigenvalues --   -0.55950  -0.55139  -0.54878  -0.54693  -0.54500
 Alpha  occ. eigenvalues --   -0.54103  -0.54080  -0.53631  -0.53592  -0.53436
 Alpha  occ. eigenvalues --   -0.53174  -0.52957  -0.52820  -0.52636  -0.52424
 Alpha  occ. eigenvalues --   -0.52029  -0.51802  -0.51572  -0.51339  -0.51216
 Alpha  occ. eigenvalues --   -0.50739  -0.50489  -0.50358  -0.50041  -0.49956
 Alpha  occ. eigenvalues --   -0.49795  -0.49469  -0.49289  -0.49127  -0.48871
 Alpha  occ. eigenvalues --   -0.48713  -0.48471  -0.48226  -0.48118  -0.47856
 Alpha  occ. eigenvalues --   -0.47612  -0.47543  -0.47499  -0.47403  -0.46763
 Alpha  occ. eigenvalues --   -0.46535  -0.46316  -0.46179  -0.45890  -0.45742
 Alpha  occ. eigenvalues --   -0.45689  -0.45471  -0.45392  -0.45038  -0.44955
 Alpha  occ. eigenvalues --   -0.44714  -0.44567  -0.44450  -0.44218  -0.44090
 Alpha  occ. eigenvalues --   -0.44035  -0.43969  -0.43755  -0.43728  -0.43418
 Alpha  occ. eigenvalues --   -0.43269  -0.43057  -0.42824  -0.42675  -0.42600
 Alpha  occ. eigenvalues --   -0.42373  -0.42370  -0.42243  -0.42047  -0.41798
 Alpha  occ. eigenvalues --   -0.41748  -0.41659  -0.41567  -0.41208  -0.41178
 Alpha  occ. eigenvalues --   -0.41006  -0.40960  -0.40818  -0.40761  -0.40611
 Alpha  occ. eigenvalues --   -0.40317  -0.40254  -0.40042  -0.39385  -0.39241
 Alpha  occ. eigenvalues --   -0.38827  -0.38612  -0.37863  -0.37130  -0.36008
 Alpha  occ. eigenvalues --   -0.35753  -0.35714  -0.35567  -0.35348  -0.34969
 Alpha  occ. eigenvalues --   -0.34143  -0.33574  -0.33511  -0.33033  -0.33014
 Alpha  occ. eigenvalues --   -0.32425  -0.32068  -0.31977  -0.31774  -0.31556
 Alpha  occ. eigenvalues --   -0.31417  -0.30842  -0.30783  -0.30254  -0.30056
 Alpha  occ. eigenvalues --   -0.30002  -0.29371  -0.29096  -0.28581  -0.28253
 Alpha virt. eigenvalues --   -0.12351  -0.11049  -0.07603  -0.06405  -0.05273
 Alpha virt. eigenvalues --   -0.04701  -0.04667  -0.04047  -0.03756  -0.03526
 Alpha virt. eigenvalues --   -0.02603  -0.02241  -0.02132  -0.01944  -0.01197

 Mulliken charges:
               1
     1  N   -0.753045
     2  H    0.416430
     3  H    0.413106
     4  H    0.431835
     5  C   -0.122032
     6  H    0.213565
     7  C    0.646566
     8  C   -0.284650
     9  H    0.172120
    10  H    0.162771
    11  O   -0.542436
    12  C   -0.112517
    13  H    0.167851
    14  C   -0.456832
    15  H    0.153711
    16  H    0.132834
    17  H    0.192515
    18  C   -0.452622
    19  H    0.153855
    20  H    0.155025
    21  H    0.178920
    22  N   -0.599235
    23  H    0.385191
    24  C   -0.073783
    25  H    0.186042
    26  C    0.629344
    27  C   -0.077537
    28  H    0.149260
    29  O   -0.556246
    30  C   -0.476987
    31  H    0.153971
    32  H    0.176249
    33  H    0.167861
    34  C   -0.445641
    35  H    0.162283
    36  H    0.167716
    37  H    0.129977
    38  N   -0.597960
    39  H    0.367731
    40  C   -0.075139
    41  H    0.190276
    42  C    0.635173
    43  C   -0.080251
    44  H    0.151488
    45  O   -0.560789
    46  C   -0.452802
    47  H    0.137420
    48  H    0.161368
    49  H    0.155149
    50  C   -0.461778
    51  H    0.142961
    52  H    0.165532
    53  H    0.160055
    54  N   -0.606336
    55  H    0.368634
    56  C   -0.070169
    57  H    0.186510
    58  C    0.631820
    59  C   -0.049046
    60  H    0.161674
    61  H    0.148668
    62  O   -0.531903
    63  O   -0.613409
    64  H    0.407871
    65  N   -0.634740
    66  H    0.364546
    67  C   -0.090265
    68  H    0.183950
    69  C    0.648200
    70  C    0.132887
    71  H    0.150652
    72  O   -0.556056
    73  C   -0.453885
    74  H    0.158394
    75  H    0.143580
    76  H    0.164602
    77  O   -0.616526
    78  H    0.390951
    79  N   -0.623479
    80  H    0.359673
    81  C   -0.047879
    82  H    0.217383
    83  C    0.593326
    84  C   -0.261221
    85  H    0.149059
    86  H    0.176695
    87  O   -0.575765
    88  C   -0.396572
    89  H    0.205581
    90  H    0.147561
    91  C    0.643093
    92  N   -0.766313
    93  H    0.337021
    94  H    0.406239
    95  O   -0.555072
    96  N   -0.630490
    97  H    0.417025
    98  C   -0.104862
    99  H    0.200068
   100  C    0.606609
   101  C    0.187554
   102  H    0.143341
   103  O   -0.550521
   104  C   -0.508616
   105  H    0.154647
   106  H    0.155637
   107  H    0.190357
   108  O   -0.666795
   109  H    0.431740
   110  N   -0.612317
   111  H    0.354508
   112  C   -0.057790
   113  H    0.181550
   114  C    0.615959
   115  C   -0.464719
   116  H    0.175792
   117  H    0.155352
   118  H    0.174465
   119  O   -0.523509
   120  N   -0.607810
   121  H    0.377331
   122  C   -0.089052
   123  H    0.175300
   124  C    0.666166
   125  C   -0.292071
   126  H    0.190528
   127  H    0.136739
   128  O   -0.558237
   129  C   -0.078463
   130  H    0.113111
   131  C   -0.459519
   132  H    0.137871
   133  H    0.166058
   134  H    0.144842
   135  C   -0.470818
   136  H    0.132844
   137  H    0.139534
   138  H    0.180727
   139  N   -0.600330
   140  H    0.342151
   141  C   -0.013179
   142  H    0.201730
   143  C    0.596467
   144  C   -0.490665
   145  H    0.191530
   146  H    0.176641
   147  H    0.162930
   148  O   -0.460126
   149  O   -0.568259
   150  H    0.417242
 Sum of Mulliken charges =   1.00000

 Dipole moment (field-independent basis, Debye):
    X=            -25.4027    Y=            -26.0493    Z=            -27.0544  Tot=             45.3410
 Quadrupole moment (field-independent basis, Debye-Ang):
   XX=            -23.4047   YY=           -169.7866   ZZ=           -213.2632
   XY=            280.8803   XZ=            263.0841   YZ=            216.8110

 Normal termination of Gaussian 16 at Sun Jul 24 19:01:06 2022.
